
     Program PWSCF v.5.3.0 (svn rev. 11974) starts on 25Jun2016 at  7:33:44 

     This program is part of the open-source Quantum ESPRESSO suite
     for quantum simulation of materials; please cite
         "P. Giannozzi et al., J. Phys.:Condens. Matter 21 395502 (2009);
          URL http://www.quantum-espresso.org", 
     in publications or presentations arising from this work. More details at
     http://www.quantum-espresso.org/quote

     Parallel version (MPI), running on    32 processors
     R & G space division:  proc/nbgrp/npool/nimage =      32
     Waiting for input...
     Reading input from standard input
Warning: card    &IONS ignored
Warning: card TRUST_RADIUS_MAX=0.2 ignored
Warning: card / ignored
Warning: card     &CELL ignored
Warning: card CELL_DYNAMICS='BFGS' ignored
Warning: card / ignored

     Current dimensions of program PWSCF are:
     Max number of different atomic species (ntypx) = 10
     Max number of k-points (npk) =  40000
     Max angular momentum in pseudopotentials (lmaxx) =  3
               file N.pbe-n-kjpaw_psl.1.0.0.UPF: wavefunction(s)  2S renormalized
               file C.pbe-n-kjpaw_psl.1.0.0.UPF: wavefunction(s)  2S 2P renormalized
               file H.pbe-kjpaw_psl.1.0.0.UPF: wavefunction(s)  1S renormalized
               file O.pbe-n-kjpaw_psl.1.0.0.UPF: wavefunction(s)  2S 2P renormalized

     Subspace diagonalization in iterative solution of the eigenvalue problem:
     a serial algorithm will be used


     Parallelization info
     --------------------
     sticks:   dense  smooth     PW     G-vecs:    dense   smooth      PW
     Min         381     152     41                26876     6781     954
     Max         382     153     42                26879     6822     957
     Sum       12201    4887   1319               860055   217673   30573


     Title: 
     HMX-scf-pbe-n-kjpaw-kp242-ec-60-nofor-nostress-conv-em4                    


     bravais-lattice index     =            0
     lattice parameter (alat)  =       1.8897  a.u.
     unit-cell volume          =    3465.5049 (a.u.)^3
     number of atoms/cell      =           56
     number of atomic types    =            4
     number of electrons       =       224.00
     number of Kohn-Sham states=          112
     kinetic-energy cutoff     =      60.0000  Ry
     charge density cutoff     =     600.0000  Ry
     convergence threshold     =      1.0E-06
     mixing beta               =       0.7000
     number of iterations used =            8  plain     mixing
     Exchange-correlation      =  SLA  PW   PBX  PBC ( 1  4  3  4 0 0)

     celldm(1)=   1.889726  celldm(2)=   0.000000  celldm(3)=   0.000000
     celldm(4)=   0.000000  celldm(5)=   0.000000  celldm(6)=   0.000000

     crystal axes: (cart. coord. in units of alat)
               a(1) = (   6.525400   0.000000   0.000000 )  
               a(2) = (   0.000000  10.970200   0.000000 )  
               a(3) = (  -1.601165   0.000000   7.173784 )  

     reciprocal axes: (cart. coord. in units 2 pi/alat)
               b(1) = (  0.153247 -0.000000  0.034204 )  
               b(2) = (  0.000000  0.091156 -0.000000 )  
               b(3) = (  0.000000  0.000000  0.139396 )  


     PseudoPot. # 1 for  N read from file:
     /users/majewski/.data/PSEUDOPOTENTIALS/N.pbe-n-kjpaw_psl.1.0.0.UPF
     MD5 check sum: c21df8f53e59d08c3548513d559cdda6
     Pseudo is Projector augmented-wave + core cor, Zval =  5.0
     Generated using "atomic" code by A. Dal Corso  v.5.3.0 svn rev. 11974
     Shape of augmentation charge: PSQ
     Using radial grid of 1085 points,  4 beta functions with: 
                l(1) =   0
                l(2) =   0
                l(3) =   1
                l(4) =   1
     Q(r) pseudized with 0 coefficients 


     PseudoPot. # 2 for  C read from file:
     /users/majewski/.data/PSEUDOPOTENTIALS/C.pbe-n-kjpaw_psl.1.0.0.UPF
     MD5 check sum: 2ba8448e293caca687844dde9a1b88a8
     Pseudo is Projector augmented-wave + core cor, Zval =  4.0
     Generated using "atomic" code by A. Dal Corso  v.5.3.0 svn rev. 11974
     Shape of augmentation charge: PSQ
     Using radial grid of 1073 points,  4 beta functions with: 
                l(1) =   0
                l(2) =   0
                l(3) =   1
                l(4) =   1
     Q(r) pseudized with 0 coefficients 


     PseudoPot. # 3 for  H read from file:
     /users/majewski/.data/PSEUDOPOTENTIALS/H.pbe-kjpaw_psl.1.0.0.UPF
     MD5 check sum: bc0feb48a24907a0b97fa6ee2d589a29
     Pseudo is Projector augmented-wave, Zval =  1.0
     Generated using "atomic" code by A. Dal Corso  v.5.3.0 svn rev. 11974
     Shape of augmentation charge: PSQ
     Using radial grid of  929 points,  2 beta functions with: 
                l(1) =   0
                l(2) =   0
     Q(r) pseudized with 0 coefficients 


     PseudoPot. # 4 for  O read from file:
     /users/majewski/.data/PSEUDOPOTENTIALS/O.pbe-n-kjpaw_psl.1.0.0.UPF
     MD5 check sum: 9c0ade6c043cf4a781bde3908a3a8206
     Pseudo is Projector augmented-wave + core cor, Zval =  6.0
     Generated using "atomic" code by A. Dal Corso  v.5.3.0 svn rev. 11974
     Shape of augmentation charge: PSQ
     Using radial grid of 1095 points,  4 beta functions with: 
                l(1) =   0
                l(2) =   0
                l(3) =   1
                l(4) =   1
     Q(r) pseudized with 0 coefficients 


     atomic species   valence    mass     pseudopotential
        N              5.00    14.00670      N( 1.00)
        C              4.00    12.01100      C( 1.00)
        H              1.00     1.00790      H( 1.00)
        O              6.00    15.99940      O( 1.00)

      4 Sym. Ops., with inversion, found ( 2 have fractional translation)


                                    s                        frac. trans.

      isym =  1     identity                                     

 cryst.   s( 1) = (     1          0          0      )
                  (     0          1          0      )
                  (     0          0          1      )

 cart.    s( 1) = (  1.0000000  0.0000000  0.0000000 )
                  (  0.0000000  1.0000000  0.0000000 )
                  (  0.0000000  0.0000000  1.0000000 )


      isym =  2     180 deg rotation - cart. axis [0,1,0]        

 cryst.   s( 2) = (    -1          0          0      )    f =(  0.5000000 )
                  (     0          1          0      )       (  0.5000000 )
                  (     0          0         -1      )       (  0.5000000 )

 cart.    s( 2) = ( -1.0000000  0.0000000  0.0000000 )    f =(  2.4621177 )
                  (  0.0000000  1.0000000  0.0000000 )       (  5.4851000 )
                  (  0.0000000  0.0000000 -1.0000000 )       (  3.5868922 )


      isym =  3     inversion                                    

 cryst.   s( 3) = (    -1          0          0      )
                  (     0         -1          0      )
                  (     0          0         -1      )

 cart.    s( 3) = ( -1.0000000  0.0000000  0.0000000 )
                  (  0.0000000 -1.0000000  0.0000000 )
                  (  0.0000000  0.0000000 -1.0000000 )


      isym =  4     inv. 180 deg rotation - cart. axis [0,1,0]   

 cryst.   s( 4) = (     1          0          0      )    f =( -0.5000000 )
                  (     0         -1          0      )       (  0.5000000 )
                  (     0          0          1      )       ( -0.5000000 )

 cart.    s( 4) = (  1.0000000  0.0000000  0.0000000 )    f =( -2.4621177 )
                  (  0.0000000 -1.0000000  0.0000000 )       (  5.4851000 )
                  (  0.0000000  0.0000000  1.0000000 )       ( -3.5868922 )


   Cartesian axes

     site n.     atom                  positions (alat units)
         1           N   tau(   1) = (  -0.8600534   6.8323503   3.3057516  )
         2           O   tau(   2) = (   1.0740307   7.8956917   3.1284874  )
         3           N   tau(   3) = (   0.0641502   7.7134767   3.8085621  )
         4           N   tau(   4) = (  -2.0611165   5.7640722   5.0625396  )
         5           O   tau(   5) = (  -3.2546734   4.7030344   6.6181748  )
         6           N   tau(   6) = (  -3.2420076   5.5007874   5.6931153  )
         7           O   tau(   7) = (  -0.1744868   8.2015409   4.9011295  )
         8           C   tau(   8) = (  -2.1308106   6.7490864   3.9685375  )
         9           H   tau(   9) = (  -2.8209601   6.4811942   3.3272012  )
        10           H   tau(  10) = (  -2.3726867   7.6275801   4.3300962  )
        11           O   tau(  11) = (  -4.2139476   6.1474807   5.2942529  )
        12           C   tau(  12) = (  -0.5939543   6.2077071   2.0208551  )
        13           H   tau(  13) = (  -1.4110814   5.7834894   1.7145345  )
        14           H   tau(  14) = (  -0.3209154   6.8519869   1.3501062  )
        15           H   tau(  15) = (   2.1412023  -1.3668869   4.9369984  )
        16           H   tau(  16) = (   1.0510363  -0.2983894   5.3014266  )
        17           C   tau(  17) = (   1.8681633  -0.7226071   5.6077472  )
        18           O   tau(  18) = (  -1.7518299  -0.6623807   8.8811450  )
        19           H   tau(  19) = (   0.0894310  -2.1424801   7.9169884  )
        20           H   tau(  20) = (  -0.3588424  -0.9960942   6.9140934  )
        21           C   tau(  21) = (   0.3313071  -1.2639864   7.5554297  )
        22           O   tau(  22) = (   2.2876309  -2.7164409   8.4880216  )
        23           N   tau(  23) = (  -0.7798899  -0.0156874   9.2800074  )
        24           O   tau(  24) = (  -0.7925557   0.7820656  10.2050669  )
        25           N   tau(  25) = (   0.4010012  -0.2789722   8.6494318  )
        26           N   tau(  26) = (   2.5262679  -2.2283767   7.3954543  )
        27           O   tau(  27) = (   3.5361484  -2.4105917   6.7153795  )
        28           N   tau(  28) = (   1.6020643  -1.3472503   6.8926437  )
        29           H   tau(  29) = (  -1.2802493   4.1182131   5.8236781  )
        30           H   tau(  30) = (  -0.1900832   5.1867106   5.4592499  )
        31           C   tau(  31) = (  -1.0072103   4.7624929   5.1529293  )
        32           O   tau(  32) = (   2.6127830   4.8227193   1.8795315  )
        33           H   tau(  33) = (   0.7715220   3.3426199   2.8436881  )
        34           H   tau(  34) = (   1.2197954   4.4890058   3.8465832  )
        35           C   tau(  35) = (   0.5296460   4.2211136   3.2052468  )
        36           O   tau(  36) = (  -1.4266778   2.7686591   2.2726549  )
        37           N   tau(  37) = (   1.6408430   5.4694126   1.4806691  )
        38           O   tau(  38) = (   1.6535088   6.2671656   0.5556096  )
        39           N   tau(  39) = (   0.4599518   5.2061278   2.1112447  )
        40           N   tau(  40) = (  -1.6653149   3.2567233   3.3652222  )
        41           O   tau(  41) = (  -2.6751954   3.0745083   4.0452970  )
        42           N   tau(  42) = (  -0.7411112   4.1378497   3.8680328  )
        43           H   tau(  43) = (   1.1818684   1.3668869   9.4105703  )
        44           H   tau(  44) = (   2.2720344   0.2983894   9.0461421  )
        45           C   tau(  45) = (   1.4549074   0.7226071   8.7398215  )
        46           O   tau(  46) = (   5.0749007   0.6623807   5.4664237  )
        47           H   tau(  47) = (   3.2336397   2.1424801   6.4305803  )
        48           H   tau(  48) = (   3.6819131   0.9960942   7.4334753  )
        49           C   tau(  49) = (   2.9917636   1.2639864   6.7921390  )
        50           O   tau(  50) = (   1.0354399   2.7164409   5.8595471  )
        51           N   tau(  51) = (   4.1029606   0.0156874   5.0675613  )
        52           O   tau(  52) = (   4.1156264  -0.7820656   4.1425018  )
        53           N   tau(  53) = (   2.9220695   0.2789722   5.6981369  )
        54           N   tau(  54) = (   0.7968028   2.2283767   6.9521144  )
        55           O   tau(  55) = (  -0.2130777   2.4105917   7.6321892  )
        56           N   tau(  56) = (   1.7210065   1.3472503   7.4549250  )

   Crystallographic axes

     site n.     atom                  positions (cryst. coord.)
         1           N   tau(   1) = ( -0.0187300  0.6228100  0.4608100  )
         2           O   tau(   2) = (  0.2716000  0.7197400  0.4361000  )
         3           N   tau(   3) = (  0.1401000  0.7031300  0.5309000  )
         4           N   tau(   4) = ( -0.1427000  0.5254300  0.7057000  )
         5           O   tau(   5) = ( -0.2724000  0.4287100  0.9225500  )
         6           N   tau(   6) = ( -0.3021000  0.5014300  0.7936000  )
         7           O   tau(   7) = (  0.1409000  0.7476200  0.6832000  )
         8           C   tau(   8) = ( -0.1908000  0.6152200  0.5532000  )
         9           H   tau(   9) = ( -0.3185000  0.5908000  0.4638000  )
        10           H   tau(  10) = ( -0.2155000  0.6953000  0.6036000  )
        11           O   tau(  11) = ( -0.4646900  0.5603800  0.7380000  )
        12           C   tau(  12) = ( -0.0219000  0.5658700  0.2817000  )
        13           H   tau(  13) = ( -0.1576000  0.5272000  0.2390000  )
        14           H   tau(  14) = ( -0.0030000  0.6246000  0.1882000  )
        15           H   tau(  15) = (  0.4970000 -0.1246000  0.6882000  )
        16           H   tau(  16) = (  0.3424000 -0.0272000  0.7390000  )
        17           C   tau(  17) = (  0.4781000 -0.0658700  0.7817000  )
        18           O   tau(  18) = (  0.0353100 -0.0603800  1.2380000  )
        19           H   tau(  19) = (  0.2845000 -0.1953000  1.1036000  )
        20           H   tau(  20) = (  0.1815000 -0.0908000  0.9638000  )
        21           C   tau(  21) = (  0.3092000 -0.1152200  1.0532000  )
        22           O   tau(  22) = (  0.6409000 -0.2476200  1.1832000  )
        23           N   tau(  23) = (  0.1979000 -0.0014300  1.2936000  )
        24           O   tau(  24) = (  0.2276000  0.0712900  1.4225500  )
        25           N   tau(  25) = (  0.3573000 -0.0254300  1.2057000  )
        26           N   tau(  26) = (  0.6401000 -0.2031300  1.0309000  )
        27           O   tau(  27) = (  0.7716000 -0.2197400  0.9361000  )
        28           N   tau(  28) = (  0.4812700 -0.1228100  0.9608100  )
        29           H   tau(  29) = (  0.0030000  0.3754000  0.8118000  )
        30           H   tau(  30) = (  0.1576000  0.4728000  0.7610000  )
        31           C   tau(  31) = (  0.0219000  0.4341300  0.7183000  )
        32           O   tau(  32) = (  0.4646900  0.4396200  0.2620000  )
        33           H   tau(  33) = (  0.2155000  0.3047000  0.3964000  )
        34           H   tau(  34) = (  0.3185000  0.4092000  0.5362000  )
        35           C   tau(  35) = (  0.1908000  0.3847800  0.4468000  )
        36           O   tau(  36) = ( -0.1409000  0.2523800  0.3168000  )
        37           N   tau(  37) = (  0.3021000  0.4985700  0.2064000  )
        38           O   tau(  38) = (  0.2724000  0.5712900  0.0774500  )
        39           N   tau(  39) = (  0.1427000  0.4745700  0.2943000  )
        40           N   tau(  40) = ( -0.1401000  0.2968700  0.4691000  )
        41           O   tau(  41) = ( -0.2716000  0.2802600  0.5639000  )
        42           N   tau(  42) = (  0.0187300  0.3771900  0.5391900  )
        43           H   tau(  43) = (  0.5030000  0.1246000  1.3118000  )
        44           H   tau(  44) = (  0.6576000  0.0272000  1.2610000  )
        45           C   tau(  45) = (  0.5219000  0.0658700  1.2183000  )
        46           O   tau(  46) = (  0.9646900  0.0603800  0.7620000  )
        47           H   tau(  47) = (  0.7155000  0.1953000  0.8964000  )
        48           H   tau(  48) = (  0.8185000  0.0908000  1.0362000  )
        49           C   tau(  49) = (  0.6908000  0.1152200  0.9468000  )
        50           O   tau(  50) = (  0.3591000  0.2476200  0.8168000  )
        51           N   tau(  51) = (  0.8021000  0.0014300  0.7064000  )
        52           O   tau(  52) = (  0.7724000 -0.0712900  0.5774500  )
        53           N   tau(  53) = (  0.6427000  0.0254300  0.7943000  )
        54           N   tau(  54) = (  0.3599000  0.2031300  0.9691000  )
        55           O   tau(  55) = (  0.2284000  0.2197400  1.0639000  )
        56           N   tau(  56) = (  0.5187300  0.1228100  1.0391900  )

     number of k points=    16
                       cart. coord. in units 2pi/alat
        k(    1) = (   0.0191559   0.0113945   0.0217001), wk =   0.1250000
        k(    2) = (   0.0191559   0.0113945   0.0565492), wk =   0.1250000
        k(    3) = (   0.0191559   0.0113945  -0.0479981), wk =   0.1250000
        k(    4) = (   0.0191559   0.0113945  -0.0131490), wk =   0.1250000
        k(    5) = (   0.0191559   0.0341835   0.0217001), wk =   0.1250000
        k(    6) = (   0.0191559   0.0341835   0.0565492), wk =   0.1250000
        k(    7) = (   0.0191559   0.0341835  -0.0479981), wk =   0.1250000
        k(    8) = (   0.0191559   0.0341835  -0.0131490), wk =   0.1250000
        k(    9) = (   0.0574677   0.0113945   0.0302512), wk =   0.1250000
        k(   10) = (   0.0574677   0.0113945   0.0651003), wk =   0.1250000
        k(   11) = (   0.0574677   0.0113945  -0.0394471), wk =   0.1250000
        k(   12) = (   0.0574677   0.0113945  -0.0045979), wk =   0.1250000
        k(   13) = (   0.0574677   0.0341835   0.0302512), wk =   0.1250000
        k(   14) = (   0.0574677   0.0341835   0.0651003), wk =   0.1250000
        k(   15) = (   0.0574677   0.0341835  -0.0394471), wk =   0.1250000
        k(   16) = (   0.0574677   0.0341835  -0.0045979), wk =   0.1250000

                       cryst. coord.
        k(    1) = (   0.1250000   0.1250000   0.1250000), wk =   0.1250000
        k(    2) = (   0.1250000   0.1250000   0.3750000), wk =   0.1250000
        k(    3) = (   0.1250000   0.1250000  -0.3750000), wk =   0.1250000
        k(    4) = (   0.1250000   0.1250000  -0.1250000), wk =   0.1250000
        k(    5) = (   0.1250000   0.3750000   0.1250000), wk =   0.1250000
        k(    6) = (   0.1250000   0.3750000   0.3750000), wk =   0.1250000
        k(    7) = (   0.1250000   0.3750000  -0.3750000), wk =   0.1250000
        k(    8) = (   0.1250000   0.3750000  -0.1250000), wk =   0.1250000
        k(    9) = (   0.3750000   0.1250000   0.1250000), wk =   0.1250000
        k(   10) = (   0.3750000   0.1250000   0.3750000), wk =   0.1250000
        k(   11) = (   0.3750000   0.1250000  -0.3750000), wk =   0.1250000
        k(   12) = (   0.3750000   0.1250000  -0.1250000), wk =   0.1250000
        k(   13) = (   0.3750000   0.3750000   0.1250000), wk =   0.1250000
        k(   14) = (   0.3750000   0.3750000   0.3750000), wk =   0.1250000
        k(   15) = (   0.3750000   0.3750000  -0.3750000), wk =   0.1250000
        k(   16) = (   0.3750000   0.3750000  -0.1250000), wk =   0.1250000

     Dense  grid:   860055 G-vectors     FFT dimensions: ( 100, 162, 120)

     Smooth grid:   217673 G-vectors     FFT dimensions: (  64, 108,  72)

     Largest allocated arrays     est. size (Mb)     dimensions
        Kohn-Sham Wavefunctions         1.45 Mb     (     848,  112)
        NL pseudopotentials             4.55 Mb     (     848,  352)
        Each V/rho on FFT grid          0.99 Mb     (   64800)
        Each G-vector array             0.21 Mb     (   26877)
        G-vector shells                 0.20 Mb     (   26189)
     Largest temporary arrays     est. size (Mb)     dimensions
        Auxiliary wavefunctions         5.80 Mb     (     848,  448)
        Each subspace H/S matrix        3.06 Mb     (     448,  448)
        Each <psi_i|beta_j> matrix      0.60 Mb     (     352,  112)
        Arrays for rho mixing           7.91 Mb     (   64800,    8)

     Check: negative/imaginary core charge=   -0.000001    0.000000

     Initial potential from superposition of free atoms

     starting charge  223.99937, renormalised to  224.00000
     Starting wfc are  176 randomized atomic wfcs
     Checking if some PAW data can be deallocated... 
       node    0, deallocated PAW data for type:  2
       node    0, deallocated PAW data for type:  3
       node    1, deallocated PAW data for type:  2
       node    1, deallocated PAW data for type:  3
       node    1, deallocated PAW data for type:  4
       node    2, deallocated PAW data for type:  2
       node    2, deallocated PAW data for type:  3
       node    3, deallocated PAW data for type:  1
       node    3, deallocated PAW data for type:  3
       node    4, deallocated PAW data for type:  1
       node    4, deallocated PAW data for type:  2
       node    4, deallocated PAW data for type:  4
       node    5, deallocated PAW data for type:  1
       node    5, deallocated PAW data for type:  3
       node    6, deallocated PAW data for type:  1
       node    6, deallocated PAW data for type:  2
       node    6, deallocated PAW data for type:  4
       node    7, deallocated PAW data for type:  1
       node    7, deallocated PAW data for type:  2
       node    7, deallocated PAW data for type:  4
       node    8, deallocated PAW data for type:  1
       node    8, deallocated PAW data for type:  3
       node    9, deallocated PAW data for type:  1
       node    9, deallocated PAW data for type:  2
       node    9, deallocated PAW data for type:  4
       node   10, deallocated PAW data for type:  1
       node   10, deallocated PAW data for type:  3
       node   11, deallocated PAW data for type:  2
       node   11, deallocated PAW data for type:  3
       node   12, deallocated PAW data for type:  2
       node   12, deallocated PAW data for type:  3
       node   12, deallocated PAW data for type:  4
       node   13, deallocated PAW data for type:  2
       node   13, deallocated PAW data for type:  3
       node   14, deallocated PAW data for type:  1
       node   14, deallocated PAW data for type:  2
       node   14, deallocated PAW data for type:  4
       node   15, deallocated PAW data for type:  1
       node   15, deallocated PAW data for type:  3
       node   16, deallocated PAW data for type:  1
       node   16, deallocated PAW data for type:  2
       node   16, deallocated PAW data for type:  4
       node   17, deallocated PAW data for type:  1
       node   17, deallocated PAW data for type:  3
       node   18, deallocated PAW data for type:  2
       node   18, deallocated PAW data for type:  3
       node   19, deallocated PAW data for type:  2
       node   19, deallocated PAW data for type:  3
       node   19, deallocated PAW data for type:  4
       node   20, deallocated PAW data for type:  2
       node   20, deallocated PAW data for type:  3
       node   21, deallocated PAW data for type:  1
       node   21, deallocated PAW data for type:  2
       node   21, deallocated PAW data for type:  4
       node   22, deallocated PAW data for type:  1
       node   22, deallocated PAW data for type:  3
       node   23, deallocated PAW data for type:  1
       node   23, deallocated PAW data for type:  2
       node   23, deallocated PAW data for type:  4
       node   24, deallocated PAW data for type:  1
       node   24, deallocated PAW data for type:  3
       node   24, deallocated PAW data for type:  4
       node   25, deallocated PAW data for type:  1
       node   25, deallocated PAW data for type:  2
       node   25, deallocated PAW data for type:  3
       node   26, deallocated PAW data for type:  2
       node   26, deallocated PAW data for type:  3
       node   26, deallocated PAW data for type:  4
       node   27, deallocated PAW data for type:  1
       node   27, deallocated PAW data for type:  2
       node   27, deallocated PAW data for type:  3
       node   28, deallocated PAW data for type:  2
       node   28, deallocated PAW data for type:  3
       node   28, deallocated PAW data for type:  4
       node   29, deallocated PAW data for type:  2
       node   29, deallocated PAW data for type:  3
       node   29, deallocated PAW data for type:  4
       node   30, deallocated PAW data for type:  1
       node   30, deallocated PAW data for type:  2
       node   30, deallocated PAW data for type:  3
       node   31, deallocated PAW data for type:  2
       node   31, deallocated PAW data for type:  3
       node   31, deallocated PAW data for type:  4

     total cpu time spent up to now is       71.6 secs

     per-process dynamical memory:    56.8 Mb

     Self-consistent Calculation

     iteration #  1     ecut=    60.00 Ry     beta=0.70
     Davidson diagonalization with overlap
     ethr =  1.00E-02,  avg # of iterations =  3.0

     total cpu time spent up to now is      176.6 secs

     total energy              =   -1279.41243314 Ry
     Harris-Foulkes estimate   =   -1283.85272344 Ry
     estimated scf accuracy    <       6.81618271 Ry

     iteration #  2     ecut=    60.00 Ry     beta=0.70
     Davidson diagonalization with overlap
     ethr =  3.04E-03,  avg # of iterations =  4.0

     total cpu time spent up to now is      318.3 secs

     total energy              =   -1280.19753626 Ry
     Harris-Foulkes estimate   =   -1283.90472298 Ry
     estimated scf accuracy    <       7.54869008 Ry

     iteration #  3     ecut=    60.00 Ry     beta=0.70
     Davidson diagonalization with overlap
     ethr =  3.04E-03,  avg # of iterations =  4.0

     total cpu time spent up to now is      424.0 secs

     total energy              =   -1281.80134897 Ry
     Harris-Foulkes estimate   =   -1282.03489829 Ry
     estimated scf accuracy    <       0.43103067 Ry

     iteration #  4     ecut=    60.00 Ry     beta=0.70
     Davidson diagonalization with overlap
     ethr =  1.92E-04,  avg # of iterations =  4.8

     total cpu time spent up to now is      565.5 secs

     total energy              =   -1281.93698182 Ry
     Harris-Foulkes estimate   =   -1282.03380645 Ry
     estimated scf accuracy    <       0.21872173 Ry

     iteration #  5     ecut=    60.00 Ry     beta=0.70
     Davidson diagonalization with overlap
     ethr =  9.76E-05,  avg # of iterations =  4.0

     total cpu time spent up to now is      665.5 secs

     total energy              =   -1281.98108557 Ry
     Harris-Foulkes estimate   =   -1281.98832917 Ry
     estimated scf accuracy    <       0.01720264 Ry

     iteration #  6     ecut=    60.00 Ry     beta=0.70
     Davidson diagonalization with overlap
     ethr =  7.68E-06,  avg # of iterations =  5.7

     total cpu time spent up to now is      782.0 secs

     total energy              =   -1281.98418774 Ry
     Harris-Foulkes estimate   =   -1281.98624459 Ry
     estimated scf accuracy    <       0.00490188 Ry

     iteration #  7     ecut=    60.00 Ry     beta=0.70
     Davidson diagonalization with overlap
     ethr =  2.19E-06,  avg # of iterations =  6.1

     total cpu time spent up to now is      891.8 secs

     total energy              =   -1281.98526703 Ry
     Harris-Foulkes estimate   =   -1281.98534833 Ry
     estimated scf accuracy    <       0.00020715 Ry

     iteration #  8     ecut=    60.00 Ry     beta=0.70
     Davidson diagonalization with overlap
     ethr =  9.25E-08,  avg # of iterations =  5.0

     total cpu time spent up to now is     1038.2 secs

     total energy              =   -1281.98541652 Ry
     Harris-Foulkes estimate   =   -1281.98546411 Ry
     estimated scf accuracy    <       0.00012539 Ry

     iteration #  9     ecut=    60.00 Ry     beta=0.70
     Davidson diagonalization with overlap
     ethr =  5.60E-08,  avg # of iterations =  2.8

     total cpu time spent up to now is     1119.4 secs

     total energy              =   -1281.98540312 Ry
     Harris-Foulkes estimate   =   -1281.98542324 Ry
     estimated scf accuracy    <       0.00003722 Ry

     iteration # 10     ecut=    60.00 Ry     beta=0.70
     Davidson diagonalization with overlap
     ethr =  1.66E-08,  avg # of iterations =  5.0

     total cpu time spent up to now is     1260.4 secs

     total energy              =   -1281.98544659 Ry
     Harris-Foulkes estimate   =   -1281.98547201 Ry
     estimated scf accuracy    <       0.00016634 Ry

     iteration # 11     ecut=    60.00 Ry     beta=0.70
     Davidson diagonalization with overlap
     ethr =  1.66E-08,  avg # of iterations =  1.0

     total cpu time spent up to now is     1328.2 secs

     total energy              =   -1281.98540068 Ry
     Harris-Foulkes estimate   =   -1281.98544730 Ry
     estimated scf accuracy    <       0.00012398 Ry

     iteration # 12     ecut=    60.00 Ry     beta=0.70
     Davidson diagonalization with overlap
     ethr =  1.66E-08,  avg # of iterations =  5.0

     total cpu time spent up to now is     1479.8 secs

     total energy              =   -1281.98543779 Ry
     Harris-Foulkes estimate   =   -1281.98544183 Ry
     estimated scf accuracy    <       0.00002155 Ry

     iteration # 13     ecut=    60.00 Ry     beta=0.70
     Davidson diagonalization with overlap
     ethr =  9.62E-09,  avg # of iterations =  1.0

     total cpu time spent up to now is     1540.1 secs

     total energy              =   -1281.98543281 Ry
     Harris-Foulkes estimate   =   -1281.98543798 Ry
     estimated scf accuracy    <       0.00001477 Ry

     iteration # 14     ecut=    60.00 Ry     beta=0.70
     Davidson diagonalization with overlap
     ethr =  6.59E-09,  avg # of iterations =  5.0

     total cpu time spent up to now is     1669.8 secs

     total energy              =   -1281.98543797 Ry
     Harris-Foulkes estimate   =   -1281.98543874 Ry
     estimated scf accuracy    <       0.00000519 Ry

     iteration # 15     ecut=    60.00 Ry     beta=0.70
     Davidson diagonalization with overlap
     ethr =  2.32E-09,  avg # of iterations =  1.0

     total cpu time spent up to now is     1731.0 secs

     total energy              =   -1281.98543655 Ry
     Harris-Foulkes estimate   =   -1281.98543804 Ry
     estimated scf accuracy    <       0.00000398 Ry

     iteration # 16     ecut=    60.00 Ry     beta=0.70
     Davidson diagonalization with overlap
     ethr =  1.78E-09,  avg # of iterations =  4.0

     total cpu time spent up to now is     1833.1 secs

     End of self-consistent calculation

          k = 0.0192 0.0114 0.0217 ( 27156 PWs)   bands (ev):

   -23.9422 -23.9190 -23.9072 -23.8974 -23.6499 -23.6407 -23.6398 -23.6364
   -19.1688 -19.1633 -19.1563 -19.1439 -18.8486 -18.8484 -18.8441 -18.8429
   -18.2523 -18.2271 -17.2302 -17.1799 -17.0685 -17.0663 -16.0508 -16.0375
   -12.1052 -12.1021 -12.0815 -11.9631 -11.9074 -11.8329 -11.7784 -11.7583
    -8.8863  -8.8471  -8.2871  -8.2504  -7.5710  -7.5296  -7.4458  -7.4446
    -6.8631  -6.7564  -6.6086  -6.5278  -6.5105  -6.4138  -6.3512  -6.2678
    -6.1355  -6.1057  -6.0756  -5.9572  -5.9030  -5.8187  -5.7549  -5.7152
    -5.6573  -5.6366  -5.5581  -5.5172  -5.1352  -5.0200  -4.9325  -4.9225
    -4.4653  -4.4558  -4.4236  -4.3830  -4.2303  -4.1290  -3.8576  -3.8529
    -3.6971  -3.5856  -3.5325  -3.4936  -3.1645  -3.1250  -3.0534  -3.0334
    -0.8016  -0.7964  -0.3132  -0.3105  -0.2131  -0.1602  -0.1000  -0.0809
    -0.0257   0.0026   0.1696   0.2029   0.2146   0.2434   0.3726   0.3902
     0.4415   0.4576   0.6327   0.6853   0.7695   0.8155   0.8636   0.8901
     0.9125   1.0265   1.0591   1.1255   1.2128   1.3462   1.3657   1.3893

     occupation numbers 
     1.0000   1.0000   1.0000   1.0000   1.0000   1.0000   1.0000   1.0000
     1.0000   1.0000   1.0000   1.0000   1.0000   1.0000   1.0000   1.0000
     1.0000   1.0000   1.0000   1.0000   1.0000   1.0000   1.0000   1.0000
     1.0000   1.0000   1.0000   1.0000   1.0000   1.0000   1.0000   1.0000
     1.0000   1.0000   1.0000   1.0000   1.0000   1.0000   1.0000   1.0000
     1.0000   1.0000   1.0000   1.0000   1.0000   1.0000   1.0000   1.0000
     1.0000   1.0000   1.0000   1.0000   1.0000   1.0000   1.0000   1.0000
     1.0000   1.0000   1.0000   1.0000   1.0000   1.0000   1.0000   1.0000
     1.0000   1.0000   1.0000   1.0000   1.0000   1.0000   1.0000   1.0000
     1.0000   1.0000   1.0000   1.0000   1.0000   1.0000   1.0000   1.0000
     1.0000   1.0000   1.0000   1.0000   1.0000   1.0000   1.0000   1.0000
     1.0000   1.0000   1.0000   1.0000   1.0000   1.0000   1.0000   1.0000
     1.0000   1.0000   1.0000   1.0000   1.0000   1.0000   1.0000   1.0000
     1.0000   1.0000   1.0000   1.0000   1.0000   1.0000   1.0000   1.0000

          k = 0.0192 0.0114 0.0565 ( 27185 PWs)   bands (ev):

   -23.9340 -23.9247 -23.9034 -23.9023 -23.6514 -23.6481 -23.6366 -23.6322
   -19.1669 -19.1621 -19.1572 -19.1476 -18.8548 -18.8539 -18.8392 -18.8376
   -18.2405 -18.2404 -17.2062 -17.2036 -17.0643 -17.0617 -16.0462 -16.0445
   -12.1140 -12.1124 -12.0276 -12.0075 -11.8645 -11.8547 -11.7864 -11.7778
    -8.8666  -8.8307  -8.2686  -8.2438  -7.5848  -7.5349  -7.4268  -7.3502
    -6.9099  -6.7831  -6.5948  -6.5616  -6.5501  -6.4347  -6.3754  -6.3465
    -6.1963  -6.1621  -5.9631  -5.9098  -5.8941  -5.8276  -5.8001  -5.7614
    -5.7139  -5.6592  -5.4774  -5.4331  -5.1385  -5.0583  -4.9293  -4.8926
    -4.4232  -4.4146  -4.3707  -4.2942  -4.1554  -4.1265  -3.9725  -3.9684
    -3.6820  -3.6331  -3.4715  -3.4609  -3.1876  -3.1835  -3.0362  -3.0114
    -0.7679  -0.7337  -0.3265  -0.3152  -0.2211  -0.1892  -0.1335  -0.1112
    -0.0800  -0.0388   0.0690   0.1305   0.2352   0.2867   0.3431   0.3544
     0.5478   0.6092   0.6536   0.6970   0.7736   0.7922   0.8246   0.8741
     0.9840   1.0237   1.0952   1.1201   1.2238   1.2944   1.3715   1.3957

     occupation numbers 
     1.0000   1.0000   1.0000   1.0000   1.0000   1.0000   1.0000   1.0000
     1.0000   1.0000   1.0000   1.0000   1.0000   1.0000   1.0000   1.0000
     1.0000   1.0000   1.0000   1.0000   1.0000   1.0000   1.0000   1.0000
     1.0000   1.0000   1.0000   1.0000   1.0000   1.0000   1.0000   1.0000
     1.0000   1.0000   1.0000   1.0000   1.0000   1.0000   1.0000   1.0000
     1.0000   1.0000   1.0000   1.0000   1.0000   1.0000   1.0000   1.0000
     1.0000   1.0000   1.0000   1.0000   1.0000   1.0000   1.0000   1.0000
     1.0000   1.0000   1.0000   1.0000   1.0000   1.0000   1.0000   1.0000
     1.0000   1.0000   1.0000   1.0000   1.0000   1.0000   1.0000   1.0000
     1.0000   1.0000   1.0000   1.0000   1.0000   1.0000   1.0000   1.0000
     1.0000   1.0000   1.0000   1.0000   1.0000   1.0000   1.0000   1.0000
     1.0000   1.0000   1.0000   1.0000   1.0000   1.0000   1.0000   1.0000
     1.0000   1.0000   1.0000   1.0000   1.0000   1.0000   1.0000   1.0000
     1.0000   1.0000   1.0000   1.0000   1.0000   1.0000   1.0000   1.0000

          k = 0.0192 0.0114-0.0480 ( 27226 PWs)   bands (ev):

   -23.9350 -23.9241 -23.9072 -23.8982 -23.6528 -23.6498 -23.6335 -23.6321
   -19.1646 -19.1629 -19.1540 -19.1526 -18.8563 -18.8556 -18.8374 -18.8360
   -18.2522 -18.2273 -17.2280 -17.1815 -17.0668 -17.0651 -16.0500 -16.0342
   -12.1238 -12.1110 -12.0619 -11.9739 -11.8952 -11.8196 -11.7899 -11.7766
    -8.8758  -8.7921  -8.2558  -8.2529  -7.5795  -7.5641  -7.4387  -7.3245
    -6.9185  -6.8092  -6.5940  -6.5607  -6.5112  -6.4860  -6.3902  -6.3541
    -6.2130  -6.1870  -5.9686  -5.9340  -5.8274  -5.7926  -5.7856  -5.7718
    -5.7138  -5.6452  -5.4796  -5.4280  -5.1326  -5.0589  -4.9155  -4.8866
    -4.4533  -4.3860  -4.3530  -4.2961  -4.1862  -4.1444  -3.9770  -3.9274
    -3.6878  -3.6355  -3.5250  -3.4428  -3.1937  -3.1717  -3.0296  -3.0195
    -0.7029  -0.6426  -0.3155  -0.3073  -0.2769  -0.2457  -0.1710  -0.1519
    -0.0914  -0.0867   0.0350   0.1167   0.2538   0.2893   0.2993   0.3492
     0.5893   0.6730   0.6926   0.7061   0.7416   0.8348   0.8449   0.8570
     0.9765   1.0305   1.1071   1.1637   1.2303   1.2566   1.3601   1.3804

     occupation numbers 
     1.0000   1.0000   1.0000   1.0000   1.0000   1.0000   1.0000   1.0000
     1.0000   1.0000   1.0000   1.0000   1.0000   1.0000   1.0000   1.0000
     1.0000   1.0000   1.0000   1.0000   1.0000   1.0000   1.0000   1.0000
     1.0000   1.0000   1.0000   1.0000   1.0000   1.0000   1.0000   1.0000
     1.0000   1.0000   1.0000   1.0000   1.0000   1.0000   1.0000   1.0000
     1.0000   1.0000   1.0000   1.0000   1.0000   1.0000   1.0000   1.0000
     1.0000   1.0000   1.0000   1.0000   1.0000   1.0000   1.0000   1.0000
     1.0000   1.0000   1.0000   1.0000   1.0000   1.0000   1.0000   1.0000
     1.0000   1.0000   1.0000   1.0000   1.0000   1.0000   1.0000   1.0000
     1.0000   1.0000   1.0000   1.0000   1.0000   1.0000   1.0000   1.0000
     1.0000   1.0000   1.0000   1.0000   1.0000   1.0000   1.0000   1.0000
     1.0000   1.0000   1.0000   1.0000   1.0000   1.0000   1.0000   1.0000
     1.0000   1.0000   1.0000   1.0000   1.0000   1.0000   1.0000   1.0000
     1.0000   1.0000   1.0000   1.0000   1.0000   1.0000   1.0000   1.0000

          k = 0.0192 0.0114-0.0131 ( 27200 PWs)   bands (ev):

   -23.9426 -23.9192 -23.9083 -23.8956 -23.6523 -23.6437 -23.6362 -23.6345
   -19.1677 -19.1620 -19.1566 -19.1462 -18.8523 -18.8518 -18.8399 -18.8399
   -18.2569 -18.2212 -17.2392 -17.1706 -17.0707 -17.0701 -16.0512 -16.0306
   -12.1194 -12.1028 -12.0871 -11.9619 -11.9074 -11.8222 -11.7763 -11.7589
    -8.8974  -8.8066  -8.2807  -8.2534  -7.5755  -7.5535  -7.4794  -7.3946
    -6.8311  -6.8159  -6.6051  -6.5150  -6.5091  -6.4601  -6.3583  -6.2848
    -6.1806  -6.1397  -6.0113  -5.9599  -5.8636  -5.8162  -5.7374  -5.7110
    -5.6720  -5.6249  -5.5304  -5.5215  -5.1021  -5.0567  -4.9289  -4.8926
    -4.4679  -4.4464  -4.4214  -4.3989  -4.2388  -4.1390  -3.8651  -3.8064
    -3.7320  -3.5948  -3.5452  -3.4924  -3.1703  -3.1209  -3.0462  -3.0396
    -0.7534  -0.7314  -0.3029  -0.2990  -0.2137  -0.1791  -0.1127  -0.0923
    -0.0821  -0.0438   0.0619   0.1215   0.1890   0.2660   0.3178   0.3828
     0.5616   0.5978   0.6253   0.7095   0.7596   0.8205   0.8768   0.8894
     0.9210   1.0051   1.0868   1.1538   1.2102   1.3264   1.3519   1.3768

     occupation numbers 
     1.0000   1.0000   1.0000   1.0000   1.0000   1.0000   1.0000   1.0000
     1.0000   1.0000   1.0000   1.0000   1.0000   1.0000   1.0000   1.0000
     1.0000   1.0000   1.0000   1.0000   1.0000   1.0000   1.0000   1.0000
     1.0000   1.0000   1.0000   1.0000   1.0000   1.0000   1.0000   1.0000
     1.0000   1.0000   1.0000   1.0000   1.0000   1.0000   1.0000   1.0000
     1.0000   1.0000   1.0000   1.0000   1.0000   1.0000   1.0000   1.0000
     1.0000   1.0000   1.0000   1.0000   1.0000   1.0000   1.0000   1.0000
     1.0000   1.0000   1.0000   1.0000   1.0000   1.0000   1.0000   1.0000
     1.0000   1.0000   1.0000   1.0000   1.0000   1.0000   1.0000   1.0000
     1.0000   1.0000   1.0000   1.0000   1.0000   1.0000   1.0000   1.0000
     1.0000   1.0000   1.0000   1.0000   1.0000   1.0000   1.0000   1.0000
     1.0000   1.0000   1.0000   1.0000   1.0000   1.0000   1.0000   1.0000
     1.0000   1.0000   1.0000   1.0000   1.0000   1.0000   1.0000   1.0000
     1.0000   1.0000   1.0000   1.0000   1.0000   1.0000   1.0000   1.0000

          k = 0.0192 0.0342 0.0217 ( 27186 PWs)   bands (ev):

   -23.9367 -23.9278 -23.9025 -23.8991 -23.6462 -23.6419 -23.6397 -23.6388
   -19.1685 -19.1668 -19.1508 -19.1463 -18.8486 -18.8485 -18.8437 -18.8432
   -18.2452 -18.2347 -17.2154 -17.1946 -17.0678 -17.0669 -16.0468 -16.0413
   -12.1050 -12.1041 -12.0562 -12.0134 -11.8692 -11.8440 -11.7726 -11.7642
    -8.8757  -8.8595  -8.2771  -8.2619  -7.5617  -7.5440  -7.4394  -7.4386
    -6.8395  -6.7923  -6.5554  -6.5226  -6.5187  -6.4636  -6.3271  -6.3002
    -6.1459  -6.1285  -6.0026  -5.9679  -5.9022  -5.8591  -5.7635  -5.7482
    -5.6222  -5.6096  -5.5375  -5.5173  -5.0906  -5.0239  -4.9765  -4.9530
    -4.4746  -4.4681  -4.3889  -4.3718  -4.2110  -4.1624  -3.8524  -3.8472
    -3.6671  -3.6176  -3.5220  -3.5030  -3.1567  -3.1411  -3.0437  -3.0364
    -0.7968  -0.7943  -0.3054  -0.2974  -0.2261  -0.1896  -0.1223  -0.1160
     0.0088   0.0184   0.1951   0.2051   0.2363   0.2422   0.3945   0.3967
     0.4164   0.4392   0.6454   0.6722   0.7539   0.7705   0.8803   0.9000
     0.9503   0.9971   1.0882   1.1136   1.2493   1.3037   1.3756   1.3831

     occupation numbers 
     1.0000   1.0000   1.0000   1.0000   1.0000   1.0000   1.0000   1.0000
     1.0000   1.0000   1.0000   1.0000   1.0000   1.0000   1.0000   1.0000
     1.0000   1.0000   1.0000   1.0000   1.0000   1.0000   1.0000   1.0000
     1.0000   1.0000   1.0000   1.0000   1.0000   1.0000   1.0000   1.0000
     1.0000   1.0000   1.0000   1.0000   1.0000   1.0000   1.0000   1.0000
     1.0000   1.0000   1.0000   1.0000   1.0000   1.0000   1.0000   1.0000
     1.0000   1.0000   1.0000   1.0000   1.0000   1.0000   1.0000   1.0000
     1.0000   1.0000   1.0000   1.0000   1.0000   1.0000   1.0000   1.0000
     1.0000   1.0000   1.0000   1.0000   1.0000   1.0000   1.0000   1.0000
     1.0000   1.0000   1.0000   1.0000   1.0000   1.0000   1.0000   1.0000
     1.0000   1.0000   1.0000   1.0000   1.0000   1.0000   1.0000   1.0000
     1.0000   1.0000   1.0000   1.0000   1.0000   1.0000   1.0000   1.0000
     1.0000   1.0000   1.0000   1.0000   1.0000   1.0000   1.0000   1.0000
     1.0000   1.0000   1.0000   1.0000   1.0000   1.0000   1.0000   1.0000

          k = 0.0192 0.0342 0.0565 ( 27201 PWs)   bands (ev):

   -23.9310 -23.9271 -23.9036 -23.9030 -23.6497 -23.6484 -23.6359 -23.6340
   -19.1668 -19.1654 -19.1525 -19.1491 -18.8545 -18.8542 -18.8387 -18.8381
   -18.2405 -18.2404 -17.2058 -17.2047 -17.0632 -17.0621 -16.0457 -16.0450
   -12.1131 -12.1122 -12.0244 -12.0159 -11.8581 -11.8533 -11.7858 -11.7821
    -8.8563  -8.8414  -8.2618  -8.2515  -7.5687  -7.5484  -7.4044  -7.3735
    -6.8894  -6.8426  -6.5807  -6.5703  -6.4978  -6.4493  -6.3867  -6.3676
    -6.1501  -6.1211  -5.9849  -5.9372  -5.8692  -5.8363  -5.8025  -5.7852
    -5.7004  -5.6663  -5.4831  -5.4619  -5.0749  -5.0223  -4.9780  -4.9406
    -4.4009  -4.3863  -4.3595  -4.3229  -4.1557  -4.1424  -3.9702  -3.9689
    -3.6618  -3.6408  -3.4711  -3.4659  -3.1827  -3.1789  -3.0360  -3.0241
    -0.7571  -0.7430  -0.3189  -0.3098  -0.2326  -0.2051  -0.1487  -0.1323
    -0.0536  -0.0356   0.1177   0.1384   0.2401   0.2648   0.3356   0.3471
     0.5638   0.5909   0.6653   0.6854   0.7819   0.7911   0.8295   0.8596
     0.9870   1.0075   1.1073   1.1171   1.2476   1.2762   1.3776   1.3875

     occupation numbers 
     1.0000   1.0000   1.0000   1.0000   1.0000   1.0000   1.0000   1.0000
     1.0000   1.0000   1.0000   1.0000   1.0000   1.0000   1.0000   1.0000
     1.0000   1.0000   1.0000   1.0000   1.0000   1.0000   1.0000   1.0000
     1.0000   1.0000   1.0000   1.0000   1.0000   1.0000   1.0000   1.0000
     1.0000   1.0000   1.0000   1.0000   1.0000   1.0000   1.0000   1.0000
     1.0000   1.0000   1.0000   1.0000   1.0000   1.0000   1.0000   1.0000
     1.0000   1.0000   1.0000   1.0000   1.0000   1.0000   1.0000   1.0000
     1.0000   1.0000   1.0000   1.0000   1.0000   1.0000   1.0000   1.0000
     1.0000   1.0000   1.0000   1.0000   1.0000   1.0000   1.0000   1.0000
     1.0000   1.0000   1.0000   1.0000   1.0000   1.0000   1.0000   1.0000
     1.0000   1.0000   1.0000   1.0000   1.0000   1.0000   1.0000   1.0000
     1.0000   1.0000   1.0000   1.0000   1.0000   1.0000   1.0000   1.0000
     1.0000   1.0000   1.0000   1.0000   1.0000   1.0000   1.0000   1.0000
     1.0000   1.0000   1.0000   1.0000   1.0000   1.0000   1.0000   1.0000

          k = 0.0192 0.0342-0.0480 ( 27178 PWs)   bands (ev):

   -23.9319 -23.9274 -23.9045 -23.9008 -23.6515 -23.6501 -23.6335 -23.6329
   -19.1651 -19.1644 -19.1525 -19.1520 -18.8561 -18.8558 -18.8370 -18.8364
   -18.2452 -18.2349 -17.2144 -17.1952 -17.0662 -17.0654 -16.0452 -16.0387
   -12.1202 -12.1150 -12.0436 -12.0105 -11.8622 -11.8342 -11.7858 -11.7801
    -8.8523  -8.8176  -8.2563  -8.2548  -7.5716  -7.5662  -7.4081  -7.3598
    -6.8853  -6.8393  -6.5983  -6.5721  -6.4972  -6.4841  -6.4177  -6.3971
    -6.1295  -6.1126  -6.0030  -5.9731  -5.8231  -5.8078  -5.7863  -5.7649
    -5.7006  -5.6662  -5.4717  -5.4444  -5.1061  -5.0547  -4.9398  -4.9067
    -4.4405  -4.4122  -4.3134  -4.2925  -4.1830  -4.1653  -3.9627  -3.9421
    -3.6650  -3.6431  -3.5019  -3.4676  -3.1818  -3.1711  -3.0353  -3.0319
    -0.6863  -0.6617  -0.3155  -0.3117  -0.2477  -0.2310  -0.1954  -0.1728
    -0.1079  -0.0967   0.0869   0.1183   0.2554   0.2715   0.3113   0.3378
     0.6136   0.6469   0.7114   0.7250   0.7389   0.7859   0.8525   0.8575
     0.9918   1.0095   1.1317   1.1531   1.2358   1.2474   1.3657   1.3744

     occupation numbers 
     1.0000   1.0000   1.0000   1.0000   1.0000   1.0000   1.0000   1.0000
     1.0000   1.0000   1.0000   1.0000   1.0000   1.0000   1.0000   1.0000
     1.0000   1.0000   1.0000   1.0000   1.0000   1.0000   1.0000   1.0000
     1.0000   1.0000   1.0000   1.0000   1.0000   1.0000   1.0000   1.0000
     1.0000   1.0000   1.0000   1.0000   1.0000   1.0000   1.0000   1.0000
     1.0000   1.0000   1.0000   1.0000   1.0000   1.0000   1.0000   1.0000
     1.0000   1.0000   1.0000   1.0000   1.0000   1.0000   1.0000   1.0000
     1.0000   1.0000   1.0000   1.0000   1.0000   1.0000   1.0000   1.0000
     1.0000   1.0000   1.0000   1.0000   1.0000   1.0000   1.0000   1.0000
     1.0000   1.0000   1.0000   1.0000   1.0000   1.0000   1.0000   1.0000
     1.0000   1.0000   1.0000   1.0000   1.0000   1.0000   1.0000   1.0000
     1.0000   1.0000   1.0000   1.0000   1.0000   1.0000   1.0000   1.0000
     1.0000   1.0000   1.0000   1.0000   1.0000   1.0000   1.0000   1.0000
     1.0000   1.0000   1.0000   1.0000   1.0000   1.0000   1.0000   1.0000

          k = 0.0192 0.0342-0.0131 ( 27188 PWs)   bands (ev):

   -23.9373 -23.9284 -23.9024 -23.8980 -23.6492 -23.6456 -23.6361 -23.6355
   -19.1674 -19.1657 -19.1515 -19.1479 -18.8522 -18.8519 -18.8399 -18.8399
   -18.2469 -18.2321 -17.2187 -17.1903 -17.0706 -17.0704 -16.0449 -16.0364
   -12.1141 -12.1085 -12.0618 -12.0170 -11.8643 -11.8358 -11.7707 -11.7635
    -8.8725  -8.8349  -8.2743  -8.2631  -7.5694  -7.5593  -7.4516  -7.4176
    -6.8065  -6.7914  -6.5942  -6.5453  -6.5103  -6.4844  -6.3761  -6.3432
    -6.1222  -6.1021  -6.0171  -5.9871  -5.8573  -5.8333  -5.7416  -5.7399
    -5.6260  -5.6122  -5.5210  -5.5124  -5.0989  -5.0688  -4.9365  -4.9145
    -4.4792  -4.4734  -4.3931  -4.3722  -4.2207  -4.1721  -3.8461  -3.8219
    -3.6823  -3.6242  -3.5331  -3.5102  -3.1594  -3.1393  -3.0426  -3.0403
    -0.7438  -0.7346  -0.2959  -0.2883  -0.2259  -0.1910  -0.1270  -0.1164
    -0.0773  -0.0575   0.0938   0.1222   0.2113   0.2467   0.3527   0.3808
     0.5718   0.5957   0.6362   0.6888   0.7387   0.7732   0.8921   0.8940
     0.9573   0.9886   1.1176   1.1442   1.2363   1.2861   1.3617   1.3690

     occupation numbers 
     1.0000   1.0000   1.0000   1.0000   1.0000   1.0000   1.0000   1.0000
     1.0000   1.0000   1.0000   1.0000   1.0000   1.0000   1.0000   1.0000
     1.0000   1.0000   1.0000   1.0000   1.0000   1.0000   1.0000   1.0000
     1.0000   1.0000   1.0000   1.0000   1.0000   1.0000   1.0000   1.0000
     1.0000   1.0000   1.0000   1.0000   1.0000   1.0000   1.0000   1.0000
     1.0000   1.0000   1.0000   1.0000   1.0000   1.0000   1.0000   1.0000
     1.0000   1.0000   1.0000   1.0000   1.0000   1.0000   1.0000   1.0000
     1.0000   1.0000   1.0000   1.0000   1.0000   1.0000   1.0000   1.0000
     1.0000   1.0000   1.0000   1.0000   1.0000   1.0000   1.0000   1.0000
     1.0000   1.0000   1.0000   1.0000   1.0000   1.0000   1.0000   1.0000
     1.0000   1.0000   1.0000   1.0000   1.0000   1.0000   1.0000   1.0000
     1.0000   1.0000   1.0000   1.0000   1.0000   1.0000   1.0000   1.0000
     1.0000   1.0000   1.0000   1.0000   1.0000   1.0000   1.0000   1.0000
     1.0000   1.0000   1.0000   1.0000   1.0000   1.0000   1.0000   1.0000

          k = 0.0575 0.0114 0.0303 ( 27198 PWs)   bands (ev):

   -23.9314 -23.9216 -23.9041 -23.9035 -23.6483 -23.6453 -23.6411 -23.6363
   -19.1666 -19.1624 -19.1579 -19.1485 -18.8513 -18.8500 -18.8424 -18.8412
   -18.2468 -18.2467 -17.2038 -17.2016 -17.0688 -17.0668 -16.0469 -16.0449
   -12.1026 -12.1021 -11.9986 -11.9788 -11.8373 -11.8221 -11.7875 -11.7723
    -8.8861  -8.8528  -8.2865  -8.2644  -7.5621  -7.5360  -7.5150  -7.4566
    -6.9831  -6.9099  -6.6747  -6.5493  -6.4777  -6.4385  -6.2627  -6.2272
    -6.2030  -6.1532  -6.0188  -5.9496  -5.8936  -5.8431  -5.7635  -5.7426
    -5.6551  -5.6097  -5.5540  -5.5396  -5.1493  -5.0379  -4.9183  -4.9104
    -4.4534  -4.4322  -4.3888  -4.3373  -4.0422  -3.9870  -3.8087  -3.7808
    -3.7345  -3.6386  -3.5881  -3.5803  -3.1605  -3.1552  -3.0539  -3.0239
    -0.7569  -0.7423  -0.2954  -0.2921  -0.2030  -0.1832  -0.1217  -0.0979
    -0.0654  -0.0368   0.1107   0.1251   0.2054   0.2207   0.3510   0.3735
     0.5780   0.5857   0.6540   0.7061   0.7801   0.7872   0.8641   0.8784
     0.9366   0.9849   1.0121   1.0622   1.2880   1.3180   1.3519   1.3891

     occupation numbers 
     1.0000   1.0000   1.0000   1.0000   1.0000   1.0000   1.0000   1.0000
     1.0000   1.0000   1.0000   1.0000   1.0000   1.0000   1.0000   1.0000
     1.0000   1.0000   1.0000   1.0000   1.0000   1.0000   1.0000   1.0000
     1.0000   1.0000   1.0000   1.0000   1.0000   1.0000   1.0000   1.0000
     1.0000   1.0000   1.0000   1.0000   1.0000   1.0000   1.0000   1.0000
     1.0000   1.0000   1.0000   1.0000   1.0000   1.0000   1.0000   1.0000
     1.0000   1.0000   1.0000   1.0000   1.0000   1.0000   1.0000   1.0000
     1.0000   1.0000   1.0000   1.0000   1.0000   1.0000   1.0000   1.0000
     1.0000   1.0000   1.0000   1.0000   1.0000   1.0000   1.0000   1.0000
     1.0000   1.0000   1.0000   1.0000   1.0000   1.0000   1.0000   1.0000
     1.0000   1.0000   1.0000   1.0000   1.0000   1.0000   1.0000   1.0000
     1.0000   1.0000   1.0000   1.0000   1.0000   1.0000   1.0000   1.0000
     1.0000   1.0000   1.0000   1.0000   1.0000   1.0000   1.0000   1.0000
     1.0000   1.0000   1.0000   1.0000   1.0000   1.0000   1.0000   1.0000

          k = 0.0575 0.0114 0.0651 ( 27227 PWs)   bands (ev):

   -23.9273 -23.9244 -23.9079 -23.8997 -23.6473 -23.6470 -23.6437 -23.6341
   -19.1670 -19.1638 -19.1584 -19.1476 -18.8610 -18.8587 -18.8353 -18.8318
   -18.2614 -18.2368 -17.2239 -17.1798 -17.0593 -17.0557 -16.0625 -16.0438
   -12.1150 -12.1109 -12.0280 -11.9504 -11.8389 -11.7923 -11.7918 -11.7768
    -8.9303  -8.8080  -8.2813  -8.2449  -7.5661  -7.5406  -7.4766  -7.3411
    -7.0842  -6.8578  -6.6800  -6.5105  -6.5002  -6.4386  -6.4162  -6.3150
    -6.2594  -6.1781  -5.9895  -5.9625  -5.9153  -5.8610  -5.7950  -5.7363
    -5.6309  -5.5778  -5.5080  -5.4367  -5.1599  -4.9971  -4.9847  -4.9238
    -4.3995  -4.3849  -4.3258  -4.2825  -3.9996  -3.9614  -3.9089  -3.8703
    -3.7631  -3.6668  -3.5975  -3.5044  -3.2024  -3.1756  -3.0502  -2.9926
    -0.8325  -0.7892  -0.3020  -0.2662  -0.2048  -0.1743  -0.1171  -0.0786
    -0.0303   0.0020   0.1741   0.2066   0.2251   0.2450   0.3172   0.4118
     0.4940   0.5130   0.5623   0.6721   0.7689   0.8014   0.8454   0.8759
     0.9716   1.0101   1.0251   1.0526   1.3016   1.3385   1.3569   1.4014

     occupation numbers 
     1.0000   1.0000   1.0000   1.0000   1.0000   1.0000   1.0000   1.0000
     1.0000   1.0000   1.0000   1.0000   1.0000   1.0000   1.0000   1.0000
     1.0000   1.0000   1.0000   1.0000   1.0000   1.0000   1.0000   1.0000
     1.0000   1.0000   1.0000   1.0000   1.0000   1.0000   1.0000   1.0000
     1.0000   1.0000   1.0000   1.0000   1.0000   1.0000   1.0000   1.0000
     1.0000   1.0000   1.0000   1.0000   1.0000   1.0000   1.0000   1.0000
     1.0000   1.0000   1.0000   1.0000   1.0000   1.0000   1.0000   1.0000
     1.0000   1.0000   1.0000   1.0000   1.0000   1.0000   1.0000   1.0000
     1.0000   1.0000   1.0000   1.0000   1.0000   1.0000   1.0000   1.0000
     1.0000   1.0000   1.0000   1.0000   1.0000   1.0000   1.0000   1.0000
     1.0000   1.0000   1.0000   1.0000   1.0000   1.0000   1.0000   1.0000
     1.0000   1.0000   1.0000   1.0000   1.0000   1.0000   1.0000   1.0000
     1.0000   1.0000   1.0000   1.0000   1.0000   1.0000   1.0000   1.0000
     1.0000   1.0000   1.0000   1.0000   1.0000   1.0000   1.0000   1.0000

          k = 0.0575 0.0114-0.0394 ( 27209 PWs)   bands (ev):

   -23.9290 -23.9232 -23.9096 -23.8975 -23.6505 -23.6494 -23.6393 -23.6329
   -19.1650 -19.1630 -19.1585 -19.1504 -18.8620 -18.8598 -18.8341 -18.8306
   -18.2659 -18.2310 -17.2338 -17.1692 -17.0621 -17.0590 -16.0622 -16.0377
   -12.1192 -12.1118 -12.0522 -11.9294 -11.8553 -11.7914 -11.7866 -11.7653
    -8.9254  -8.7836  -8.2754  -8.2464  -7.5650  -7.5457  -7.4985  -7.3288
    -7.1020  -6.8600  -6.6672  -6.5316  -6.5006  -6.4797  -6.4046  -6.3399
    -6.2635  -6.1942  -5.9774  -5.9224  -5.8839  -5.8679  -5.7952  -5.7520
    -5.6054  -5.5737  -5.5150  -5.4356  -5.1503  -5.0216  -4.9585  -4.9102
    -4.4022  -4.3637  -4.3240  -4.2986  -4.0252  -4.0020  -3.8563  -3.8490
    -3.7099  -3.6967  -3.6566  -3.5117  -3.2065  -3.1713  -3.0457  -2.9981
    -0.7903  -0.7250  -0.2947  -0.2424  -0.2182  -0.1942  -0.1238  -0.0991
    -0.0906  -0.0497   0.1055   0.1884   0.2243   0.2672   0.2843   0.3095
     0.5436   0.6168   0.6441   0.6596   0.7673   0.7955   0.8665   0.8883
     0.9618   0.9900   1.0437   1.1092   1.3175   1.3338   1.3386   1.3644

     occupation numbers 
     1.0000   1.0000   1.0000   1.0000   1.0000   1.0000   1.0000   1.0000
     1.0000   1.0000   1.0000   1.0000   1.0000   1.0000   1.0000   1.0000
     1.0000   1.0000   1.0000   1.0000   1.0000   1.0000   1.0000   1.0000
     1.0000   1.0000   1.0000   1.0000   1.0000   1.0000   1.0000   1.0000
     1.0000   1.0000   1.0000   1.0000   1.0000   1.0000   1.0000   1.0000
     1.0000   1.0000   1.0000   1.0000   1.0000   1.0000   1.0000   1.0000
     1.0000   1.0000   1.0000   1.0000   1.0000   1.0000   1.0000   1.0000
     1.0000   1.0000   1.0000   1.0000   1.0000   1.0000   1.0000   1.0000
     1.0000   1.0000   1.0000   1.0000   1.0000   1.0000   1.0000   1.0000
     1.0000   1.0000   1.0000   1.0000   1.0000   1.0000   1.0000   1.0000
     1.0000   1.0000   1.0000   1.0000   1.0000   1.0000   1.0000   1.0000
     1.0000   1.0000   1.0000   1.0000   1.0000   1.0000   1.0000   1.0000
     1.0000   1.0000   1.0000   1.0000   1.0000   1.0000   1.0000   1.0000
     1.0000   1.0000   1.0000   1.0000   1.0000   1.0000   1.0000   1.0000

          k = 0.0575 0.0114-0.0046 ( 27183 PWs)   bands (ev):

   -23.9322 -23.9212 -23.9079 -23.8991 -23.6511 -23.6476 -23.6370 -23.6353
   -19.1644 -19.1627 -19.1549 -19.1536 -18.8538 -18.8528 -18.8397 -18.8385
   -18.2586 -18.2336 -17.2261 -17.1787 -17.0710 -17.0707 -16.0507 -16.0347
   -12.1077 -12.1022 -12.0398 -11.9398 -11.8638 -11.8040 -11.7768 -11.7743
    -8.8957  -8.8135  -8.2751  -8.2718  -7.5614  -7.5514  -7.5387  -7.4343
    -6.9984  -6.9080  -6.6305  -6.6060  -6.4730  -6.4693  -6.2979  -6.2660
    -6.1843  -6.1794  -5.9593  -5.9241  -5.8587  -5.8262  -5.7781  -5.7696
    -5.6299  -5.6160  -5.5497  -5.5398  -5.1087  -5.0894  -4.8977  -4.8905
    -4.4552  -4.4293  -4.3796  -4.3490  -4.0476  -4.0134  -3.7743  -3.7674
    -3.7022  -3.6768  -3.6319  -3.5804  -3.1757  -3.1422  -3.0474  -3.0304
    -0.7027  -0.6541  -0.2991  -0.2894  -0.2115  -0.2081  -0.1760  -0.1747
    -0.0804  -0.0511   0.0647   0.1285   0.1888   0.2287   0.3236   0.3595
     0.5623   0.6284   0.7131   0.7510   0.7677   0.8105   0.8782   0.9017
     0.9335   0.9510   1.0264   1.1130   1.3050   1.3112   1.3322   1.3498

     occupation numbers 
     1.0000   1.0000   1.0000   1.0000   1.0000   1.0000   1.0000   1.0000
     1.0000   1.0000   1.0000   1.0000   1.0000   1.0000   1.0000   1.0000
     1.0000   1.0000   1.0000   1.0000   1.0000   1.0000   1.0000   1.0000
     1.0000   1.0000   1.0000   1.0000   1.0000   1.0000   1.0000   1.0000
     1.0000   1.0000   1.0000   1.0000   1.0000   1.0000   1.0000   1.0000
     1.0000   1.0000   1.0000   1.0000   1.0000   1.0000   1.0000   1.0000
     1.0000   1.0000   1.0000   1.0000   1.0000   1.0000   1.0000   1.0000
     1.0000   1.0000   1.0000   1.0000   1.0000   1.0000   1.0000   1.0000
     1.0000   1.0000   1.0000   1.0000   1.0000   1.0000   1.0000   1.0000
     1.0000   1.0000   1.0000   1.0000   1.0000   1.0000   1.0000   1.0000
     1.0000   1.0000   1.0000   1.0000   1.0000   1.0000   1.0000   1.0000
     1.0000   1.0000   1.0000   1.0000   1.0000   1.0000   1.0000   1.0000
     1.0000   1.0000   1.0000   1.0000   1.0000   1.0000   1.0000   1.0000
     1.0000   1.0000   1.0000   1.0000   1.0000   1.0000   1.0000   1.0000

          k = 0.0575 0.0342 0.0303 ( 27190 PWs)   bands (ev):

   -23.9283 -23.9241 -23.9044 -23.9039 -23.6464 -23.6453 -23.6406 -23.6385
   -19.1666 -19.1654 -19.1534 -19.1500 -18.8509 -18.8504 -18.8421 -18.8415
   -18.2468 -18.2468 -17.2034 -17.2024 -17.0680 -17.0672 -16.0464 -16.0456
   -12.1025 -12.1023 -11.9914 -11.9831 -11.8347 -11.8282 -11.7830 -11.7766
    -8.8763  -8.8625  -8.2770  -8.2676  -7.5543  -7.5442  -7.5007  -7.4762
    -6.9849  -6.9600  -6.5985  -6.5552  -6.4602  -6.4351  -6.2908  -6.2563
    -6.1915  -6.1635  -5.9896  -5.9607  -5.8845  -5.8584  -5.7636  -5.7429
    -5.6357  -5.6221  -5.5485  -5.5409  -5.1194  -5.0734  -4.9215  -4.9172
    -4.4464  -4.4343  -4.3768  -4.3564  -4.0187  -3.9940  -3.7975  -3.7814
    -3.7152  -3.6718  -3.5872  -3.5804  -3.1586  -3.1557  -3.0491  -3.0360
    -0.7491  -0.7431  -0.2862  -0.2791  -0.2386  -0.2198  -0.1016  -0.0808
    -0.0614  -0.0457   0.1224   0.1383   0.2109   0.2250   0.3507   0.3614
     0.6006   0.6071   0.6347   0.6635   0.7795   0.7870   0.8710   0.8904
     0.9490   0.9791   1.0161   1.0400   1.2975   1.3096   1.3635   1.3786

     occupation numbers 
     1.0000   1.0000   1.0000   1.0000   1.0000   1.0000   1.0000   1.0000
     1.0000   1.0000   1.0000   1.0000   1.0000   1.0000   1.0000   1.0000
     1.0000   1.0000   1.0000   1.0000   1.0000   1.0000   1.0000   1.0000
     1.0000   1.0000   1.0000   1.0000   1.0000   1.0000   1.0000   1.0000
     1.0000   1.0000   1.0000   1.0000   1.0000   1.0000   1.0000   1.0000
     1.0000   1.0000   1.0000   1.0000   1.0000   1.0000   1.0000   1.0000
     1.0000   1.0000   1.0000   1.0000   1.0000   1.0000   1.0000   1.0000
     1.0000   1.0000   1.0000   1.0000   1.0000   1.0000   1.0000   1.0000
     1.0000   1.0000   1.0000   1.0000   1.0000   1.0000   1.0000   1.0000
     1.0000   1.0000   1.0000   1.0000   1.0000   1.0000   1.0000   1.0000
     1.0000   1.0000   1.0000   1.0000   1.0000   1.0000   1.0000   1.0000
     1.0000   1.0000   1.0000   1.0000   1.0000   1.0000   1.0000   1.0000
     1.0000   1.0000   1.0000   1.0000   1.0000   1.0000   1.0000   1.0000
     1.0000   1.0000   1.0000   1.0000   1.0000   1.0000   1.0000   1.0000

          k = 0.0575 0.0342 0.0651 ( 27207 PWs)   bands (ev):

   -23.9260 -23.9248 -23.9060 -23.9026 -23.6471 -23.6469 -23.6410 -23.6369
   -19.1674 -19.1665 -19.1534 -19.1495 -18.8603 -18.8594 -18.8342 -18.8328
   -18.2544 -18.2442 -17.2109 -17.1927 -17.0582 -17.0567 -16.0569 -16.0492
   -12.1159 -12.1141 -12.0049 -11.9737 -11.8227 -11.8038 -11.7880 -11.7816
    -8.8958  -8.8452  -8.2691  -8.2539  -7.5430  -7.5299  -7.4641  -7.4021
    -7.0419  -6.9622  -6.5817  -6.5274  -6.4887  -6.4677  -6.3736  -6.3186
    -6.2441  -6.1938  -5.9690  -5.9515  -5.9114  -5.8892  -5.8074  -5.7699
    -5.6214  -5.6003  -5.4782  -5.4492  -5.1218  -5.0536  -4.9647  -4.9388
    -4.3846  -4.3649  -4.3222  -4.2881  -3.9860  -3.9710  -3.9009  -3.8851
    -3.7410  -3.7069  -3.5636  -3.5279  -3.1952  -3.1842  -3.0340  -3.0101
    -0.8166  -0.7989  -0.2893  -0.2733  -0.2324  -0.2227  -0.0913  -0.0798
    -0.0000   0.0113   0.1914   0.2021   0.2396   0.2516   0.3398   0.3843
     0.4793   0.4889   0.6130   0.6692   0.7471   0.7832   0.8570   0.8738
     0.9640   0.9880   1.0440   1.0596   1.3113   1.3262   1.3702   1.3882

     occupation numbers 
     1.0000   1.0000   1.0000   1.0000   1.0000   1.0000   1.0000   1.0000
     1.0000   1.0000   1.0000   1.0000   1.0000   1.0000   1.0000   1.0000
     1.0000   1.0000   1.0000   1.0000   1.0000   1.0000   1.0000   1.0000
     1.0000   1.0000   1.0000   1.0000   1.0000   1.0000   1.0000   1.0000
     1.0000   1.0000   1.0000   1.0000   1.0000   1.0000   1.0000   1.0000
     1.0000   1.0000   1.0000   1.0000   1.0000   1.0000   1.0000   1.0000
     1.0000   1.0000   1.0000   1.0000   1.0000   1.0000   1.0000   1.0000
     1.0000   1.0000   1.0000   1.0000   1.0000   1.0000   1.0000   1.0000
     1.0000   1.0000   1.0000   1.0000   1.0000   1.0000   1.0000   1.0000
     1.0000   1.0000   1.0000   1.0000   1.0000   1.0000   1.0000   1.0000
     1.0000   1.0000   1.0000   1.0000   1.0000   1.0000   1.0000   1.0000
     1.0000   1.0000   1.0000   1.0000   1.0000   1.0000   1.0000   1.0000
     1.0000   1.0000   1.0000   1.0000   1.0000   1.0000   1.0000   1.0000
     1.0000   1.0000   1.0000   1.0000   1.0000   1.0000   1.0000   1.0000

          k = 0.0575 0.0342-0.0394 ( 27201 PWs)   bands (ev):

   -23.9274 -23.9250 -23.9060 -23.9010 -23.6499 -23.6494 -23.6376 -23.6349
   -19.1658 -19.1654 -19.1543 -19.1514 -18.8614 -18.8604 -18.8331 -18.8317
   -18.2561 -18.2416 -17.2146 -17.1879 -17.0613 -17.0601 -16.0547 -16.0446
   -12.1200 -12.1173 -12.0198 -11.9736 -11.8245 -11.8017 -11.7815 -11.7732
    -8.8859  -8.8274  -8.2665  -8.2544  -7.5481  -7.5304  -7.4759  -7.3961
    -7.0480  -6.9604  -6.5813  -6.5416  -6.4996  -6.4791  -6.4223  -6.3669
    -6.2087  -6.1678  -5.9724  -5.9374  -5.8916  -5.8830  -5.8018  -5.7735
    -5.6026  -5.5894  -5.4774  -5.4449  -5.1356  -5.0829  -4.9327  -4.9120
    -4.4024  -4.3857  -4.2954  -4.2780  -4.0149  -4.0061  -3.8567  -3.8534
    -3.7194  -3.7134  -3.6045  -3.5483  -3.1944  -3.1789  -3.0357  -3.0154
    -0.7687  -0.7414  -0.2851  -0.2658  -0.2404  -0.2235  -0.1036  -0.0964
    -0.0616  -0.0366   0.1334   0.1648   0.2329   0.2501   0.2884   0.3123
     0.5680   0.5959   0.6704   0.6729   0.7643   0.7766   0.8512   0.8586
     0.9724   0.9900   1.0692   1.0943   1.3210   1.3291   1.3438   1.3559

     occupation numbers 
     1.0000   1.0000   1.0000   1.0000   1.0000   1.0000   1.0000   1.0000
     1.0000   1.0000   1.0000   1.0000   1.0000   1.0000   1.0000   1.0000
     1.0000   1.0000   1.0000   1.0000   1.0000   1.0000   1.0000   1.0000
     1.0000   1.0000   1.0000   1.0000   1.0000   1.0000   1.0000   1.0000
     1.0000   1.0000   1.0000   1.0000   1.0000   1.0000   1.0000   1.0000
     1.0000   1.0000   1.0000   1.0000   1.0000   1.0000   1.0000   1.0000
     1.0000   1.0000   1.0000   1.0000   1.0000   1.0000   1.0000   1.0000
     1.0000   1.0000   1.0000   1.0000   1.0000   1.0000   1.0000   1.0000
     1.0000   1.0000   1.0000   1.0000   1.0000   1.0000   1.0000   1.0000
     1.0000   1.0000   1.0000   1.0000   1.0000   1.0000   1.0000   1.0000
     1.0000   1.0000   1.0000   1.0000   1.0000   1.0000   1.0000   1.0000
     1.0000   1.0000   1.0000   1.0000   1.0000   1.0000   1.0000   1.0000
     1.0000   1.0000   1.0000   1.0000   1.0000   1.0000   1.0000   1.0000
     1.0000   1.0000   1.0000   1.0000   1.0000   1.0000   1.0000   1.0000

          k = 0.0575 0.0342-0.0046 ( 27178 PWs)   bands (ev):

   -23.9292 -23.9247 -23.9051 -23.9015 -23.6496 -23.6481 -23.6370 -23.6362
   -19.1648 -19.1642 -19.1535 -19.1530 -18.8535 -18.8531 -18.8393 -18.8388
   -18.2515 -18.2411 -17.2122 -17.1925 -17.0709 -17.0708 -16.0459 -16.0393
   -12.1072 -12.1053 -12.0145 -11.9760 -11.8380 -11.8155 -11.7771 -11.7751
    -8.8722  -8.8382  -8.2730  -8.2701  -7.5580  -7.5540  -7.5112  -7.4679
    -6.9863  -6.9501  -6.5919  -6.5801  -6.4603  -6.4550  -6.3531  -6.3406
    -6.1381  -6.1306  -5.9697  -5.9489  -5.8512  -5.8376  -5.7603  -5.7548
    -5.6328  -5.6188  -5.5468  -5.5437  -5.1134  -5.1027  -4.8936  -4.8916
    -4.4553  -4.4389  -4.3769  -4.3539  -4.0251  -4.0106  -3.7760  -3.7739
    -3.6786  -3.6511  -3.6478  -3.6082  -3.1646  -3.1496  -3.0483  -3.0420
    -0.6868  -0.6667  -0.2843  -0.2777  -0.2289  -0.2062  -0.1976  -0.1787
    -0.0801  -0.0593   0.0881   0.1154   0.2073   0.2270   0.3341   0.3536
     0.5931   0.6278   0.6953   0.7191   0.7742   0.8030   0.8837   0.8890
     0.9526   0.9638   1.0429   1.0826   1.3077   1.3093   1.3367   1.3444

     occupation numbers 
     1.0000   1.0000   1.0000   1.0000   1.0000   1.0000   1.0000   1.0000
     1.0000   1.0000   1.0000   1.0000   1.0000   1.0000   1.0000   1.0000
     1.0000   1.0000   1.0000   1.0000   1.0000   1.0000   1.0000   1.0000
     1.0000   1.0000   1.0000   1.0000   1.0000   1.0000   1.0000   1.0000
     1.0000   1.0000   1.0000   1.0000   1.0000   1.0000   1.0000   1.0000
     1.0000   1.0000   1.0000   1.0000   1.0000   1.0000   1.0000   1.0000
     1.0000   1.0000   1.0000   1.0000   1.0000   1.0000   1.0000   1.0000
     1.0000   1.0000   1.0000   1.0000   1.0000   1.0000   1.0000   1.0000
     1.0000   1.0000   1.0000   1.0000   1.0000   1.0000   1.0000   1.0000
     1.0000   1.0000   1.0000   1.0000   1.0000   1.0000   1.0000   1.0000
     1.0000   1.0000   1.0000   1.0000   1.0000   1.0000   1.0000   1.0000
     1.0000   1.0000   1.0000   1.0000   1.0000   1.0000   1.0000   1.0000
     1.0000   1.0000   1.0000   1.0000   1.0000   1.0000   1.0000   1.0000
     1.0000   1.0000   1.0000   1.0000   1.0000   1.0000   1.0000   1.0000

     highest occupied level (ev):     1.4014

!    total energy              =   -1281.98543729 Ry
     Harris-Foulkes estimate   =   -1281.98543782 Ry
     estimated scf accuracy    <       0.00000061 Ry

     total all-electron energy =     -4786.429185 Ry

     The total energy is the sum of the following terms:

     one-electron contribution =    -642.95827799 Ry
     hartree contribution      =     419.73936376 Ry
     xc contribution           =    -260.27756622 Ry
     ewald contribution        =    -468.09466675 Ry
     one-center paw contrib.   =    -330.39429008 Ry

     convergence has been achieved in  16 iterations

     Writing output data file scf.pbe-ec-60-kp444.HMX-792829-nofor.nostress.save

     init_run     :     49.93s CPU     69.51s WALL (       1 calls)
     electrons    :   1531.05s CPU   1762.61s WALL (       1 calls)

     Called by init_run:
     wfcinit      :     30.67s CPU     43.60s WALL (       1 calls)
     potinit      :      6.56s CPU      7.03s WALL (       1 calls)

     Called by electrons:
     c_bands      :   1358.66s CPU   1554.11s WALL (      16 calls)
     sum_band     :    147.71s CPU    180.13s WALL (      16 calls)
     v_of_rho     :      4.86s CPU      6.20s WALL (      17 calls)
     v_h          :      0.35s CPU      0.48s WALL (      17 calls)
     v_xc         :      4.51s CPU      5.71s WALL (      17 calls)
     newd         :      8.44s CPU      9.64s WALL (      17 calls)
     PAW_pot      :      5.24s CPU      5.41s WALL (      17 calls)
     mix_rho      :      4.17s CPU      5.41s WALL (      16 calls)

     Called by c_bands:
     init_us_2    :      5.86s CPU      5.89s WALL (     528 calls)
     cegterg      :   1325.47s CPU   1505.18s WALL (     256 calls)

     Called by sum_band:
     sum_band:bec :      0.40s CPU      0.36s WALL (     256 calls)
     addusdens    :     16.66s CPU     14.55s WALL (      16 calls)

     Called by *egterg:
     h_psi        :    558.07s CPU    687.05s WALL (    1254 calls)
     s_psi        :     99.38s CPU     79.82s WALL (    1254 calls)
     g_psi        :      1.22s CPU      1.49s WALL (     982 calls)
     cdiaghg      :    373.36s CPU    369.43s WALL (    1238 calls)
     cegterg:over :    132.31s CPU    195.33s WALL (     982 calls)
     cegterg:upda :     74.71s CPU     60.07s WALL (     982 calls)
     cegterg:last :     47.18s CPU     38.49s WALL (     288 calls)

     Called by h_psi:
     h_psi:vloc   :    316.10s CPU    382.69s WALL (    1254 calls)
     h_psi:vnl    :    238.36s CPU    300.71s WALL (    1254 calls)
     add_vuspsi   :    105.54s CPU    105.12s WALL (    1254 calls)

     General routines
     calbec       :    172.30s CPU    254.88s WALL (    1510 calls)
     fft          :      4.56s CPU      8.30s WALL (     268 calls)
     ffts         :      0.17s CPU      0.21s WALL (      33 calls)
     fftw         :    286.52s CPU    361.80s WALL (  204058 calls)
     interpolate  :      1.26s CPU      1.53s WALL (      33 calls)
     davcio       :      0.18s CPU     18.51s WALL (      16 calls)

     Parallel routines
     fft_scatter  :    140.58s CPU    212.12s WALL (  204359 calls)

     PAW routines
     PAW_pot      :      5.24s CPU      5.41s WALL (      17 calls)
     PAW_symme    :      0.03s CPU      0.06s WALL (      33 calls)

     PWSCF        : 26m24.23s CPU    30m58.71s WALL


   This run was terminated on:   8: 4:43  25Jun2016            

=------------------------------------------------------------------------------=
   JOB DONE.
=------------------------------------------------------------------------------=
