
     Program PWSCF v.5.0.2 (svn rev. 9656) starts on 13Oct2013 at 11:30:41 

     This program is part of the open-source Quantum ESPRESSO suite
     for quantum simulation of materials; please cite
         "P. Giannozzi et al., J. Phys.:Condens. Matter 21 395502 (2009);
          URL http://www.quantum-espresso.org", 
     in publications or presentations arising from this work. More details at
     http://www.quantum-espresso.org/quote.php

     Parallel version (MPI), running on    48 processors
     R & G space division:  proc/nbgrp/npool/nimage =      48

     Current dimensions of program PWSCF are:
     Max number of different atomic species (ntypx) = 10
     Max number of k-points (npk) =  40000
     Max angular momentum in pseudopotentials (lmaxx) =  3
     Reading input from relax.in
               file H.pbe-kjpaw_psl.0.1.UPF: wavefunction(s)  1S renormalized
               file C.pbe-n-kjpaw_psl.0.1.UPF: wavefunction(s)  2P renormalized
               file N.pbe-n-kjpaw_psl.0.1.UPF: wavefunction(s)  2P renormalized
               file S.pbe-n-kjpaw_psl.0.1.UPF: wavefunction(s)  3P renormalized
               file Cl.pbe-n-kjpaw_psl.0.3.0.UPF: wavefunction(s)  3S 3P renormalized
               file Ni.pbe-n-kjpaw_psl.0.1.UPF: wavefunction(s)  4S 3D renormalized

     Atomic positions and unit cell read from directory:
     ./scratch/run-mystery.save/


     Subspace diagonalization in iterative solution of the eigenvalue problem:
     scalapack distributed-memory algorithm (size of sub-group:  4*  4 procs)


     Parallelization info
     --------------------
     sticks:   dense  smooth     PW     G-vecs:    dense   smooth      PW
     Min         324     129     34                28630     7225     988
     Max         325     130     35                28635     7254     993
     Sum       15589    6221   1649              1374345   347575   47515



     bravais-lattice index     =            6
     lattice parameter (alat)  =      18.0620  a.u.
     unit-cell volume          =    5536.7556 (a.u.)^3
     number of atoms/cell      =           70
     number of atomic types    =            6
     number of electrons       =       240.00
     number of Kohn-Sham states=          120
     kinetic-energy cutoff     =      60.0000  Ry
     charge density cutoff     =     600.0000  Ry
     convergence threshold     =      1.0E-07
     mixing beta               =       0.7000
     number of iterations used =            8  plain     mixing
     Exchange-correlation      =  SLA  PW   PBX  PBC ( 1 4 3 4 0)
     EXX-fraction              =        0.00
     nstep                     =           50


     celldm(1)=  18.062002  celldm(2)=   0.000000  celldm(3)=   0.939632
     celldm(4)=   0.000000  celldm(5)=   0.000000  celldm(6)=   0.000000

     crystal axes: (cart. coord. in units of alat)
               a(1) = (   1.000000   0.000000   0.000000 )  
               a(2) = (   0.000000   1.000000   0.000000 )  
               a(3) = (   0.000000   0.000000   0.939632 )  

     reciprocal axes: (cart. coord. in units 2 pi/alat)
               b(1) = (  1.000000  0.000000  0.000000 )  
               b(2) = (  0.000000  1.000000  0.000000 )  
               b(3) = (  0.000000  0.000000  1.064247 )  


     PseudoPot. # 1 for  H read from file:
     ./PSEUDOPOTENTIALS_GIPAW/H.pbe-kjpaw_psl.0.1.UPF
     MD5 check sum: fb87beb2c97a016760e7ba63abd37dee
     Pseudo is Projector augmented-wave, Zval =  1.0
     Generated using "atomic" code by A. Dal Corso  v.5.0.2 svn rev. 9605
     Shape of augmentation charge: PSQ
     Using radial grid of  929 points,  2 beta functions with: 
                l(1) =   0
                l(2) =   0
     Q(r) pseudized with 0 coefficients 


     PseudoPot. # 2 for  C read from file:
     ./PSEUDOPOTENTIALS_GIPAW/C.pbe-n-kjpaw_psl.0.1.UPF
     MD5 check sum: a13d6e77fdf331d01cbdc71e4cdf2375
     Pseudo is Projector augmented-wave + core cor, Zval =  4.0
     Generated using "atomic" code by A. Dal Corso  v.5.0.2 svn rev. 9605
     Shape of augmentation charge: BESSEL
     Using radial grid of 1073 points,  4 beta functions with: 
                l(1) =   0
                l(2) =   0
                l(3) =   1
                l(4) =   1
     Q(r) pseudized with 0 coefficients 


     PseudoPot. # 3 for  N read from file:
     ./PSEUDOPOTENTIALS_GIPAW/N.pbe-n-kjpaw_psl.0.1.UPF
     MD5 check sum: 68470fc8bd1ac1219743345880a0c0b4
     Pseudo is Projector augmented-wave + core cor, Zval =  5.0
     Generated using "atomic" code by A. Dal Corso  v.5.0.2 svn rev. 9605
     Shape of augmentation charge: PSQ
     Using radial grid of 1085 points,  4 beta functions with: 
                l(1) =   0
                l(2) =   0
                l(3) =   1
                l(4) =   1
     Q(r) pseudized with 0 coefficients 


     PseudoPot. # 4 for  S read from file:
     ./PSEUDOPOTENTIALS_GIPAW/S.pbe-n-kjpaw_psl.0.1.UPF
     MD5 check sum: c16a8bdd0a9fb4c97e90bb687cb57061
     Pseudo is Projector augmented-wave + core cor, Zval =  6.0
     Generated using "atomic" code by A. Dal Corso  v.5.0.2 svn rev. 9605
     Shape of augmentation charge: PSQ
     Using radial grid of 1151 points,  4 beta functions with: 
                l(1) =   0
                l(2) =   0
                l(3) =   1
                l(4) =   1
     Q(r) pseudized with 0 coefficients 


     PseudoPot. # 5 for Cl read from file:
     ./PSEUDOPOTENTIALS_GIPAW/Cl.pbe-n-kjpaw_psl.0.3.0.UPF
     MD5 check sum: d9e21192cb2aad6691c9ae241b29215e
     Pseudo is Projector augmented-wave + core cor, Zval =  7.0
     Generated using "atomic" code by A. Dal Corso  v.5.0.2 svn rev. 9605
     Shape of augmentation charge: PSQ
     Using radial grid of 1157 points,  4 beta functions with: 
                l(1) =   0
                l(2) =   0
                l(3) =   1
                l(4) =   1
     Q(r) pseudized with 0 coefficients 


     PseudoPot. # 6 for Ni read from file:
     ./PSEUDOPOTENTIALS_GIPAW/Ni.pbe-n-kjpaw_psl.0.1.UPF
     MD5 check sum: 946620350e71423045bef2cd4176bf8e
     Pseudo is Projector augmented-wave + core cor, Zval = 10.0
     Generated using "atomic" code by A. Dal Corso  v.5.0.2 svn rev. 9605
     Shape of augmentation charge: PSQ
     Using radial grid of 1195 points,  6 beta functions with: 
                l(1) =   0
                l(2) =   0
                l(3) =   1
                l(4) =   1
                l(5) =   2
                l(6) =   2
     Q(r) pseudized with 0 coefficients 


     atomic species   valence    mass     pseudopotential
        H              1.00     1.00000      H( 1.00)
        C              4.00     1.00000      C( 1.00)
        N              5.00     1.00000      N( 1.00)
        S              6.00     1.00000      S( 1.00)
        Cl             7.00     1.00000     Cl( 1.00)
        Ni            10.00     1.00000     Ni( 1.00)

      4 Sym. Ops. (no inversion) found


                                    s                        frac. trans.

      isym =  1     identity                                     

 cryst.   s( 1) = (     1          0          0      )
                  (     0          1          0      )
                  (     0          0          1      )

 cart.    s( 1) = (  1.0000000  0.0000000  0.0000000 )
                  (  0.0000000  1.0000000  0.0000000 )
                  (  0.0000000  0.0000000  1.0000000 )


      isym =  2     180 deg rotation - cart. axis [0,0,1]        

 cryst.   s( 2) = (    -1          0          0      )
                  (     0         -1          0      )
                  (     0          0          1      )

 cart.    s( 2) = ( -1.0000000  0.0000000  0.0000000 )
                  (  0.0000000 -1.0000000  0.0000000 )
                  (  0.0000000  0.0000000  1.0000000 )


      isym =  3      90 deg rotation - cart. axis [0,0,-1]       

 cryst.   s( 3) = (     0         -1          0      )
                  (     1          0          0      )
                  (     0          0          1      )

 cart.    s( 3) = (  0.0000000  1.0000000  0.0000000 )
                  ( -1.0000000  0.0000000  0.0000000 )
                  (  0.0000000  0.0000000  1.0000000 )


      isym =  4      90 deg rotation - cart. axis [0,0,1]        

 cryst.   s( 4) = (     0          1          0      )
                  (    -1          0          0      )
                  (     0          0          1      )

 cart.    s( 4) = (  0.0000000 -1.0000000  0.0000000 )
                  (  1.0000000  0.0000000  0.0000000 )
                  (  0.0000000  0.0000000  1.0000000 )


     point group C_4 (4)    
     there are  4 classes
     the character table:

       E     C4    C2    C4^3 
A      1.00  1.00  1.00  1.00
B      1.00 -1.00  1.00 -1.00
E      1.00  0.00 -1.00  0.00
E*     1.00  0.00 -1.00  0.00
     imaginary part
A      0.00  0.00  0.00  0.00
B      0.00  0.00  0.00  0.00
E      0.00  1.00  0.00 -1.00
E*     0.00 -1.00  0.00  1.00

     the symmetry operations in each class:
     E        1
     C2       2
     C4^3     3
     C4       4

   Cartesian axes

     site n.     atom                  positions (alat units)
         1           C   tau(   1) = (   0.1524483   0.3075414   0.0753897  )
         2           C   tau(   2) = (  -0.1524483  -0.3075414   0.0753897  )
         3           C   tau(   3) = (   0.1924643   0.6524597   0.5451931  )
         4           C   tau(   4) = (  -0.3075414   0.1524483   0.0753897  )
         5           C   tau(   5) = (   0.3075414  -0.1524483   0.0753897  )
         6           C   tau(   6) = (   0.3475403   0.1924643   0.5451931  )
         7           C   tau(   7) = (   0.6524597   0.8075357   0.5451931  )
         8           C   tau(   8) = (   0.8075357   0.3475403   0.5451931  )
         9           Cl  tau(   9) = (   0.0000000   0.0000000  -0.3038804  )
        10           Cl  tau(  10) = (   0.0000000   0.0000000   0.2912064  )
        11           Cl  tau(  11) = (   0.5000000   0.5000000   0.1659372  )
        12           Cl  tau(  12) = (   0.5000000   0.5000000   0.7610264  )
        13           H   tau(  13) = (   0.0253160   0.6699411   0.4146402  )
        14           H   tau(  14) = (   0.0270733   0.7904903   0.5521372  )
        15           H   tau(  15) = (   0.1699355   0.4746869  -0.0551820  )
        16           H   tau(  16) = (  -0.1699355  -0.4746869  -0.0551820  )
        17           H   tau(  17) = (  -0.2097193   0.2206878  -0.2202567  )
        18           H   tau(  18) = (   0.2097193  -0.2206878  -0.2202567  )
        19           H   tau(  19) = (   0.2206878   0.2097193  -0.2202567  )
        20           H   tau(  20) = (  -0.2206878  -0.2097193  -0.2202567  )
        21           H   tau(  21) = (   0.1547931   0.8441308   0.2228486  )
        22           H   tau(  22) = (   0.1558692   0.1547931   0.2228486  )
        23           H   tau(  23) = (   0.2095097   0.0270733   0.5521372  )
        24           H   tau(  24) = (   0.2904727   0.4729449   0.0823246  )
        25           H   tau(  25) = (  -0.2904727  -0.4729449   0.0823246  )
        26           H   tau(  26) = (   0.3441408   0.3452061  -0.2469473  )
        27           H   tau(  27) = (  -0.3441408  -0.3452061  -0.2469473  )
        28           H   tau(  28) = (  -0.3452061   0.3441408  -0.2469473  )
        29           H   tau(  29) = (   0.3452061  -0.3441408  -0.2469473  )
        30           H   tau(  30) = (   0.2793101   0.2902833   0.2495658  )
        31           H   tau(  31) = (   0.2902833   0.7206899   0.2495658  )
        32           H   tau(  32) = (   0.3300589   0.0253160   0.4146402  )
        33           H   tau(  33) = (  -0.4729449   0.2904727   0.0823246  )
        34           H   tau(  34) = (   0.4729449  -0.2904727   0.0823246  )
        35           H   tau(  35) = (  -0.4746869   0.1699355  -0.0551820  )
        36           H   tau(  36) = (   0.4746869  -0.1699355  -0.0551820  )
        37           H   tau(  37) = (   0.6699411   0.9746840   0.4146402  )
        38           H   tau(  38) = (   0.7097167   0.2793101   0.2495658  )
        39           H   tau(  39) = (   0.7206899   0.7097167   0.2495658  )
        40           H   tau(  40) = (   0.7904903   0.9729267   0.5521372  )
        41           H   tau(  41) = (   0.8441308   0.8452069   0.2228486  )
        42           H   tau(  42) = (   0.8452069   0.1558692   0.2228486  )
        43           H   tau(  43) = (   0.9729267   0.2095097   0.5521372  )
        44           H   tau(  44) = (   0.9746840   0.3300589   0.4146402  )
        45           N   tau(  45) = (   0.0660526   0.7000007   0.5077414  )
        46           N   tau(  46) = (   0.2000018   0.4339691   0.0379431  )
        47           N   tau(  47) = (  -0.2000018  -0.4339691   0.0379431  )
        48           N   tau(  48) = (   0.2004538   0.2473535   0.1913063  )
        49           N   tau(  49) = (  -0.2004538  -0.2473535   0.1913063  )
        50           N   tau(  50) = (   0.2526522   0.7004368   0.6611398  )
        51           N   tau(  51) = (  -0.2473535   0.2004538   0.1913063  )
        52           N   tau(  52) = (   0.2473535  -0.2004538   0.1913063  )
        53           N   tau(  53) = (   0.2995632   0.2526522   0.6611398  )
        54           N   tau(  54) = (   0.2999993   0.0660526   0.5077414  )
        55           N   tau(  55) = (   0.4339691  -0.2000018   0.0379431  )
        56           N   tau(  56) = (  -0.4339691   0.2000018   0.0379431  )
        57           N   tau(  57) = (   0.7000007   0.9339474   0.5077414  )
        58           N   tau(  58) = (   0.7004368   0.7473478   0.6611398  )
        59           N   tau(  59) = (   0.7473478   0.2995632   0.6611398  )
        60           N   tau(  60) = (   0.9339474   0.2999993   0.5077414  )
        61           Ni  tau(  61) = (   0.0000000   0.0000000   0.0136532  )
        62           Ni  tau(  62) = (   0.5000000   0.5000000   0.4834282  )
        63           S   tau(  63) = (   0.0285051   0.2278822  -0.0292798  )
        64           S   tau(  64) = (  -0.0285051  -0.2278822  -0.0292798  )
        65           S   tau(  65) = (   0.2721050   0.5285091   0.4405170  )
        66           S   tau(  66) = (  -0.2278822   0.0285051  -0.0292798  )
        67           S   tau(  67) = (   0.2278822  -0.0285051  -0.0292798  )
        68           S   tau(  68) = (   0.4714909   0.2721050   0.4405170  )
        69           S   tau(  69) = (   0.5285091   0.7278950   0.4405170  )
        70           S   tau(  70) = (   0.7278950   0.4714909   0.4405170  )

   Crystallographic axes

     site n.     atom                  positions (cryst. coord.)
         1           C   tau(   1) = (  0.1524483  0.3075414  0.0802332  )
         2           C   tau(   2) = ( -0.1524483 -0.3075414  0.0802332  )
         3           C   tau(   3) = (  0.1924643  0.6524597  0.5802200  )
         4           C   tau(   4) = ( -0.3075414  0.1524483  0.0802332  )
         5           C   tau(   5) = (  0.3075414 -0.1524483  0.0802332  )
         6           C   tau(   6) = (  0.3475403  0.1924643  0.5802200  )
         7           C   tau(   7) = (  0.6524597  0.8075357  0.5802200  )
         8           C   tau(   8) = (  0.8075357  0.3475403  0.5802200  )
         9           Cl  tau(   9) = (  0.0000000  0.0000000 -0.3234037  )
        10           Cl  tau(  10) = (  0.0000000  0.0000000  0.3099155  )
        11           Cl  tau(  11) = (  0.5000000  0.5000000  0.1765981  )
        12           Cl  tau(  12) = (  0.5000000  0.5000000  0.8099199  )
        13           H   tau(  13) = (  0.0253160  0.6699411  0.4412794  )
        14           H   tau(  14) = (  0.0270733  0.7904903  0.5876102  )
        15           H   tau(  15) = (  0.1699355  0.4746869 -0.0587273  )
        16           H   tau(  16) = ( -0.1699355 -0.4746869 -0.0587273  )
        17           H   tau(  17) = ( -0.2097193  0.2206878 -0.2344075  )
        18           H   tau(  18) = (  0.2097193 -0.2206878 -0.2344075  )
        19           H   tau(  19) = (  0.2206878  0.2097193 -0.2344075  )
        20           H   tau(  20) = ( -0.2206878 -0.2097193 -0.2344075  )
        21           H   tau(  21) = (  0.1547931  0.8441308  0.2371659  )
        22           H   tau(  22) = (  0.1558692  0.1547931  0.2371659  )
        23           H   tau(  23) = (  0.2095097  0.0270733  0.5876102  )
        24           H   tau(  24) = (  0.2904727  0.4729449  0.0876136  )
        25           H   tau(  25) = ( -0.2904727 -0.4729449  0.0876136  )
        26           H   tau(  26) = (  0.3441408  0.3452061 -0.2628129  )
        27           H   tau(  27) = ( -0.3441408 -0.3452061 -0.2628129  )
        28           H   tau(  28) = ( -0.3452061  0.3441408 -0.2628129  )
        29           H   tau(  29) = (  0.3452061 -0.3441408 -0.2628129  )
        30           H   tau(  30) = (  0.2793101  0.2902833  0.2655996  )
        31           H   tau(  31) = (  0.2902833  0.7206899  0.2655996  )
        32           H   tau(  32) = (  0.3300589  0.0253160  0.4412794  )
        33           H   tau(  33) = ( -0.4729449  0.2904727  0.0876136  )
        34           H   tau(  34) = (  0.4729449 -0.2904727  0.0876136  )
        35           H   tau(  35) = ( -0.4746869  0.1699355 -0.0587273  )
        36           H   tau(  36) = (  0.4746869 -0.1699355 -0.0587273  )
        37           H   tau(  37) = (  0.6699411  0.9746840  0.4412794  )
        38           H   tau(  38) = (  0.7097167  0.2793101  0.2655996  )
        39           H   tau(  39) = (  0.7206899  0.7097167  0.2655996  )
        40           H   tau(  40) = (  0.7904903  0.9729267  0.5876102  )
        41           H   tau(  41) = (  0.8441308  0.8452069  0.2371659  )
        42           H   tau(  42) = (  0.8452069  0.1558692  0.2371659  )
        43           H   tau(  43) = (  0.9729267  0.2095097  0.5876102  )
        44           H   tau(  44) = (  0.9746840  0.3300589  0.4412794  )
        45           N   tau(  45) = (  0.0660526  0.7000007  0.5403621  )
        46           N   tau(  46) = (  0.2000018  0.4339691  0.0403809  )
        47           N   tau(  47) = ( -0.2000018 -0.4339691  0.0403809  )
        48           N   tau(  48) = (  0.2004538  0.2473535  0.2035971  )
        49           N   tau(  49) = ( -0.2004538 -0.2473535  0.2035971  )
        50           N   tau(  50) = (  0.2526522  0.7004368  0.7036159  )
        51           N   tau(  51) = ( -0.2473535  0.2004538  0.2035971  )
        52           N   tau(  52) = (  0.2473535 -0.2004538  0.2035971  )
        53           N   tau(  53) = (  0.2995632  0.2526522  0.7036159  )
        54           N   tau(  54) = (  0.2999993  0.0660526  0.5403621  )
        55           N   tau(  55) = (  0.4339691 -0.2000018  0.0403809  )
        56           N   tau(  56) = ( -0.4339691  0.2000018  0.0403809  )
        57           N   tau(  57) = (  0.7000007  0.9339474  0.5403621  )
        58           N   tau(  58) = (  0.7004368  0.7473478  0.7036159  )
        59           N   tau(  59) = (  0.7473478  0.2995632  0.7036159  )
        60           N   tau(  60) = (  0.9339474  0.2999993  0.5403621  )
        61           Ni  tau(  61) = (  0.0000000  0.0000000  0.0145304  )
        62           Ni  tau(  62) = (  0.5000000  0.5000000  0.5144869  )
        63           S   tau(  63) = (  0.0285051  0.2278822 -0.0311609  )
        64           S   tau(  64) = ( -0.0285051 -0.2278822 -0.0311609  )
        65           S   tau(  65) = (  0.2721050  0.5285091  0.4688188  )
        66           S   tau(  66) = ( -0.2278822  0.0285051 -0.0311609  )
        67           S   tau(  67) = (  0.2278822 -0.0285051 -0.0311609  )
        68           S   tau(  68) = (  0.4714909  0.2721050  0.4688188  )
        69           S   tau(  69) = (  0.5285091  0.7278950  0.4688188  )
        70           S   tau(  70) = (  0.7278950  0.4714909  0.4688188  )

     number of k points=     8
                       cart. coord. in units 2pi/alat
        k(    1) = (   0.1250000   0.1250000   0.1330308), wk =   0.2500000
        k(    2) = (   0.1250000   0.1250000   0.3990925), wk =   0.2500000
        k(    3) = (   0.1250000   0.3750000   0.1330308), wk =   0.2500000
        k(    4) = (   0.1250000   0.3750000   0.3990925), wk =   0.2500000
        k(    5) = (   0.3750000   0.3750000   0.1330308), wk =   0.2500000
        k(    6) = (   0.3750000   0.3750000   0.3990925), wk =   0.2500000
        k(    7) = (   0.3750000   0.1250000  -0.1330308), wk =   0.2500000
        k(    8) = (   0.3750000   0.1250000  -0.3990925), wk =   0.2500000

                       cryst. coord.
        k(    1) = (   0.1250000   0.1250000   0.1250000), wk =   0.2500000
        k(    2) = (   0.1250000   0.1250000   0.3750000), wk =   0.2500000
        k(    3) = (   0.1250000   0.3750000   0.1250000), wk =   0.2500000
        k(    4) = (   0.1250000   0.3750000   0.3750000), wk =   0.2500000
        k(    5) = (   0.3750000   0.3750000   0.1250000), wk =   0.2500000
        k(    6) = (   0.3750000   0.3750000   0.3750000), wk =   0.2500000
        k(    7) = (   0.3750000   0.1250000  -0.1250000), wk =   0.2500000
        k(    8) = (   0.3750000   0.1250000  -0.3750000), wk =   0.2500000

     Dense  grid:  1374345 G-vectors     FFT dimensions: ( 144, 144, 135)

     Smooth grid:   347575 G-vectors     FFT dimensions: (  90,  90,  90)

     Largest allocated arrays     est. size (Mb)     dimensions
        Kohn-Sham Wavefunctions         1.68 Mb     (    915,  120)
        NL pseudopotentials             5.42 Mb     (    915,  388)
        Each V/rho on FFT grid          0.95 Mb     (  62208)
        Each G-vector array             0.22 Mb     (  28633)
        G-vector shells                 0.10 Mb     (  13434)
     Largest temporary arrays     est. size (Mb)     dimensions
        Auxiliary wavefunctions         6.70 Mb     (    915,  480)
        Each subspace H/S matrix        0.22 Mb     ( 120, 120)
        Each <psi_i|beta_j> matrix      0.71 Mb     (    388,  120)
        Arrays for rho mixing           7.59 Mb     (  62208,   8)

     The initial density is read from file :
     ./scratch/run-mystery.save/charge-density.dat

     Starting wfc from file
     Checking if some PAW data can be deallocated... 
       node    0, deallocated PAW data for type:  1
       node    0, deallocated PAW data for type:  3
       node    0, deallocated PAW data for type:  4
       node    0, deallocated PAW data for type:  5
       node    0, deallocated PAW data for type:  6
       node    1, deallocated PAW data for type:  1
       node    1, deallocated PAW data for type:  3
       node    1, deallocated PAW data for type:  4
       node    1, deallocated PAW data for type:  5
       node    1, deallocated PAW data for type:  6
       node    2, deallocated PAW data for type:  1
       node    2, deallocated PAW data for type:  3
       node    2, deallocated PAW data for type:  4
       node    2, deallocated PAW data for type:  5
       node    2, deallocated PAW data for type:  6
       node    3, deallocated PAW data for type:  1
       node    3, deallocated PAW data for type:  3
       node    3, deallocated PAW data for type:  4
       node    3, deallocated PAW data for type:  5
       node    3, deallocated PAW data for type:  6
       node    4, deallocated PAW data for type:  1
       node    4, deallocated PAW data for type:  2
       node    4, deallocated PAW data for type:  3
       node    4, deallocated PAW data for type:  4
       node    4, deallocated PAW data for type:  6
       node    5, deallocated PAW data for type:  1
       node    5, deallocated PAW data for type:  2
       node    5, deallocated PAW data for type:  3
       node    5, deallocated PAW data for type:  4
       node    5, deallocated PAW data for type:  6
       node    6, deallocated PAW data for type:  2
       node    6, deallocated PAW data for type:  3
       node    6, deallocated PAW data for type:  4
       node    6, deallocated PAW data for type:  5
       node    6, deallocated PAW data for type:  6
       node    7, deallocated PAW data for type:  2
       node    7, deallocated PAW data for type:  3
       node    7, deallocated PAW data for type:  4
       node    7, deallocated PAW data for type:  5
       node    7, deallocated PAW data for type:  6
       node    8, deallocated PAW data for type:  2
       node    8, deallocated PAW data for type:  3
       node    8, deallocated PAW data for type:  4
       node    8, deallocated PAW data for type:  5
       node    8, deallocated PAW data for type:  6
       node    9, deallocated PAW data for type:  2
       node    9, deallocated PAW data for type:  3
       node    9, deallocated PAW data for type:  4
       node    9, deallocated PAW data for type:  5
       node    9, deallocated PAW data for type:  6
       node   10, deallocated PAW data for type:  2
       node   10, deallocated PAW data for type:  3
       node   10, deallocated PAW data for type:  4
       node   10, deallocated PAW data for type:  5
       node   10, deallocated PAW data for type:  6
       node   11, deallocated PAW data for type:  2
       node   11, deallocated PAW data for type:  3
       node   11, deallocated PAW data for type:  4
       node   11, deallocated PAW data for type:  5
       node   11, deallocated PAW data for type:  6
       node   12, deallocated PAW data for type:  2
       node   12, deallocated PAW data for type:  3
       node   12, deallocated PAW data for type:  4
       node   12, deallocated PAW data for type:  5
       node   12, deallocated PAW data for type:  6
       node   13, deallocated PAW data for type:  2
       node   13, deallocated PAW data for type:  3
       node   13, deallocated PAW data for type:  4
       node   13, deallocated PAW data for type:  5
       node   13, deallocated PAW data for type:  6
       node   14, deallocated PAW data for type:  2
       node   14, deallocated PAW data for type:  3
       node   14, deallocated PAW data for type:  4
       node   14, deallocated PAW data for type:  5
       node   14, deallocated PAW data for type:  6
       node   15, deallocated PAW data for type:  2
       node   15, deallocated PAW data for type:  3
       node   15, deallocated PAW data for type:  4
       node   15, deallocated PAW data for type:  5
       node   15, deallocated PAW data for type:  6
       node   16, deallocated PAW data for type:  2
       node   16, deallocated PAW data for type:  3
       node   16, deallocated PAW data for type:  4
       node   16, deallocated PAW data for type:  5
       node   16, deallocated PAW data for type:  6
       node   17, deallocated PAW data for type:  2
       node   17, deallocated PAW data for type:  3
       node   17, deallocated PAW data for type:  4
       node   17, deallocated PAW data for type:  5
       node   17, deallocated PAW data for type:  6
       node   18, deallocated PAW data for type:  2
       node   18, deallocated PAW data for type:  3
       node   18, deallocated PAW data for type:  4
       node   18, deallocated PAW data for type:  5
       node   18, deallocated PAW data for type:  6
       node   19, deallocated PAW data for type:  2
       node   19, deallocated PAW data for type:  3
       node   19, deallocated PAW data for type:  4
       node   19, deallocated PAW data for type:  5
       node   19, deallocated PAW data for type:  6
       node   20, deallocated PAW data for type:  2
       node   20, deallocated PAW data for type:  3
       node   20, deallocated PAW data for type:  4
       node   20, deallocated PAW data for type:  5
       node   20, deallocated PAW data for type:  6
       node   21, deallocated PAW data for type:  2
       node   21, deallocated PAW data for type:  3
       node   21, deallocated PAW data for type:  4
       node   21, deallocated PAW data for type:  5
       node   21, deallocated PAW data for type:  6
       node   22, deallocated PAW data for type:  1
       node   22, deallocated PAW data for type:  2
       node   22, deallocated PAW data for type:  4
       node   22, deallocated PAW data for type:  5
       node   22, deallocated PAW data for type:  6
       node   23, deallocated PAW data for type:  1
       node   23, deallocated PAW data for type:  2
       node   23, deallocated PAW data for type:  4
       node   23, deallocated PAW data for type:  5
       node   23, deallocated PAW data for type:  6
       node   24, deallocated PAW data for type:  1
       node   24, deallocated PAW data for type:  2
       node   24, deallocated PAW data for type:  4
       node   24, deallocated PAW data for type:  5
       node   24, deallocated PAW data for type:  6
       node   25, deallocated PAW data for type:  1
       node   25, deallocated PAW data for type:  2
       node   25, deallocated PAW data for type:  4
       node   25, deallocated PAW data for type:  5
       node   25, deallocated PAW data for type:  6
       node   26, deallocated PAW data for type:  1
       node   26, deallocated PAW data for type:  2
       node   26, deallocated PAW data for type:  4
       node   26, deallocated PAW data for type:  5
       node   26, deallocated PAW data for type:  6
       node   27, deallocated PAW data for type:  1
       node   27, deallocated PAW data for type:  2
       node   27, deallocated PAW data for type:  4
       node   27, deallocated PAW data for type:  5
       node   27, deallocated PAW data for type:  6
       node   28, deallocated PAW data for type:  1
       node   28, deallocated PAW data for type:  2
       node   28, deallocated PAW data for type:  4
       node   28, deallocated PAW data for type:  5
       node   28, deallocated PAW data for type:  6
       node   29, deallocated PAW data for type:  1
       node   29, deallocated PAW data for type:  2
       node   29, deallocated PAW data for type:  4
       node   29, deallocated PAW data for type:  5
       node   29, deallocated PAW data for type:  6
       node   30, deallocated PAW data for type:  1
       node   30, deallocated PAW data for type:  2
       node   30, deallocated PAW data for type:  4
       node   30, deallocated PAW data for type:  5
       node   30, deallocated PAW data for type:  6
       node   31, deallocated PAW data for type:  1
       node   31, deallocated PAW data for type:  2
       node   31, deallocated PAW data for type:  4
       node   31, deallocated PAW data for type:  5
       node   31, deallocated PAW data for type:  6
       node   32, deallocated PAW data for type:  1
       node   32, deallocated PAW data for type:  2
       node   32, deallocated PAW data for type:  4
       node   32, deallocated PAW data for type:  5
       node   32, deallocated PAW data for type:  6
       node   33, deallocated PAW data for type:  1
       node   33, deallocated PAW data for type:  2
       node   33, deallocated PAW data for type:  4
       node   33, deallocated PAW data for type:  5
       node   33, deallocated PAW data for type:  6
       node   34, deallocated PAW data for type:  1
       node   34, deallocated PAW data for type:  2
       node   34, deallocated PAW data for type:  4
       node   34, deallocated PAW data for type:  5
       node   34, deallocated PAW data for type:  6
       node   35, deallocated PAW data for type:  1
       node   35, deallocated PAW data for type:  2
       node   35, deallocated PAW data for type:  4
       node   35, deallocated PAW data for type:  5
       node   35, deallocated PAW data for type:  6
       node   36, deallocated PAW data for type:  1
       node   36, deallocated PAW data for type:  2
       node   36, deallocated PAW data for type:  4
       node   36, deallocated PAW data for type:  5
       node   36, deallocated PAW data for type:  6
       node   37, deallocated PAW data for type:  1
       node   37, deallocated PAW data for type:  2
       node   37, deallocated PAW data for type:  4
       node   37, deallocated PAW data for type:  5
       node   37, deallocated PAW data for type:  6
       node   38, deallocated PAW data for type:  1
       node   38, deallocated PAW data for type:  2
       node   38, deallocated PAW data for type:  3
       node   38, deallocated PAW data for type:  4
       node   38, deallocated PAW data for type:  5
       node   39, deallocated PAW data for type:  1
       node   39, deallocated PAW data for type:  2
       node   39, deallocated PAW data for type:  3
       node   39, deallocated PAW data for type:  4
       node   39, deallocated PAW data for type:  5
       node   40, deallocated PAW data for type:  1
       node   40, deallocated PAW data for type:  2
       node   40, deallocated PAW data for type:  3
       node   40, deallocated PAW data for type:  5
       node   40, deallocated PAW data for type:  6
       node   41, deallocated PAW data for type:  1
       node   41, deallocated PAW data for type:  2
       node   41, deallocated PAW data for type:  3
       node   41, deallocated PAW data for type:  5
       node   41, deallocated PAW data for type:  6
       node   42, deallocated PAW data for type:  1
       node   42, deallocated PAW data for type:  2
       node   42, deallocated PAW data for type:  3
       node   42, deallocated PAW data for type:  5
       node   42, deallocated PAW data for type:  6
       node   43, deallocated PAW data for type:  1
       node   43, deallocated PAW data for type:  2
       node   43, deallocated PAW data for type:  3
       node   43, deallocated PAW data for type:  5
       node   43, deallocated PAW data for type:  6
       node   44, deallocated PAW data for type:  1
       node   44, deallocated PAW data for type:  2
       node   44, deallocated PAW data for type:  3
       node   44, deallocated PAW data for type:  5
       node   44, deallocated PAW data for type:  6
       node   45, deallocated PAW data for type:  1
       node   45, deallocated PAW data for type:  2
       node   45, deallocated PAW data for type:  3
       node   45, deallocated PAW data for type:  5
       node   45, deallocated PAW data for type:  6
       node   46, deallocated PAW data for type:  1
       node   46, deallocated PAW data for type:  2
       node   46, deallocated PAW data for type:  3
       node   46, deallocated PAW data for type:  5
       node   46, deallocated PAW data for type:  6
       node   47, deallocated PAW data for type:  1
       node   47, deallocated PAW data for type:  2
       node   47, deallocated PAW data for type:  3
       node   47, deallocated PAW data for type:  5
       node   47, deallocated PAW data for type:  6

     total cpu time spent up to now is       18.3 secs

     per-process dynamical memory:    78.8 Mb

     Self-consistent Calculation

     iteration #  1     ecut=    60.00 Ry     beta=0.70
     Davidson diagonalization with overlap
     c_bands:  1 eigenvalues not converged
     c_bands:  2 eigenvalues not converged
     c_bands:  2 eigenvalues not converged
     ethr =  1.00E-05,  avg # of iterations = 19.9

     Threshold (ethr) on eigenvalues was too large:
     Diagonalizing with lowered threshold

     Davidson diagonalization with overlap
     ethr =  2.11E-09,  avg # of iterations = 13.5

     total cpu time spent up to now is      224.8 secs

     total energy              =   -1856.94574231 Ry
     Harris-Foulkes estimate   =   -1856.94574479 Ry
     estimated scf accuracy    <       0.00000283 Ry

     iteration #  2     ecut=    60.00 Ry     beta=0.70
     Davidson diagonalization with overlap
     ethr =  1.18E-09,  avg # of iterations =  6.8

     total cpu time spent up to now is      272.2 secs

     total energy              =   -1856.94573604 Ry
     Harris-Foulkes estimate   =   -1856.94575401 Ry
     estimated scf accuracy    <       0.00009633 Ry

     iteration #  3     ecut=    60.00 Ry     beta=0.70
     Davidson diagonalization with overlap
     ethr =  1.18E-09,  avg # of iterations =  6.1

     total cpu time spent up to now is      317.2 secs

     End of self-consistent calculation

          k = 0.1250 0.1250 0.1330 ( 43456 PWs)   bands (ev):

   -17.7040 -17.6618 -17.6599 -17.6433 -17.6368 -17.6178 -17.6159 -17.6081
   -15.2964 -15.2623 -15.2536 -15.2488 -15.2104 -15.2074 -15.2016 -15.1926
   -12.0614 -11.7574 -11.6998 -11.5780 -11.5488 -11.5424 -11.4741 -11.4328
   -11.3681 -11.3456 -11.2688 -11.2601  -8.6237  -8.5491  -8.5406  -8.4435
    -8.4375  -8.3674  -8.3496  -8.3304  -6.8840  -6.8559  -6.8391  -6.8047
    -6.7691  -6.7453  -6.7242  -6.7192  -6.6432  -6.6093  -6.5649  -6.4804
    -6.4556  -6.3887  -6.3830  -6.3283  -5.1073  -5.0710  -5.0247  -4.9768
    -4.9619  -4.9195  -4.9026  -4.8426  -3.7092  -3.7075  -3.5876  -3.5450
    -3.4826  -3.4159  -3.3980  -3.3683  -3.1537  -3.1148  -2.9009  -2.7951
    -2.7934  -2.6709  -2.6456  -2.4827  -1.0076  -0.7414  -0.6949  -0.5931
    -0.4529  -0.3291  -0.2490  -0.1687  -0.1672  -0.1129   0.0015   0.0453
     0.0628   0.1120   0.1132   0.1531   0.1538   0.1964   0.2623   0.2790
     0.3333   0.3662   0.4394   0.4698   0.5850   0.6179   0.6441   0.6865
     0.6988   0.7195   1.1453   1.1531   1.2268   1.2507   1.6595   1.7269
     1.8579   1.8583   2.3553   2.3665   2.3727   2.3813   3.1006   3.1025

     occupation numbers 
     1.0000   1.0000   1.0000   1.0000   1.0000   1.0000   1.0000   1.0000
     1.0000   1.0000   1.0000   1.0000   1.0000   1.0000   1.0000   1.0000
     1.0000   1.0000   1.0000   1.0000   1.0000   1.0000   1.0000   1.0000
     1.0000   1.0000   1.0000   1.0000   1.0000   1.0000   1.0000   1.0000
     1.0000   1.0000   1.0000   1.0000   1.0000   1.0000   1.0000   1.0000
     1.0000   1.0000   1.0000   1.0000   1.0000   1.0000   1.0000   1.0000
     1.0000   1.0000   1.0000   1.0000   1.0000   1.0000   1.0000   1.0000
     1.0000   1.0000   1.0000   1.0000   1.0000   1.0000   1.0000   1.0000
     1.0000   1.0000   1.0000   1.0000   1.0000   1.0000   1.0000   1.0000
     1.0000   1.0000   1.0000   1.0000   1.0000   1.0000   1.0000   1.0000
     1.0000   1.0000   1.0000   1.0000   1.0000   1.0000   1.0000   1.0000
     1.0000   1.0000   1.0000   1.0000   1.0000   1.0000   1.0000   1.0000
     1.0000   1.0000   1.0000   1.0000   1.0000   1.0000   1.0000   1.0000
     1.0000   1.0000   1.0000   1.0000   1.0000   1.0000   1.0000   1.0000
     1.0000   1.0000   1.0000   1.0000   1.0000   1.0000   1.0000   1.0000

          k = 0.1250 0.1250 0.3991 ( 43452 PWs)   bands (ev):

   -17.6867 -17.6616 -17.6503 -17.6461 -17.6322 -17.6294 -17.6268 -17.6165
   -15.2706 -15.2515 -15.2387 -15.2362 -15.2285 -15.2247 -15.2181 -15.2028
   -11.9877 -11.8680 -11.6535 -11.5937 -11.5531 -11.5137 -11.5067 -11.4562
   -11.3320 -11.3296 -11.2829 -11.2725  -8.5681  -8.5116  -8.4953  -8.4713
    -8.4355  -8.4193  -8.3719  -8.3520  -6.8787  -6.8386  -6.7850  -6.7819
    -6.7719  -6.7435  -6.7434  -6.7272  -6.6418  -6.6038  -6.5738  -6.5302
    -6.4744  -6.4026  -6.3665  -6.3464  -5.0904  -5.0424  -5.0199  -4.9871
    -4.9467  -4.9209  -4.9188  -4.8839  -3.7281  -3.7275  -3.5648  -3.5352
    -3.4800  -3.4326  -3.3880  -3.3838  -3.1530  -3.1335  -2.8899  -2.8685
    -2.7067  -2.6232  -2.5724  -2.5211  -1.0304  -0.9455  -0.6602  -0.6150
    -0.3004  -0.2444  -0.2272  -0.2115  -0.1421  -0.1379   0.0148   0.0240
     0.0733   0.0793   0.1392   0.1586   0.2009   0.2209   0.2947   0.3108
     0.3559   0.3749   0.4247   0.4301   0.5648   0.5814   0.6557   0.6584
     0.6793   0.7125   1.1335   1.1602   1.1683   1.2137   1.5894   1.6066
     1.8512   1.8516   2.3589   2.3685   2.3692   2.3739   3.2783   3.2851

     occupation numbers 
     1.0000   1.0000   1.0000   1.0000   1.0000   1.0000   1.0000   1.0000
     1.0000   1.0000   1.0000   1.0000   1.0000   1.0000   1.0000   1.0000
     1.0000   1.0000   1.0000   1.0000   1.0000   1.0000   1.0000   1.0000
     1.0000   1.0000   1.0000   1.0000   1.0000   1.0000   1.0000   1.0000
     1.0000   1.0000   1.0000   1.0000   1.0000   1.0000   1.0000   1.0000
     1.0000   1.0000   1.0000   1.0000   1.0000   1.0000   1.0000   1.0000
     1.0000   1.0000   1.0000   1.0000   1.0000   1.0000   1.0000   1.0000
     1.0000   1.0000   1.0000   1.0000   1.0000   1.0000   1.0000   1.0000
     1.0000   1.0000   1.0000   1.0000   1.0000   1.0000   1.0000   1.0000
     1.0000   1.0000   1.0000   1.0000   1.0000   1.0000   1.0000   1.0000
     1.0000   1.0000   1.0000   1.0000   1.0000   1.0000   1.0000   1.0000
     1.0000   1.0000   1.0000   1.0000   1.0000   1.0000   1.0000   1.0000
     1.0000   1.0000   1.0000   1.0000   1.0000   1.0000   1.0000   1.0000
     1.0000   1.0000   1.0000   1.0000   1.0000   1.0000   1.0000   1.0000
     1.0000   1.0000   1.0000   1.0000   1.0000   1.0000   1.0000   1.0000

          k = 0.1250 0.3750 0.1330 ( 43457 PWs)   bands (ev):

   -17.6921 -17.6744 -17.6537 -17.6439 -17.6357 -17.6247 -17.6137 -17.6100
   -15.2864 -15.2721 -15.2547 -15.2523 -15.2067 -15.2027 -15.2014 -15.1959
   -11.9877 -11.8603 -11.6848 -11.6035 -11.5455 -11.5101 -11.5027 -11.4871
   -11.3409 -11.3355 -11.2443 -11.2315  -8.6182  -8.5861  -8.5195  -8.4782
    -8.4203  -8.3808  -8.3271  -8.3141  -6.8718  -6.8656  -6.8354  -6.8140
    -6.7668  -6.7519  -6.7253  -6.7136  -6.6457  -6.5932  -6.5702  -6.4551
    -6.4214  -6.4046  -6.3862  -6.3801  -5.0960  -5.0769  -5.0531  -5.0001
    -4.9347  -4.9004  -4.8818  -4.8593  -3.7076  -3.6798  -3.5929  -3.5924
    -3.5034  -3.4271  -3.3455  -3.3254  -3.1492  -3.1180  -2.9692  -2.8322
    -2.7229  -2.7163  -2.5713  -2.5244  -0.9327  -0.8246  -0.6945  -0.6554
    -0.4409  -0.3878  -0.1683  -0.1460  -0.1044  -0.0906  -0.0222   0.0025
     0.0308   0.0662   0.1499   0.1641   0.2291   0.2336   0.3293   0.3320
     0.3631   0.3648   0.4052   0.4187   0.5401   0.5983   0.6442   0.6494
     0.7043   0.7153   1.1528   1.1797   1.1973   1.2494   1.6207   1.6502
     1.8498   1.8534   2.3546   2.3716   2.3864   2.3900   3.1025   3.1043

     occupation numbers 
     1.0000   1.0000   1.0000   1.0000   1.0000   1.0000   1.0000   1.0000
     1.0000   1.0000   1.0000   1.0000   1.0000   1.0000   1.0000   1.0000
     1.0000   1.0000   1.0000   1.0000   1.0000   1.0000   1.0000   1.0000
     1.0000   1.0000   1.0000   1.0000   1.0000   1.0000   1.0000   1.0000
     1.0000   1.0000   1.0000   1.0000   1.0000   1.0000   1.0000   1.0000
     1.0000   1.0000   1.0000   1.0000   1.0000   1.0000   1.0000   1.0000
     1.0000   1.0000   1.0000   1.0000   1.0000   1.0000   1.0000   1.0000
     1.0000   1.0000   1.0000   1.0000   1.0000   1.0000   1.0000   1.0000
     1.0000   1.0000   1.0000   1.0000   1.0000   1.0000   1.0000   1.0000
     1.0000   1.0000   1.0000   1.0000   1.0000   1.0000   1.0000   1.0000
     1.0000   1.0000   1.0000   1.0000   1.0000   1.0000   1.0000   1.0000
     1.0000   1.0000   1.0000   1.0000   1.0000   1.0000   1.0000   1.0000
     1.0000   1.0000   1.0000   1.0000   1.0000   1.0000   1.0000   1.0000
     1.0000   1.0000   1.0000   1.0000   1.0000   1.0000   1.0000   1.0000
     1.0000   1.0000   1.0000   1.0000   1.0000   1.0000   1.0000   1.0000

          k = 0.1250 0.3750 0.3991 ( 43465 PWs)   bands (ev):

   -17.6760 -17.6605 -17.6526 -17.6421 -17.6402 -17.6338 -17.6252 -17.6198
   -15.2644 -15.2569 -15.2419 -15.2396 -15.2269 -15.2234 -15.2112 -15.2059
   -11.9313 -11.8654 -11.7090 -11.6627 -11.5220 -11.5096 -11.5045 -11.4846
   -11.3480 -11.3443 -11.2364 -11.2295  -8.5630  -8.5406  -8.4788  -8.4699
    -8.4638  -8.4248  -8.3485  -8.3377  -6.8639  -6.8473  -6.7849  -6.7846
    -6.7664  -6.7526  -6.7281  -6.7228  -6.6513  -6.6266  -6.5497  -6.5080
    -6.4525  -6.4325  -6.3752  -6.3737  -5.0669  -5.0523  -5.0329  -5.0118
    -4.9425  -4.9199  -4.8920  -4.8850  -3.7232  -3.7144  -3.5523  -3.5466
    -3.5005  -3.4610  -3.3501  -3.3435  -3.1430  -3.1309  -2.8811  -2.8405
    -2.7459  -2.7219  -2.5395  -2.5351  -1.0199  -0.9852  -0.6654  -0.6468
    -0.2888  -0.2568  -0.1742  -0.1726  -0.1177  -0.1159   0.0090   0.0097
     0.0563   0.0695   0.1659   0.1785   0.2391   0.2662   0.3144   0.3263
     0.3915   0.3928   0.4340   0.4380   0.5310   0.5490   0.6040   0.6073
     0.6817   0.6836   1.1471   1.1570   1.1757   1.2008   1.5385   1.5487
     1.8492   1.8496   2.3600   2.3702   2.3798   2.3837   3.2842   3.2877

     occupation numbers 
     1.0000   1.0000   1.0000   1.0000   1.0000   1.0000   1.0000   1.0000
     1.0000   1.0000   1.0000   1.0000   1.0000   1.0000   1.0000   1.0000
     1.0000   1.0000   1.0000   1.0000   1.0000   1.0000   1.0000   1.0000
     1.0000   1.0000   1.0000   1.0000   1.0000   1.0000   1.0000   1.0000
     1.0000   1.0000   1.0000   1.0000   1.0000   1.0000   1.0000   1.0000
     1.0000   1.0000   1.0000   1.0000   1.0000   1.0000   1.0000   1.0000
     1.0000   1.0000   1.0000   1.0000   1.0000   1.0000   1.0000   1.0000
     1.0000   1.0000   1.0000   1.0000   1.0000   1.0000   1.0000   1.0000
     1.0000   1.0000   1.0000   1.0000   1.0000   1.0000   1.0000   1.0000
     1.0000   1.0000   1.0000   1.0000   1.0000   1.0000   1.0000   1.0000
     1.0000   1.0000   1.0000   1.0000   1.0000   1.0000   1.0000   1.0000
     1.0000   1.0000   1.0000   1.0000   1.0000   1.0000   1.0000   1.0000
     1.0000   1.0000   1.0000   1.0000   1.0000   1.0000   1.0000   1.0000
     1.0000   1.0000   1.0000   1.0000   1.0000   1.0000   1.0000   1.0000
     1.0000   1.0000   1.0000   1.0000   1.0000   1.0000   1.0000   1.0000

          k = 0.3750 0.3750 0.1330 ( 43410 PWs)   bands (ev):

   -17.6816 -17.6682 -17.6630 -17.6527 -17.6294 -17.6221 -17.6181 -17.6137
   -15.2786 -15.2678 -15.2644 -15.2583 -15.2039 -15.2027 -15.1990 -15.1966
   -11.9410 -11.8834 -11.6551 -11.6228 -11.5683 -11.5407 -11.4980 -11.4692
   -11.4122 -11.3867 -11.1825 -11.1724  -8.6070  -8.5890  -8.5357  -8.5128
    -8.3954  -8.3819  -8.3114  -8.3078  -6.8569  -6.8519  -6.8316  -6.8257
    -6.7328  -6.7266  -6.7156  -6.7120  -6.6645  -6.6485  -6.5564  -6.5264
    -6.4200  -6.4085  -6.3767  -6.3676  -5.1292  -5.1178  -5.0012  -4.9739
    -4.9522  -4.9276  -4.8550  -4.8473  -3.6691  -3.6479  -3.5424  -3.5373
    -3.4740  -3.4186  -3.3806  -3.3573  -3.1391  -3.1369  -3.0551  -3.0063
    -2.6576  -2.6519  -2.5602  -2.5405  -0.9132  -0.8778  -0.6947  -0.6892
    -0.3737  -0.3405  -0.2221  -0.2000  -0.0719  -0.0696  -0.0125   0.0172
     0.0726   0.0780   0.1432   0.1769   0.2478   0.2741   0.3203   0.3307
     0.3617   0.3799   0.4040   0.4258   0.5305   0.5395   0.6243   0.6316
     0.6869   0.6892   1.2002   1.2157   1.2227   1.2421   1.5743   1.5888
     1.8322   1.8350   2.3618   2.3639   2.4108   2.4113   3.1019   3.1028

     occupation numbers 
     1.0000   1.0000   1.0000   1.0000   1.0000   1.0000   1.0000   1.0000
     1.0000   1.0000   1.0000   1.0000   1.0000   1.0000   1.0000   1.0000
     1.0000   1.0000   1.0000   1.0000   1.0000   1.0000   1.0000   1.0000
     1.0000   1.0000   1.0000   1.0000   1.0000   1.0000   1.0000   1.0000
     1.0000   1.0000   1.0000   1.0000   1.0000   1.0000   1.0000   1.0000
     1.0000   1.0000   1.0000   1.0000   1.0000   1.0000   1.0000   1.0000
     1.0000   1.0000   1.0000   1.0000   1.0000   1.0000   1.0000   1.0000
     1.0000   1.0000   1.0000   1.0000   1.0000   1.0000   1.0000   1.0000
     1.0000   1.0000   1.0000   1.0000   1.0000   1.0000   1.0000   1.0000
     1.0000   1.0000   1.0000   1.0000   1.0000   1.0000   1.0000   1.0000
     1.0000   1.0000   1.0000   1.0000   1.0000   1.0000   1.0000   1.0000
     1.0000   1.0000   1.0000   1.0000   1.0000   1.0000   1.0000   1.0000
     1.0000   1.0000   1.0000   1.0000   1.0000   1.0000   1.0000   1.0000
     1.0000   1.0000   1.0000   1.0000   1.0000   1.0000   1.0000   1.0000
     1.0000   1.0000   1.0000   1.0000   1.0000   1.0000   1.0000   1.0000

          k = 0.3750 0.3750 0.3991 ( 43494 PWs)   bands (ev):

   -17.6667 -17.6551 -17.6506 -17.6446 -17.6419 -17.6359 -17.6309 -17.6251
   -15.2603 -15.2561 -15.2463 -15.2455 -15.2228 -15.2220 -15.2092 -15.2070
   -11.9015 -11.8725 -11.6867 -11.6690 -11.5272 -11.5174 -11.4984 -11.4681
   -11.4417 -11.4155 -11.1766 -11.1725  -8.5497  -8.5281  -8.5151  -8.4918
    -8.4480  -8.4415  -8.3255  -8.3234  -6.8416  -6.8330  -6.7853  -6.7835
    -6.7454  -6.7351  -6.7233  -6.7225  -6.6457  -6.6099  -6.5832  -6.5336
    -6.4897  -6.4873  -6.3672  -6.3645  -5.0838  -5.0748  -5.0206  -5.0182
    -4.9415  -4.9360  -4.8648  -4.8616  -3.6673  -3.6564  -3.5071  -3.5047
    -3.4707  -3.4283  -3.4084  -3.3824  -3.1435  -3.1418  -2.9346  -2.9087
    -2.7589  -2.7577  -2.5398  -2.5372  -1.0392  -1.0281  -0.6310  -0.6256
    -0.2455  -0.2222  -0.2002  -0.1905  -0.1273  -0.1249   0.0337   0.0467
     0.0873   0.0948   0.1619   0.1640   0.2960   0.3046   0.3302   0.3365
     0.3800   0.3865   0.4139   0.4180   0.5466   0.5497   0.5820   0.5836
     0.6263   0.6314   1.1840   1.2027   1.2141   1.2167   1.4592   1.4632
     1.8374   1.8387   2.3740   2.3746   2.3951   2.3959   3.2879   3.2895

     occupation numbers 
     1.0000   1.0000   1.0000   1.0000   1.0000   1.0000   1.0000   1.0000
     1.0000   1.0000   1.0000   1.0000   1.0000   1.0000   1.0000   1.0000
     1.0000   1.0000   1.0000   1.0000   1.0000   1.0000   1.0000   1.0000
     1.0000   1.0000   1.0000   1.0000   1.0000   1.0000   1.0000   1.0000
     1.0000   1.0000   1.0000   1.0000   1.0000   1.0000   1.0000   1.0000
     1.0000   1.0000   1.0000   1.0000   1.0000   1.0000   1.0000   1.0000
     1.0000   1.0000   1.0000   1.0000   1.0000   1.0000   1.0000   1.0000
     1.0000   1.0000   1.0000   1.0000   1.0000   1.0000   1.0000   1.0000
     1.0000   1.0000   1.0000   1.0000   1.0000   1.0000   1.0000   1.0000
     1.0000   1.0000   1.0000   1.0000   1.0000   1.0000   1.0000   1.0000
     1.0000   1.0000   1.0000   1.0000   1.0000   1.0000   1.0000   1.0000
     1.0000   1.0000   1.0000   1.0000   1.0000   1.0000   1.0000   1.0000
     1.0000   1.0000   1.0000   1.0000   1.0000   1.0000   1.0000   1.0000
     1.0000   1.0000   1.0000   1.0000   1.0000   1.0000   1.0000   1.0000
     1.0000   1.0000   1.0000   1.0000   1.0000   1.0000   1.0000   1.0000

          k = 0.3750 0.1250-0.1330 ( 43457 PWs)   bands (ev):

   -17.6921 -17.6744 -17.6538 -17.6438 -17.6356 -17.6248 -17.6136 -17.6100
   -15.2867 -15.2713 -15.2559 -15.2517 -15.2057 -15.2032 -15.2021 -15.1956
   -11.9877 -11.8601 -11.6823 -11.6085 -11.5447 -11.5212 -11.5137 -11.4487
   -11.3691 -11.3220 -11.2557 -11.2200  -8.6154  -8.5912  -8.5167  -8.4789
    -8.4127  -8.3913  -8.3195  -8.3186  -6.8774  -6.8615  -6.8286  -6.8200
    -6.7662  -6.7518  -6.7162  -6.7152  -6.6454  -6.6269  -6.5081  -6.4963
    -6.4344  -6.4023  -6.3835  -6.3668  -5.1051  -5.0657  -5.0397  -5.0212
    -4.9200  -4.9071  -4.8861  -4.8573  -3.6965  -3.6864  -3.6029  -3.5834
    -3.4854  -3.4672  -3.3402  -3.3155  -3.1427  -3.1317  -2.8955  -2.8857
    -2.7784  -2.6777  -2.5669  -2.5213  -0.9303  -0.8283  -0.6926  -0.6575
    -0.4325  -0.3998  -0.1564  -0.1410  -0.1086  -0.0944  -0.0305   0.0057
     0.0335   0.0532   0.1244   0.1864   0.2628   0.2702   0.2811   0.3216
     0.3535   0.3693   0.4042   0.4312   0.5486   0.5671   0.6375   0.6792
     0.7044   0.7122   1.1436   1.1932   1.2032   1.2375   1.6212   1.6507
     1.8472   1.8548   2.3612   2.3644   2.3830   2.3944   3.1030   3.1038

     occupation numbers 
     1.0000   1.0000   1.0000   1.0000   1.0000   1.0000   1.0000   1.0000
     1.0000   1.0000   1.0000   1.0000   1.0000   1.0000   1.0000   1.0000
     1.0000   1.0000   1.0000   1.0000   1.0000   1.0000   1.0000   1.0000
     1.0000   1.0000   1.0000   1.0000   1.0000   1.0000   1.0000   1.0000
     1.0000   1.0000   1.0000   1.0000   1.0000   1.0000   1.0000   1.0000
     1.0000   1.0000   1.0000   1.0000   1.0000   1.0000   1.0000   1.0000
     1.0000   1.0000   1.0000   1.0000   1.0000   1.0000   1.0000   1.0000
     1.0000   1.0000   1.0000   1.0000   1.0000   1.0000   1.0000   1.0000
     1.0000   1.0000   1.0000   1.0000   1.0000   1.0000   1.0000   1.0000
     1.0000   1.0000   1.0000   1.0000   1.0000   1.0000   1.0000   1.0000
     1.0000   1.0000   1.0000   1.0000   1.0000   1.0000   1.0000   1.0000
     1.0000   1.0000   1.0000   1.0000   1.0000   1.0000   1.0000   1.0000
     1.0000   1.0000   1.0000   1.0000   1.0000   1.0000   1.0000   1.0000
     1.0000   1.0000   1.0000   1.0000   1.0000   1.0000   1.0000   1.0000
     1.0000   1.0000   1.0000   1.0000   1.0000   1.0000   1.0000   1.0000

          k = 0.3750 0.1250-0.3991 ( 43465 PWs)   bands (ev):

   -17.6760 -17.6604 -17.6527 -17.6419 -17.6401 -17.6340 -17.6251 -17.6199
   -15.2648 -15.2560 -15.2419 -15.2406 -15.2252 -15.2243 -15.2115 -15.2058
   -11.9312 -11.8653 -11.7084 -11.6647 -11.5213 -11.5122 -11.5084 -11.4718
   -11.3611 -11.3390 -11.2390 -11.2247  -8.5619  -8.5392  -8.4966  -8.4587
    -8.4435  -8.4425  -8.3432  -8.3416  -6.8637  -6.8477  -6.7817  -6.7811
    -6.7648  -6.7628  -6.7292  -6.7182  -6.6543  -6.6262  -6.5404  -6.5177
    -6.4553  -6.4267  -6.3803  -6.3701  -5.0742  -5.0436  -5.0240  -5.0210
    -4.9380  -4.9281  -4.8927  -4.8815  -3.7102  -3.7068  -3.5756  -3.5705
    -3.4815  -3.4594  -3.3471  -3.3440  -3.1403  -3.1339  -2.8618  -2.8443
    -2.7724  -2.7052  -2.5445  -2.5316  -1.0182  -0.9878  -0.6646  -0.6484
    -0.2851  -0.2688  -0.1665  -0.1633  -0.1279  -0.0958  -0.0265   0.0057
     0.0713   0.0813   0.1434   0.1741   0.2759   0.2811   0.3029   0.3210
     0.3809   0.3979   0.4274   0.4299   0.5402   0.5413   0.6142   0.6152
     0.6692   0.6841   1.1355   1.1602   1.1848   1.2023   1.5392   1.5447
     1.8490   1.8510   2.3617   2.3647   2.3799   2.3871   3.2846   3.2874

     occupation numbers 
     1.0000   1.0000   1.0000   1.0000   1.0000   1.0000   1.0000   1.0000
     1.0000   1.0000   1.0000   1.0000   1.0000   1.0000   1.0000   1.0000
     1.0000   1.0000   1.0000   1.0000   1.0000   1.0000   1.0000   1.0000
     1.0000   1.0000   1.0000   1.0000   1.0000   1.0000   1.0000   1.0000
     1.0000   1.0000   1.0000   1.0000   1.0000   1.0000   1.0000   1.0000
     1.0000   1.0000   1.0000   1.0000   1.0000   1.0000   1.0000   1.0000
     1.0000   1.0000   1.0000   1.0000   1.0000   1.0000   1.0000   1.0000
     1.0000   1.0000   1.0000   1.0000   1.0000   1.0000   1.0000   1.0000
     1.0000   1.0000   1.0000   1.0000   1.0000   1.0000   1.0000   1.0000
     1.0000   1.0000   1.0000   1.0000   1.0000   1.0000   1.0000   1.0000
     1.0000   1.0000   1.0000   1.0000   1.0000   1.0000   1.0000   1.0000
     1.0000   1.0000   1.0000   1.0000   1.0000   1.0000   1.0000   1.0000
     1.0000   1.0000   1.0000   1.0000   1.0000   1.0000   1.0000   1.0000
     1.0000   1.0000   1.0000   1.0000   1.0000   1.0000   1.0000   1.0000
     1.0000   1.0000   1.0000   1.0000   1.0000   1.0000   1.0000   1.0000

!    total energy              =   -1856.94574453 Ry
     Harris-Foulkes estimate   =   -1856.94574455 Ry
     estimated scf accuracy    <       0.00000003 Ry

     total all-electron energy =    -18563.106148 Ry

     The total energy is the sum of the following terms:

     one-electron contribution =    -545.98868190 Ry
     hartree contribution      =     382.58494285 Ry
     xc contribution           =    -327.04273698 Ry
     ewald contribution        =    -475.56035587 Ry
     one-center paw contrib.   =    -890.93891264 Ry

     convergence has been achieved in   3 iterations

     Forces acting on atoms (Ry/au):

     atom    1 type  2   force =    -0.00004635    0.00058002    0.00004662
     atom    2 type  2   force =     0.00004635   -0.00058002    0.00004662
     atom    3 type  2   force =    -0.00025433   -0.00021512    0.00025965
     atom    4 type  2   force =    -0.00058002   -0.00004635    0.00004662
     atom    5 type  2   force =     0.00058002    0.00004635    0.00004662
     atom    6 type  2   force =     0.00021512   -0.00025433    0.00025965
     atom    7 type  2   force =    -0.00021512    0.00025433    0.00025965
     atom    8 type  2   force =     0.00025433    0.00021512    0.00025965
     atom    9 type  5   force =     0.00000000    0.00000000    0.00015721
     atom   10 type  5   force =     0.00000000    0.00000000    0.00039894
     atom   11 type  5   force =     0.00000000    0.00000000    0.00012968
     atom   12 type  5   force =     0.00000000    0.00000000    0.00039804
     atom   13 type  1   force =     0.00017451   -0.00042297   -0.00028970
     atom   14 type  1   force =    -0.00008900   -0.00001751    0.00028437
     atom   15 type  1   force =    -0.00033537   -0.00023263   -0.00005880
     atom   16 type  1   force =     0.00033537    0.00023263   -0.00005880
     atom   17 type  1   force =    -0.00011424   -0.00039735   -0.00011164
     atom   18 type  1   force =     0.00011424    0.00039735   -0.00011164
     atom   19 type  1   force =    -0.00039735    0.00011424   -0.00011164
     atom   20 type  1   force =     0.00039735   -0.00011424   -0.00011164
     atom   21 type  1   force =     0.00025780    0.00020445    0.00031851
     atom   22 type  1   force =    -0.00020445    0.00025780    0.00031851
     atom   23 type  1   force =     0.00001751   -0.00008900    0.00028437
     atom   24 type  1   force =     0.00024183    0.00017310    0.00041054
     atom   25 type  1   force =    -0.00024183   -0.00017310    0.00041054
     atom   26 type  1   force =     0.00026177   -0.00016444    0.00032842
     atom   27 type  1   force =    -0.00026177    0.00016444    0.00032842
     atom   28 type  1   force =     0.00016444    0.00026177    0.00032842
     atom   29 type  1   force =    -0.00016444   -0.00026177    0.00032842
     atom   30 type  1   force =     0.00043805   -0.00007620   -0.00011984
     atom   31 type  1   force =    -0.00007620   -0.00043805   -0.00011984
     atom   32 type  1   force =     0.00042297    0.00017451   -0.00028970
     atom   33 type  1   force =    -0.00017310    0.00024183    0.00041054
     atom   34 type  1   force =     0.00017310   -0.00024183    0.00041054
     atom   35 type  1   force =     0.00023263   -0.00033537   -0.00005880
     atom   36 type  1   force =    -0.00023263    0.00033537   -0.00005880
     atom   37 type  1   force =    -0.00042297   -0.00017451   -0.00028970
     atom   38 type  1   force =     0.00007620    0.00043805   -0.00011984
     atom   39 type  1   force =    -0.00043805    0.00007620   -0.00011984
     atom   40 type  1   force =    -0.00001751    0.00008900    0.00028437
     atom   41 type  1   force =     0.00020445   -0.00025780    0.00031851
     atom   42 type  1   force =    -0.00025780   -0.00020445    0.00031851
     atom   43 type  1   force =     0.00008900    0.00001751    0.00028437
     atom   44 type  1   force =    -0.00017451    0.00042297   -0.00028970
     atom   45 type  3   force =    -0.00011186    0.00073268    0.00003327
     atom   46 type  3   force =     0.00018410   -0.00014331   -0.00034292
     atom   47 type  3   force =    -0.00018410    0.00014331   -0.00034292
     atom   48 type  3   force =    -0.00020571    0.00006947    0.00038132
     atom   49 type  3   force =     0.00020571   -0.00006947    0.00038132
     atom   50 type  3   force =    -0.00039450   -0.00011326    0.00011636
     atom   51 type  3   force =    -0.00006947   -0.00020571    0.00038132
     atom   52 type  3   force =     0.00006947    0.00020571    0.00038132
     atom   53 type  3   force =     0.00011326   -0.00039450    0.00011636
     atom   54 type  3   force =    -0.00073268   -0.00011186    0.00003327
     atom   55 type  3   force =    -0.00014331   -0.00018410   -0.00034292
     atom   56 type  3   force =     0.00014331    0.00018410   -0.00034292
     atom   57 type  3   force =     0.00073268    0.00011186    0.00003327
     atom   58 type  3   force =    -0.00011326    0.00039450    0.00011636
     atom   59 type  3   force =     0.00039450    0.00011326    0.00011636
     atom   60 type  3   force =     0.00011186   -0.00073268    0.00003327
     atom   61 type  6   force =     0.00000000    0.00000000    0.00025092
     atom   62 type  6   force =     0.00000000    0.00000000    0.00003971
     atom   63 type  4   force =    -0.00002583    0.00070377   -0.00084004
     atom   64 type  4   force =     0.00002583   -0.00070377   -0.00084004
     atom   65 type  4   force =    -0.00065459    0.00000147   -0.00075973
     atom   66 type  4   force =    -0.00070377   -0.00002583   -0.00084004
     atom   67 type  4   force =     0.00070377    0.00002583   -0.00084004
     atom   68 type  4   force =    -0.00000147   -0.00065459   -0.00075973
     atom   69 type  4   force =     0.00000147    0.00065459   -0.00075973
     atom   70 type  4   force =     0.00065459   -0.00000147   -0.00075973
     The non-local contrib.  to forces
     atom    1 type  2   force =     0.09660372    0.10549637    0.10283674
     atom    2 type  2   force =    -0.09660372   -0.10549637    0.10283674
     atom    3 type  2   force =    -0.10523978    0.09654182    0.10309839
     atom    4 type  2   force =    -0.10549637    0.09660372    0.10283674
     atom    5 type  2   force =     0.10549637   -0.09660372    0.10283674
     atom    6 type  2   force =    -0.09654182   -0.10523978    0.10309839
     atom    7 type  2   force =     0.09654182    0.10523978    0.10309839
     atom    8 type  2   force =     0.10523978   -0.09654182    0.10309839
     atom    9 type  5   force =     0.00000000    0.00000000   -0.03132123
     atom   10 type  5   force =     0.00000000    0.00000000   -0.11870828
     atom   11 type  5   force =     0.00000000    0.00000000   -0.03116449
     atom   12 type  5   force =     0.00000000    0.00000000   -0.11864210
     atom   13 type  1   force =     0.04026385    0.02827019    0.08729701
     atom   14 type  1   force =     0.03432361   -0.07776786   -0.03724978
     atom   15 type  1   force =     0.02826038   -0.04021838    0.08726529
     atom   16 type  1   force =    -0.02826038    0.04021838    0.08726529
     atom   17 type  1   force =    -0.03754537    0.07137480   -0.05344555
     atom   18 type  1   force =     0.03754537   -0.07137480   -0.05344555
     atom   19 type  1   force =     0.07137480    0.03754537   -0.05344555
     atom   20 type  1   force =    -0.07137480   -0.03754537   -0.05344555
     atom   21 type  1   force =     0.08204027   -0.03984000   -0.02812919
     atom   22 type  1   force =     0.03984000    0.08204027   -0.02812919
     atom   23 type  1   force =     0.07776786    0.03432361   -0.03724978
     atom   24 type  1   force =    -0.07782488   -0.03435459   -0.03727334
     atom   25 type  1   force =     0.07782488    0.03435459   -0.03727334
     atom   26 type  1   force =    -0.03984632   -0.08205836   -0.02814195
     atom   27 type  1   force =     0.03984632    0.08205836   -0.02814195
     atom   28 type  1   force =     0.08205836   -0.03984632   -0.02814195
     atom   29 type  1   force =    -0.08205836    0.03984632   -0.02814195
     atom   30 type  1   force =    -0.07136579   -0.03754390   -0.05347310
     atom   31 type  1   force =    -0.03754390    0.07136579   -0.05347310
     atom   32 type  1   force =    -0.02827019    0.04026385    0.08729701
     atom   33 type  1   force =     0.03435459   -0.07782488   -0.03727334
     atom   34 type  1   force =    -0.03435459    0.07782488   -0.03727334
     atom   35 type  1   force =     0.04021838    0.02826038    0.08726529
     atom   36 type  1   force =    -0.04021838   -0.02826038    0.08726529
     atom   37 type  1   force =     0.02827019   -0.04026385    0.08729701
     atom   38 type  1   force =     0.03754390   -0.07136579   -0.05347310
     atom   39 type  1   force =     0.07136579    0.03754390   -0.05347310
     atom   40 type  1   force =    -0.07776786   -0.03432361   -0.03724978
     atom   41 type  1   force =    -0.03984000   -0.08204027   -0.02812919
     atom   42 type  1   force =    -0.08204027    0.03984000   -0.02812919
     atom   43 type  1   force =    -0.03432361    0.07776786   -0.03724978
     atom   44 type  1   force =    -0.04026385   -0.02827019    0.08729701
     atom   45 type  3   force =     0.46328060    0.04037500   -0.24788192
     atom   46 type  3   force =     0.03993890   -0.46365539   -0.24832887
     atom   47 type  3   force =    -0.03993890    0.46365539   -0.24832887
     atom   48 type  3   force =    -0.05012076    0.20346165   -0.27292844
     atom   49 type  3   force =     0.05012076   -0.20346165   -0.27292844
     atom   50 type  3   force =    -0.20355298   -0.04935862   -0.27369755
     atom   51 type  3   force =    -0.20346165   -0.05012076   -0.27292844
     atom   52 type  3   force =     0.20346165    0.05012076   -0.27292844
     atom   53 type  3   force =     0.04935862   -0.20355298   -0.27369755
     atom   54 type  3   force =    -0.04037500    0.46328060   -0.24788192
     atom   55 type  3   force =    -0.46365539   -0.03993890   -0.24832887
     atom   56 type  3   force =     0.46365539    0.03993890   -0.24832887
     atom   57 type  3   force =     0.04037500   -0.46328060   -0.24788192
     atom   58 type  3   force =    -0.04935862    0.20355298   -0.27369755
     atom   59 type  3   force =     0.20355298    0.04935862   -0.27369755
     atom   60 type  3   force =    -0.46328060   -0.04037500   -0.24788192
     atom   61 type  6   force =     0.00000000    0.00000000   -0.01651500
     atom   62 type  6   force =     0.00000000    0.00000000   -0.01663096
     atom   63 type  4   force =     0.16726004   -0.08462644    0.24287424
     atom   64 type  4   force =    -0.16726004    0.08462644    0.24287424
     atom   65 type  4   force =     0.08475271    0.16721677    0.24283117
     atom   66 type  4   force =     0.08462644    0.16726004    0.24287424
     atom   67 type  4   force =    -0.08462644   -0.16726004    0.24287424
     atom   68 type  4   force =    -0.16721677    0.08475271    0.24283117
     atom   69 type  4   force =     0.16721677   -0.08475271    0.24283117
     atom   70 type  4   force =    -0.08475271   -0.16721677    0.24283117
     The ionic contribution  to forces
     atom    1 type  2   force =    -1.74571174    0.63343838   -1.18664865
     atom    2 type  2   force =     1.74571174   -0.63343838   -1.18664865
     atom    3 type  2   force =    -0.63049822   -1.74390868   -1.18448146
     atom    4 type  2   force =    -0.63343838   -1.74571174   -1.18664865
     atom    5 type  2   force =     0.63343838    1.74571174   -1.18664865
     atom    6 type  2   force =     1.74390868   -0.63049822   -1.18448146
     atom    7 type  2   force =    -1.74390868    0.63049822   -1.18448146
     atom    8 type  2   force =     0.63049822    1.74390868   -1.18448146
     atom    9 type  5   force =    -0.00000000   -0.00000000   -2.11482058
     atom   10 type  5   force =     0.00000000    0.00000000    5.40679149
     atom   11 type  5   force =     0.00000000    0.00000000   -2.11645724
     atom   12 type  5   force =     0.00000000    0.00000000    5.40381125
     atom   13 type  1   force =    -1.46155856   -0.98810473   -2.54904415
     atom   14 type  1   force =    -1.24150718    1.74847598    0.78258060
     atom   15 type  1   force =    -0.98799198    1.46050492   -2.54878315
     atom   16 type  1   force =     0.98799198   -1.46050492   -2.54878315
     atom   17 type  1   force =     0.79801563   -1.85888584    1.51517984
     atom   18 type  1   force =    -0.79801563    1.85888584    1.51517984
     atom   19 type  1   force =    -1.85888584   -0.79801563    1.51517984
     atom   20 type  1   force =     1.85888584    0.79801563    1.51517984
     atom   21 type  1   force =    -1.88052817    0.50094244    1.35182292
     atom   22 type  1   force =    -0.50094244   -1.88052817    1.35182292
     atom   23 type  1   force =    -1.74847598   -1.24150718    0.78258060
     atom   24 type  1   force =     1.74942486    1.24206226    0.78276941
     atom   25 type  1   force =    -1.74942486   -1.24206226    0.78276941
     atom   26 type  1   force =     0.50114124    1.88080547    1.35181734
     atom   27 type  1   force =    -0.50114124   -1.88080547    1.35181734
     atom   28 type  1   force =    -1.88080547    0.50114124    1.35181734
     atom   29 type  1   force =     1.88080547   -0.50114124    1.35181734
     atom   30 type  1   force =     1.85842565    0.79799365    1.51579881
     atom   31 type  1   force =     0.79799365   -1.85842565    1.51579881
     atom   32 type  1   force =     0.98810473   -1.46155856   -2.54904415
     atom   33 type  1   force =    -1.24206226    1.74942486    0.78276941
     atom   34 type  1   force =     1.24206226   -1.74942486    0.78276941
     atom   35 type  1   force =    -1.46050492   -0.98799198   -2.54878315
     atom   36 type  1   force =     1.46050492    0.98799198   -2.54878315
     atom   37 type  1   force =    -0.98810473    1.46155856   -2.54904415
     atom   38 type  1   force =    -0.79799365    1.85842565    1.51579881
     atom   39 type  1   force =    -1.85842565   -0.79799365    1.51579881
     atom   40 type  1   force =     1.74847598    1.24150718    0.78258060
     atom   41 type  1   force =     0.50094244    1.88052817    1.35182292
     atom   42 type  1   force =     1.88052817   -0.50094244    1.35182292
     atom   43 type  1   force =     1.24150718   -1.74847598    0.78258060
     atom   44 type  1   force =     1.46155856    0.98810473   -2.54904415
     atom   45 type  3   force =    -5.62629694   -0.22477899   -1.15426887
     atom   46 type  3   force =    -0.22697915    5.62485311   -1.15553930
     atom   47 type  3   force =     0.22697915   -5.62485311   -1.15553930
     atom   48 type  3   force =     2.09714740   -1.04486375    4.70894471
     atom   49 type  3   force =    -2.09714740    1.04486375    4.70894471
     atom   50 type  3   force =     1.04326514    2.09500958    4.70891812
     atom   51 type  3   force =     1.04486375    2.09714740    4.70894471
     atom   52 type  3   force =    -1.04486375   -2.09714740    4.70894471
     atom   53 type  3   force =    -2.09500958    1.04326514    4.70891812
     atom   54 type  3   force =     0.22477899   -5.62629694   -1.15426887
     atom   55 type  3   force =     5.62485311    0.22697915   -1.15553930
     atom   56 type  3   force =    -5.62485311   -0.22697915   -1.15553930
     atom   57 type  3   force =    -0.22477899    5.62629694   -1.15426887
     atom   58 type  3   force =     2.09500958   -1.04326514    4.70891812
     atom   59 type  3   force =    -1.04326514   -2.09500958    4.70891812
     atom   60 type  3   force =     5.62629694    0.22477899   -1.15426887
     atom   61 type  6   force =     0.00000000    0.00000000   -0.18377091
     atom   62 type  6   force =    -0.00000000   -0.00000000   -0.18159033
     atom   63 type  4   force =    -2.68216593    5.30812445   -4.24735689
     atom   64 type  4   force =     2.68216593   -5.30812445   -4.24735689
     atom   65 type  4   force =    -5.30755874   -2.68260776   -4.24520019
     atom   66 type  4   force =    -5.30812445   -2.68216593   -4.24735689
     atom   67 type  4   force =     5.30812445    2.68216593   -4.24735689
     atom   68 type  4   force =     2.68260776   -5.30755874   -4.24520019
     atom   69 type  4   force =    -2.68260776    5.30755874   -4.24520019
     atom   70 type  4   force =     5.30755874    2.68260776   -4.24520019
     The local contribution  to forces
     atom    1 type  2   force =     1.64903755   -0.73714765    1.08434022
     atom    2 type  2   force =    -1.64903755    0.73714765    1.08434022
     atom    3 type  2   force =     0.73425339    1.64716239    1.08222673
     atom    4 type  2   force =     0.73714765    1.64903755    1.08434022
     atom    5 type  2   force =    -0.73714765   -1.64903755    1.08434022
     atom    6 type  2   force =    -1.64716239    0.73425339    1.08222673
     atom    7 type  2   force =     1.64716239   -0.73425339    1.08222673
     atom    8 type  2   force =    -0.73425339   -1.64716239    1.08222673
     atom    9 type  5   force =    -0.00000000   -0.00000000    2.14487913
     atom   10 type  5   force =     0.00000000    0.00000000   -5.29297049
     atom   11 type  5   force =     0.00000000    0.00000000    2.14617659
     atom   12 type  5   force =    -0.00000000   -0.00000000   -5.29011505
     atom   13 type  1   force =     1.42146983    0.95941729    2.46146776
     atom   14 type  1   force =     1.20709513   -1.67071834   -0.74503701
     atom   15 type  1   force =     0.95939571   -1.42051872    2.46145108
     atom   16 type  1   force =    -0.95939571    1.42051872    2.46145108
     atom   17 type  1   force =    -0.76057731    1.78710798   -1.46184564
     atom   18 type  1   force =     0.76057731   -1.78710798   -1.46184564
     atom   19 type  1   force =     1.78710798    0.76057731   -1.46184564
     atom   20 type  1   force =    -1.78710798   -0.76057731   -1.46184564
     atom   21 type  1   force =     1.79873341   -0.46088969   -1.32337257
     atom   22 type  1   force =     0.46088969    1.79873341   -1.32337257
     atom   23 type  1   force =     1.67071834    1.20709513   -0.74503701
     atom   24 type  1   force =    -1.67135618   -1.20753340   -0.74509573
     atom   25 type  1   force =     1.67135618    1.20753340   -0.74509573
     atom   26 type  1   force =    -0.46103365   -1.79891328   -1.32334347
     atom   27 type  1   force =     0.46103365    1.79891328   -1.32334347
     atom   28 type  1   force =     1.79891328   -0.46103365   -1.32334347
     atom   29 type  1   force =    -1.79891328    0.46103365   -1.32334347
     atom   30 type  1   force =    -1.78662111   -0.76052843   -1.46244389
     atom   31 type  1   force =    -0.76052843    1.78662111   -1.46244389
     atom   32 type  1   force =    -0.95941729    1.42146983    2.46146776
     atom   33 type  1   force =     1.20753340   -1.67135618   -0.74509573
     atom   34 type  1   force =    -1.20753340    1.67135618   -0.74509573
     atom   35 type  1   force =     1.42051872    0.95939571    2.46145108
     atom   36 type  1   force =    -1.42051872   -0.95939571    2.46145108
     atom   37 type  1   force =     0.95941729   -1.42146983    2.46146776
     atom   38 type  1   force =     0.76052843   -1.78662111   -1.46244389
     atom   39 type  1   force =     1.78662111    0.76052843   -1.46244389
     atom   40 type  1   force =    -1.67071834   -1.20709513   -0.74503701
     atom   41 type  1   force =    -0.46088969   -1.79873341   -1.32337257
     atom   42 type  1   force =    -1.79873341    0.46088969   -1.32337257
     atom   43 type  1   force =    -1.20709513    1.67071834   -0.74503701
     atom   44 type  1   force =    -1.42146983   -0.95941729    2.46146776
     atom   45 type  3   force =     5.16581522    0.18537429    1.40018299
     atom   46 type  3   force =     0.18742733   -5.16424457    1.40140561
     atom   47 type  3   force =    -0.18742733    5.16424457    1.40140561
     atom   48 type  3   force =    -2.04716267    0.84285755   -4.43717650
     atom   49 type  3   force =     2.04716267   -0.84285755   -4.43717650
     atom   50 type  3   force =    -0.84157126   -2.04564574   -4.43662808
     atom   51 type  3   force =    -0.84285755   -2.04716267   -4.43717650
     atom   52 type  3   force =     0.84285755    2.04716267   -4.43717650
     atom   53 type  3   force =     2.04564574   -0.84157126   -4.43662808
     atom   54 type  3   force =    -0.18537429    5.16581522    1.40018299
     atom   55 type  3   force =    -5.16424457   -0.18742733    1.40140561
     atom   56 type  3   force =     5.16424457    0.18742733    1.40140561
     atom   57 type  3   force =     0.18537429   -5.16581522    1.40018299
     atom   58 type  3   force =    -2.04564574    0.84157126   -4.43662808
     atom   59 type  3   force =     0.84157126    2.04564574   -4.43662808
     atom   60 type  3   force =    -5.16581522   -0.18537429    1.40018299
     atom   61 type  6   force =     0.00000000    0.00000000    0.20417428
     atom   62 type  6   force =     0.00000000    0.00000000    0.20231429
     atom   63 type  4   force =     2.51994801   -5.22810883    4.01258490
     atom   64 type  4   force =    -2.51994801    5.22810883    4.01258490
     atom   65 type  4   force =     5.22737029    2.52049269    4.01072260
     atom   66 type  4   force =     5.22810883    2.51994801    4.01258490
     atom   67 type  4   force =    -5.22810883   -2.51994801    4.01258490
     atom   68 type  4   force =    -2.52049269    5.22737029    4.01072260
     atom   69 type  4   force =     2.52049269   -5.22737029    4.01072260
     atom   70 type  4   force =    -5.22737029   -2.52049269    4.01072260
     The core correction contribution to forces
     atom    1 type  2   force =     0.00001260   -0.00121931   -0.00053417
     atom    2 type  2   force =    -0.00001260    0.00121931   -0.00053417
     atom    3 type  2   force =     0.00120488    0.00001133   -0.00054334
     atom    4 type  2   force =     0.00121931    0.00001260   -0.00053417
     atom    5 type  2   force =    -0.00121931   -0.00001260   -0.00053417
     atom    6 type  2   force =    -0.00001133    0.00120488   -0.00054334
     atom    7 type  2   force =     0.00001133   -0.00120488   -0.00054334
     atom    8 type  2   force =    -0.00120488   -0.00001133   -0.00054334
     atom    9 type  5   force =     0.00000000    0.00000000    0.00148057
     atom   10 type  5   force =     0.00000000    0.00000000    0.00533769
     atom   11 type  5   force =    -0.00000000   -0.00000000    0.00146010
     atom   12 type  5   force =    -0.00000000   -0.00000000    0.00534596
     atom   13 type  1   force =     0.00000000    0.00000000    0.00000000
     atom   14 type  1   force =     0.00000000    0.00000000    0.00000000
     atom   15 type  1   force =     0.00000000    0.00000000    0.00000000
     atom   16 type  1   force =     0.00000000    0.00000000    0.00000000
     atom   17 type  1   force =     0.00000000    0.00000000    0.00000000
     atom   18 type  1   force =     0.00000000    0.00000000    0.00000000
     atom   19 type  1   force =     0.00000000    0.00000000    0.00000000
     atom   20 type  1   force =     0.00000000    0.00000000    0.00000000
     atom   21 type  1   force =     0.00000000    0.00000000    0.00000000
     atom   22 type  1   force =     0.00000000    0.00000000    0.00000000
     atom   23 type  1   force =     0.00000000    0.00000000    0.00000000
     atom   24 type  1   force =     0.00000000    0.00000000    0.00000000
     atom   25 type  1   force =     0.00000000    0.00000000    0.00000000
     atom   26 type  1   force =     0.00000000    0.00000000    0.00000000
     atom   27 type  1   force =     0.00000000    0.00000000    0.00000000
     atom   28 type  1   force =     0.00000000    0.00000000    0.00000000
     atom   29 type  1   force =     0.00000000    0.00000000    0.00000000
     atom   30 type  1   force =     0.00000000    0.00000000    0.00000000
     atom   31 type  1   force =     0.00000000    0.00000000    0.00000000
     atom   32 type  1   force =     0.00000000    0.00000000    0.00000000
     atom   33 type  1   force =     0.00000000    0.00000000    0.00000000
     atom   34 type  1   force =     0.00000000    0.00000000    0.00000000
     atom   35 type  1   force =     0.00000000    0.00000000    0.00000000
     atom   36 type  1   force =     0.00000000    0.00000000    0.00000000
     atom   37 type  1   force =     0.00000000    0.00000000    0.00000000
     atom   38 type  1   force =     0.00000000    0.00000000    0.00000000
[...]
     The Hubbard contrib.    to forces
     atom    1 type  2   force =     0.00000000    0.00000000    0.00000000
     atom    2 type  2   force =     0.00000000    0.00000000    0.00000000
     atom    3 type  2   force =     0.00000000    0.00000000    0.00000000
     atom    4 type  2   force =     0.00000000    0.00000000    0.00000000
     atom    5 type  2   force =     0.00000000    0.00000000    0.00000000
     atom    6 type  2   force =     0.00000000    0.00000000    0.00000000
     atom    7 type  2   force =     0.00000000    0.00000000    0.00000000
     atom    8 type  2   force =     0.00000000    0.00000000    0.00000000
     atom    9 type  5   force =     0.00000000    0.00000000    0.00000000
     atom   10 type  5   force =     0.00000000    0.00000000    0.00000000
     atom   11 type  5   force =     0.00000000    0.00000000    0.00000000
     atom   12 type  5   force =     0.00000000    0.00000000    0.00000000
     atom   13 type  1   force =     0.00000000    0.00000000    0.00000000
     atom   14 type  1   force =     0.00000000    0.00000000    0.00000000
     atom   15 type  1   force =     0.00000000    0.00000000    0.00000000
     atom   16 type  1   force =     0.00000000    0.00000000    0.00000000
     atom   17 type  1   force =     0.00000000    0.00000000    0.00000000
     atom   18 type  1   force =     0.00000000    0.00000000    0.00000000
     atom   19 type  1   force =     0.00000000    0.00000000    0.00000000
     atom   20 type  1   force =     0.00000000    0.00000000    0.00000000
     atom   21 type  1   force =     0.00000000    0.00000000    0.00000000
     atom   22 type  1   force =     0.00000000    0.00000000    0.00000000
     atom   23 type  1   force =     0.00000000    0.00000000    0.00000000
     atom   24 type  1   force =     0.00000000    0.00000000    0.00000000
     atom   25 type  1   force =     0.00000000    0.00000000    0.00000000
     atom   26 type  1   force =     0.00000000    0.00000000    0.00000000
     atom   27 type  1   force =     0.00000000    0.00000000    0.00000000
     atom   28 type  1   force =     0.00000000    0.00000000    0.00000000
     atom   29 type  1   force =     0.00000000    0.00000000    0.00000000
     atom   30 type  1   force =     0.00000000    0.00000000    0.00000000
     atom   31 type  1   force =     0.00000000    0.00000000    0.00000000
     atom   32 type  1   force =     0.00000000    0.00000000    0.00000000
     atom   33 type  1   force =     0.00000000    0.00000000    0.00000000
     atom   34 type  1   force =     0.00000000    0.00000000    0.00000000
     atom   35 type  1   force =     0.00000000    0.00000000    0.00000000
     atom   36 type  1   force =     0.00000000    0.00000000    0.00000000
     atom   37 type  1   force =     0.00000000    0.00000000    0.00000000
     atom   38 type  1   force =     0.00000000    0.00000000    0.00000000
     atom   39 type  1   force =     0.00000000    0.00000000    0.00000000
     atom   40 type  1   force =     0.00000000    0.00000000    0.00000000
     atom   41 type  1   force =     0.00000000    0.00000000    0.00000000
     atom   42 type  1   force =     0.00000000    0.00000000    0.00000000
     atom   43 type  1   force =     0.00000000    0.00000000    0.00000000
     atom   44 type  1   force =     0.00000000    0.00000000    0.00000000
     atom   45 type  3   force =     0.00000000    0.00000000    0.00000000
     atom   46 type  3   force =     0.00000000    0.00000000    0.00000000
     atom   47 type  3   force =     0.00000000    0.00000000    0.00000000
     atom   48 type  3   force =     0.00000000    0.00000000    0.00000000
     atom   49 type  3   force =     0.00000000    0.00000000    0.00000000
     atom   50 type  3   force =     0.00000000    0.00000000    0.00000000
     atom   51 type  3   force =     0.00000000    0.00000000    0.00000000
     atom   52 type  3   force =     0.00000000    0.00000000    0.00000000
     atom   53 type  3   force =     0.00000000    0.00000000    0.00000000
     atom   54 type  3   force =     0.00000000    0.00000000    0.00000000
     atom   55 type  3   force =     0.00000000    0.00000000    0.00000000
     atom   56 type  3   force =     0.00000000    0.00000000    0.00000000
     atom   57 type  3   force =     0.00000000    0.00000000    0.00000000
     atom   58 type  3   force =     0.00000000    0.00000000    0.00000000
     atom   59 type  3   force =     0.00000000    0.00000000    0.00000000
     atom   60 type  3   force =     0.00000000    0.00000000    0.00000000
     atom   61 type  6   force =     0.00000000    0.00000000    0.00000000
     atom   62 type  6   force =     0.00000000    0.00000000    0.00000000
     atom   63 type  4   force =     0.00000000    0.00000000    0.00000000
     atom   64 type  4   force =     0.00000000    0.00000000    0.00000000
     atom   65 type  4   force =     0.00000000    0.00000000    0.00000000
     atom   66 type  4   force =     0.00000000    0.00000000    0.00000000
     atom   67 type  4   force =     0.00000000    0.00000000    0.00000000
     atom   68 type  4   force =     0.00000000    0.00000000    0.00000000
     atom   69 type  4   force =     0.00000000    0.00000000    0.00000000
     atom   70 type  4   force =     0.00000000    0.00000000    0.00000000
     The SCF correction term to forces
     atom    1 type  2   force =     0.00001151    0.00001223    0.00005274
     atom    2 type  2   force =    -0.00001151   -0.00001223    0.00005274
     atom    3 type  2   force =     0.00002540   -0.00002197   -0.00004042
     atom    4 type  2   force =    -0.00001223    0.00001151    0.00005274
     atom    5 type  2   force =     0.00001223   -0.00001151    0.00005274
     atom    6 type  2   force =     0.00002197    0.00002540   -0.00004042
     atom    7 type  2   force =    -0.00002197   -0.00002540   -0.00004042
     atom    8 type  2   force =    -0.00002540    0.00002197   -0.00004042
     atom    9 type  5   force =    -0.00000000   -0.00000000   -0.00006043
     atom   10 type  5   force =     0.00000000    0.00000000   -0.00005122
     atom   11 type  5   force =     0.00000000   -0.00000000    0.00011499
     atom   12 type  5   force =     0.00000000    0.00000000   -0.00000176
     atom   13 type  1   force =    -0.00000061   -0.00000573   -0.00001006
     atom   14 type  1   force =    -0.00000056   -0.00000729   -0.00000919
     atom   15 type  1   force =     0.00000052   -0.00000044    0.00000823
     atom   16 type  1   force =    -0.00000052    0.00000044    0.00000823
     atom   17 type  1   force =    -0.00000719    0.00000571   -0.00000004
     atom   18 type  1   force =     0.00000719   -0.00000571   -0.00000004
     atom   19 type  1   force =     0.00000571    0.00000719   -0.00000004
     atom   20 type  1   force =    -0.00000571   -0.00000719   -0.00000004
     atom   21 type  1   force =     0.00001228   -0.00000831   -0.00000240
     atom   22 type  1   force =     0.00000831    0.00001228   -0.00000240
     atom   23 type  1   force =     0.00000729   -0.00000056   -0.00000919
     atom   24 type  1   force =    -0.00000197   -0.00000117    0.00001046
     atom   25 type  1   force =     0.00000197    0.00000117    0.00001046
     atom   26 type  1   force =     0.00000050    0.00000173   -0.00000324
     atom   27 type  1   force =    -0.00000050   -0.00000173   -0.00000324
     atom   28 type  1   force =    -0.00000173    0.00000050   -0.00000324
     atom   29 type  1   force =     0.00000173   -0.00000050   -0.00000324
     atom   30 type  1   force =    -0.00000069    0.00000248   -0.00000141
     atom   31 type  1   force =     0.00000248    0.00000069   -0.00000141
     atom   32 type  1   force =     0.00000573   -0.00000061   -0.00001006
     atom   33 type  1   force =     0.00000117   -0.00000197    0.00001046
     atom   34 type  1   force =    -0.00000117    0.00000197    0.00001046
     atom   35 type  1   force =     0.00000044    0.00000052    0.00000823
     atom   36 type  1   force =    -0.00000044   -0.00000052    0.00000823
     atom   37 type  1   force =    -0.00000573    0.00000061   -0.00001006
     atom   38 type  1   force =    -0.00000248   -0.00000069   -0.00000141
     atom   39 type  1   force =     0.00000069   -0.00000248   -0.00000141
     atom   40 type  1   force =    -0.00000729    0.00000056   -0.00000919
     atom   41 type  1   force =    -0.00000831   -0.00001228   -0.00000240
     atom   42 type  1   force =    -0.00001228    0.00000831   -0.00000240
     atom   43 type  1   force =     0.00000056    0.00000729   -0.00000919
     atom   44 type  1   force =     0.00000061    0.00000573   -0.00001006
     atom   45 type  3   force =    -0.00000669   -0.00002871   -0.00005801
     atom   46 type  3   force =    -0.00000203   -0.00000663    0.00005484
     atom   47 type  3   force =     0.00000203    0.00000663    0.00005484
     atom   48 type  3   force =     0.00002209    0.00003221    0.00001933
     atom   49 type  3   force =    -0.00002209   -0.00003221    0.00001933
     atom   50 type  3   force =     0.00004323   -0.00002154   -0.00000748
     atom   51 type  3   force =    -0.00003221    0.00002209    0.00001933
     atom   52 type  3   force =     0.00003221   -0.00002209    0.00001933
     atom   53 type  3   force =     0.00002154    0.00004323   -0.00000748
     atom   54 type  3   force =     0.00002871   -0.00000669   -0.00005801
     atom   55 type  3   force =    -0.00000663    0.00000203    0.00005484
     atom   56 type  3   force =     0.00000663   -0.00000203    0.00005484
     atom   57 type  3   force =    -0.00002871    0.00000669   -0.00005801
     atom   58 type  3   force =    -0.00002154   -0.00004323   -0.00000748
     atom   59 type  3   force =    -0.00004323    0.00002154   -0.00000748
     atom   60 type  3   force =     0.00000669    0.00002871   -0.00005801
     atom   61 type  6   force =     0.00000000    0.00000000    0.00019439
     atom   62 type  6   force =    -0.00000000   -0.00000000   -0.00020649
     atom   63 type  4   force =     0.00001387    0.00005806    0.00008841
     atom   64 type  4   force =    -0.00001387   -0.00005806    0.00008841
     atom   65 type  4   force =     0.00004592   -0.00002152   -0.00008729
     atom   66 type  4   force =    -0.00005806    0.00001387    0.00008841
     atom   67 type  4   force =     0.00005806   -0.00001387    0.00008841
     atom   68 type  4   force =     0.00002152    0.00004592   -0.00008729
     atom   69 type  4   force =    -0.00002152   -0.00004592   -0.00008729
     atom   70 type  4   force =    -0.00004592    0.00002152   -0.00008729

     Total force =     0.004711     Total SCF correction =     0.000509
     SCF correction compared to forces is large: reduce conv_thr to get better values


     entering subroutine stress ...

          total   stress  (Ry/bohr**3)                   (kbar)     P=   13.41
   0.00004789   0.00000000   0.00000000          7.05      0.00      0.00
  -0.00000000   0.00004789   0.00000000         -0.00      7.05      0.00
   0.00000000   0.00000000   0.00017761          0.00      0.00     26.13

     kinetic stress (kbar)   7597.85      0.00      0.00
                                0.00   7597.85      0.00
                                0.00      0.00   7666.68

     local   stress (kbar)  -8078.56     -0.00      0.00
                               -0.00  -8078.56      0.00
                                0.00      0.00  -7609.58

     nonloc. stress (kbar)   3261.93      0.00      0.00
                                0.00   3261.93      0.00
                                0.00      0.00   3258.70

     hartree stress (kbar)   3419.88      0.00      0.00
                                0.00   3419.88      0.00
                                0.00      0.00   3325.07

     exc-cor stress (kbar)    625.70     -0.00     -0.00
                               -0.00    625.70     -0.00
                               -0.00     -0.00    625.57

     corecor stress (kbar)  -2742.70     -0.00      0.00
                               -0.00  -2742.70      0.00
                                0.00      0.00  -2759.36

     ewald   stress (kbar)  -4077.06      0.00     -0.00
                                0.00  -4077.06     -0.00
                               -0.00     -0.00  -4480.96

     hubbard stress (kbar)      0.00      0.00      0.00
                                0.00      0.00      0.00
                                0.00      0.00      0.00

     london  stress (kbar)      0.00      0.00      0.00
                                0.00      0.00      0.00
                                0.00      0.00      0.00

     dft-nl  stress (kbar)      0.00      0.00      0.00
                                0.00      0.00      0.00
                                0.00      0.00      0.00



     BFGS Geometry Optimization

     bfgs converged in   1 scf cycles and   0 bfgs steps
     (criteria: energy < 0.10E-03, force < 0.10E-02)

     End of BFGS Geometry Optimization

     Final energy   =   -1856.9457445326 Ry
Begin final coordinates

ATOMIC_POSITIONS (crystal)
C        0.152448313   0.307541357   0.080233243
C       -0.152448313  -0.307541357   0.080233243
C        0.192464312   0.652459677   0.580219964
C       -0.307541357   0.152448313   0.080233243
C        0.307541357  -0.152448313   0.080233243
C        0.347540323   0.192464312   0.580219964
C        0.652459677   0.807535688   0.580219964
C        0.807535688   0.347540323   0.580219964
Cl       0.000000000   0.000000000  -0.323403747
Cl       0.000000000   0.000000000   0.309915509
Cl       0.500000000   0.500000000   0.176598075
Cl       0.500000000   0.500000000   0.809919883
H        0.025315953   0.669941067   0.441279432
H        0.027073347   0.790490330   0.587610239
H        0.169935543   0.474686931  -0.058727273
H       -0.169935543  -0.474686931  -0.058727273
H       -0.209719269   0.220687791  -0.234407475
H        0.209719269  -0.220687791  -0.234407475
H        0.220687791   0.209719269  -0.234407475
H       -0.220687791  -0.209719269  -0.234407475
H        0.154793147   0.844130821   0.237165890
H        0.155869179   0.154793147   0.237165890
H        0.209509670   0.027073347   0.587610239
H        0.290472689   0.472944936   0.087613647
H       -0.290472689  -0.472944936   0.087613647
H        0.344140762   0.345206053  -0.262812868
H       -0.344140762  -0.345206053  -0.262812868
H       -0.345206053   0.344140762  -0.262812868
H        0.345206053  -0.344140762  -0.262812868
H        0.279310059   0.290283271   0.265599563
H        0.290283271   0.720689941   0.265599563
H        0.330058933   0.025315953   0.441279432
H       -0.472944936   0.290472689   0.087613647
H        0.472944936  -0.290472689   0.087613647
H       -0.474686931   0.169935543  -0.058727273
H        0.474686931  -0.169935543  -0.058727273
H        0.669941067   0.974684047   0.441279432
H        0.709716729   0.279310059   0.265599563
H        0.720689941   0.709716729   0.265599563
H        0.790490330   0.972926653   0.587610239
H        0.844130821   0.845206853   0.237165890
H        0.845206853   0.155869179   0.237165890
H        0.972926653   0.209509670   0.587610239
H        0.974684047   0.330058933   0.441279432
N        0.066052579   0.700000662   0.540362083
N        0.200001842   0.433969138   0.040380852
N       -0.200001842  -0.433969138   0.040380852
N        0.200453828   0.247353518   0.203597137
N       -0.200453828  -0.247353518   0.203597137
N        0.252652225   0.700436806   0.703615924
N       -0.247353518   0.200453828   0.203597137
N        0.247353518  -0.200453828   0.203597137
N        0.299563194   0.252652225   0.703615924
N        0.299999338   0.066052579   0.540362083
N        0.433969138  -0.200001842   0.040380852
N       -0.433969138   0.200001842   0.040380852
N        0.700000662   0.933947421   0.540362083
N        0.700436806   0.747347775   0.703615924
N        0.747347775   0.299563194   0.703615924
N        0.933947421   0.299999338   0.540362083
Ni       0.000000000   0.000000000   0.014530421
Ni       0.500000000   0.500000000   0.514486875
S        0.028505120   0.227882183  -0.031160929
S       -0.028505120  -0.227882183  -0.031160929
S        0.272104999   0.528509150   0.468818819
S       -0.227882183   0.028505120  -0.031160929
S        0.227882183  -0.028505120  -0.031160929
S        0.471490850   0.272104999   0.468818819
S        0.528509150   0.727895001   0.468818819
S        0.727895001   0.471490850   0.468818819
End final coordinates



     Writing output data file run-mystery.save

     init_run     :     16.01s CPU     16.14s WALL (       1 calls)
     electrons    :    287.27s CPU    298.87s WALL (       1 calls)
     forces       :     23.35s CPU     23.39s WALL (       1 calls)
     stress       :     78.47s CPU     78.56s WALL (       1 calls)

     Called by init_run:
     wfcinit      :      0.00s CPU      0.00s WALL (       1 calls)
     potinit      :      1.06s CPU      1.08s WALL (       1 calls)

     Called by electrons:
     c_bands      :    249.04s CPU    260.38s WALL (       4 calls)
     sum_band     :     18.65s CPU     18.80s WALL (       4 calls)
     v_of_rho     :      0.89s CPU      0.90s WALL (       4 calls)
     v_h          :      0.07s CPU      0.07s WALL (       4 calls)
     v_xc         :      1.24s CPU      1.25s WALL (       6 calls)
     newd         :     20.20s CPU     20.26s WALL (       4 calls)
     mix_rho      :      0.11s CPU      0.12s WALL (       4 calls)

     Called by c_bands:
     init_us_2    :      0.74s CPU      0.75s WALL (      80 calls)
     cegterg      :    247.93s CPU    248.90s WALL (      32 calls)

     Called by sum_band:
     sum_band:bec :      0.09s CPU      0.08s WALL (      32 calls)
     addusdens    :      5.89s CPU      5.89s WALL (       4 calls)

     Called by *egterg:
     h_psi        :    131.65s CPU    132.27s WALL (     402 calls)
     s_psi        :     13.29s CPU     13.32s WALL (     402 calls)
     g_psi        :      0.42s CPU      0.42s WALL (     370 calls)
     cdiaghg      :     46.47s CPU     46.57s WALL (     386 calls)
     cegterg:over :     22.65s CPU     22.71s WALL (     370 calls)
     cegterg:upda :     18.11s CPU     18.21s WALL (     370 calls)
     cegterg:last :     11.34s CPU     11.36s WALL (      72 calls)
     cdiaghg:chol :      2.85s CPU      2.86s WALL (     386 calls)
     cdiaghg:inve :      2.88s CPU      2.88s WALL (     386 calls)
     cdiaghg:para :      6.45s CPU      6.48s WALL (     772 calls)

     Called by h_psi:
     h_psi:vloc   :    101.79s CPU    102.34s WALL (     402 calls)
     h_psi:vnl    :     29.10s CPU     29.19s WALL (     402 calls)
     add_vuspsi   :     13.87s CPU     13.93s WALL (     402 calls)

     General routines
     calbec       :     18.16s CPU     18.19s WALL (     450 calls)
     fft          :      1.74s CPU      1.75s WALL (      88 calls)
     ffts         :      0.02s CPU      0.02s WALL (       8 calls)
     fftw         :     80.03s CPU     80.48s WALL (   57008 calls)
     interpolate  :      0.14s CPU      0.14s WALL (       8 calls)
     davcio       :      0.01s CPU     10.50s WALL (     112 calls)

     Parallel routines
     fft_scatter  :     32.02s CPU     32.75s WALL (   57104 calls)

     PAW routines
     PAW_pot      :      2.42s CPU      2.42s WALL (       4 calls)
     PAW_ddot     :      0.03s CPU      0.04s WALL (       6 calls)
     PAW_symme    :      0.01s CPU      0.01s WALL (       7 calls)

     PWSCF        :  6m47.59s CPU     6m59.69s WALL


   This run was terminated on:  11:37:41  13Oct2013            

=------------------------------------------------------------------------------=
   JOB DONE.
=------------------------------------------------------------------------------=
