
     Program PWSCF v.5.3.0 (svn rev. 11974) starts on 25Jun2016 at  7:28:36 

     This program is part of the open-source Quantum ESPRESSO suite
     for quantum simulation of materials; please cite
         "P. Giannozzi et al., J. Phys.:Condens. Matter 21 395502 (2009);
          URL http://www.quantum-espresso.org", 
     in publications or presentations arising from this work. More details at
     http://www.quantum-espresso.org/quote

     Parallel version (MPI), running on     8 processors
     R & G space division:  proc/nbgrp/npool/nimage =       8
     Waiting for input...
     Reading input from standard input
Warning: card    &IONS ignored
Warning: card TRUST_RADIUS_MAX=0.2 ignored
Warning: card / ignored
Warning: card     &CELL ignored
Warning: card CELL_DYNAMICS='BFGS' ignored
Warning: card / ignored

     Current dimensions of program PWSCF are:
     Max number of different atomic species (ntypx) = 10
     Max number of k-points (npk) =  40000
     Max angular momentum in pseudopotentials (lmaxx) =  3
               file N.pbe-n-kjpaw_psl.1.0.0.UPF: wavefunction(s)  2S renormalized
               file C.pbe-n-kjpaw_psl.1.0.0.UPF: wavefunction(s)  2S 2P renormalized
               file H.pbe-kjpaw_psl.1.0.0.UPF: wavefunction(s)  1S renormalized
               file O.pbe-n-kjpaw_psl.1.0.0.UPF: wavefunction(s)  2S 2P renormalized

     Subspace diagonalization in iterative solution of the eigenvalue problem:
     a serial algorithm will be used


     Parallelization info
     --------------------
     sticks:   dense  smooth     PW     G-vecs:    dense   smooth      PW
     Min        1535     614    165               108329    27402    3851
     Max        1536     615    166               108331    27426    3854
     Sum       12287    4919   1323               866645   219309   30821


     Title: 
     HMX-scf--kp-444-ec-60-300K                                                 


     bravais-lattice index     =            0
     lattice parameter (alat)  =       1.8897  a.u.
     unit-cell volume          =    3491.9260 (a.u.)^3
     number of atoms/cell      =           56
     number of atomic types    =            4
     number of electrons       =       224.00
     number of Kohn-Sham states=          112
     kinetic-energy cutoff     =      60.0000  Ry
     charge density cutoff     =     600.0000  Ry
     convergence threshold     =      1.0E-06
     mixing beta               =       0.7000
     number of iterations used =            8  plain     mixing
     Exchange-correlation      =  SLA  PW   PBX  PBC ( 1  4  3  4 0 0)

     celldm(1)=   1.889726  celldm(2)=   0.000000  celldm(3)=   0.000000
     celldm(4)=   0.000000  celldm(5)=   0.000000  celldm(6)=   0.000000

     crystal axes: (cart. coord. in units of alat)
               a(1) = (   6.525500   0.000000   0.000000 )  
               a(2) = (   0.000000  11.036900   0.000000 )  
               a(3) = (  -1.615186   0.000000   7.184683 )  

     reciprocal axes: (cart. coord. in units 2 pi/alat)
               b(1) = (  0.153245 -0.000000  0.034451 )  
               b(2) = (  0.000000  0.090605 -0.000000 )  
               b(3) = (  0.000000  0.000000  0.139185 )  


     PseudoPot. # 1 for  N read from file:
     /users/majewski/.data/PSEUDOPOTENTIALS/N.pbe-n-kjpaw_psl.1.0.0.UPF
     MD5 check sum: c21df8f53e59d08c3548513d559cdda6
     Pseudo is Projector augmented-wave + core cor, Zval =  5.0
     Generated using "atomic" code by A. Dal Corso  v.5.3.0 svn rev. 11974
     Shape of augmentation charge: PSQ
     Using radial grid of 1085 points,  4 beta functions with: 
                l(1) =   0
                l(2) =   0
                l(3) =   1
                l(4) =   1
     Q(r) pseudized with 0 coefficients 


     PseudoPot. # 2 for  C read from file:
     /users/majewski/.data/PSEUDOPOTENTIALS/C.pbe-n-kjpaw_psl.1.0.0.UPF
     MD5 check sum: 2ba8448e293caca687844dde9a1b88a8
     Pseudo is Projector augmented-wave + core cor, Zval =  4.0
     Generated using "atomic" code by A. Dal Corso  v.5.3.0 svn rev. 11974
     Shape of augmentation charge: PSQ
     Using radial grid of 1073 points,  4 beta functions with: 
                l(1) =   0
                l(2) =   0
                l(3) =   1
                l(4) =   1
     Q(r) pseudized with 0 coefficients 


     PseudoPot. # 3 for  H read from file:
     /users/majewski/.data/PSEUDOPOTENTIALS/H.pbe-kjpaw_psl.1.0.0.UPF
     MD5 check sum: bc0feb48a24907a0b97fa6ee2d589a29
     Pseudo is Projector augmented-wave, Zval =  1.0
     Generated using "atomic" code by A. Dal Corso  v.5.3.0 svn rev. 11974
     Shape of augmentation charge: PSQ
     Using radial grid of  929 points,  2 beta functions with: 
                l(1) =   0
                l(2) =   0
     Q(r) pseudized with 0 coefficients 


     PseudoPot. # 4 for  O read from file:
     /users/majewski/.data/PSEUDOPOTENTIALS/O.pbe-n-kjpaw_psl.1.0.0.UPF
     MD5 check sum: 9c0ade6c043cf4a781bde3908a3a8206
     Pseudo is Projector augmented-wave + core cor, Zval =  6.0
     Generated using "atomic" code by A. Dal Corso  v.5.3.0 svn rev. 11974
     Shape of augmentation charge: PSQ
     Using radial grid of 1095 points,  4 beta functions with: 
                l(1) =   0
                l(2) =   0
                l(3) =   1
                l(4) =   1
     Q(r) pseudized with 0 coefficients 


     atomic species   valence    mass     pseudopotential
        N              5.00    14.00670      N( 1.00)
        C              4.00    12.01100      C( 1.00)
        H              1.00     1.00790      H( 1.00)
        O              6.00    15.99940      O( 1.00)

      4 Sym. Ops., with inversion, found ( 2 have fractional translation)


                                    s                        frac. trans.

      isym =  1     identity                                     

 cryst.   s( 1) = (     1          0          0      )
                  (     0          1          0      )
                  (     0          0          1      )

 cart.    s( 1) = (  1.0000000  0.0000000  0.0000000 )
                  (  0.0000000  1.0000000  0.0000000 )
                  (  0.0000000  0.0000000  1.0000000 )


      isym =  2     180 deg rotation - cart. axis [0,1,0]        

 cryst.   s( 2) = (    -1          0          0      )    f =(  0.5000000 )
                  (     0          1          0      )       (  0.5000000 )
                  (     0          0         -1      )       (  0.5000000 )

 cart.    s( 2) = ( -1.0000000  0.0000000 -0.0000000 )    f =(  2.4551571 )
                  (  0.0000000  1.0000000  0.0000000 )       (  5.5184500 )
                  (  0.0000000  0.0000000 -1.0000000 )       (  3.5923415 )


      isym =  3     inversion                                    

 cryst.   s( 3) = (    -1          0          0      )
                  (     0         -1          0      )
                  (     0          0         -1      )

 cart.    s( 3) = ( -1.0000000  0.0000000 -0.0000000 )
                  (  0.0000000 -1.0000000  0.0000000 )
                  (  0.0000000  0.0000000 -1.0000000 )


      isym =  4     inv. 180 deg rotation - cart. axis [0,1,0]   

 cryst.   s( 4) = (     1          0          0      )    f =(  0.5000000 )
                  (     0         -1          0      )       (  0.5000000 )
                  (     0          0          1      )       ( -0.5000000 )

 cart.    s( 4) = (  1.0000000  0.0000000  0.0000000 )    f =(  4.0703429 )
                  (  0.0000000 -1.0000000  0.0000000 )       (  5.5184500 )
                  (  0.0000000  0.0000000  1.0000000 )       ( -3.5923415 )


   Cartesian axes

     site n.     atom                  positions (alat units)
         1           N   tau(   1) = (  -0.8668413   6.8692562   3.3186051  )
         2           O   tau(   2) = (   1.0599706   7.9401666   3.1425804  )
         3           N   tau(   3) = (   0.0533091   7.7556296   3.8208145  )
         4           N   tau(   4) = (  -2.0680987   5.7890748   5.0659200  )
         5           O   tau(   5) = (  -3.2533088   4.7280976   6.6225535  )
         6           N   tau(   6) = (  -3.2451729   5.5281625   5.7010460  )
         7           O   tau(   7) = (  -0.1871403   8.2413636   4.9136048  )
         8           C   tau(   8) = (  -2.1362925   6.7804091   3.9788775  )
         9           H   tau(   9) = (  -2.8191539   6.5194968   3.3415961  )
        10           H   tau(  10) = (  -2.3765906   7.6474680   4.3424225  )
        11           O   tau(  11) = (  -4.2135894   6.1790085   5.3101993  )
        12           C   tau(  12) = (  -0.5998445   6.2495343   2.0325468  )
        13           H   tau(  13) = (  -1.4176786   5.8230684   1.7315086  )
        14           H   tau(  14) = (  -0.3318567   6.8947514   1.3600605  )
        15           H   tau(  15) = (   2.1233004  -1.3763014   4.9524020  )
        16           H   tau(  16) = (   1.0374785  -0.3046184   5.3238502  )
        17           C   tau(  17) = (   1.8553126  -0.7310843   5.6248884  )
        18           O   tau(  18) = (  -1.7584323  -0.6605585   8.9025408  )
        19           H   tau(  19) = (   0.0785665  -2.1290180   7.9347640  )
        20           H   tau(  20) = (  -0.3639967  -1.0010468   6.9339376  )
        21           C   tau(  21) = (   0.3188646  -1.2619591   7.5712190  )
        22           O   tau(  22) = (   2.2680169  -2.7229136   8.5059463  )
        23           N   tau(  23) = (  -0.7900158  -0.0097125   9.2933876  )
        24           O   tau(  24) = (  -0.7981517   0.7903524  10.2148950  )
        25           N   tau(  25) = (   0.3870584  -0.2706248   8.6582616  )
        26           N   tau(  26) = (   2.5084662  -2.2371796   7.4131560  )
        27           O   tau(  27) = (   3.5151277  -2.4217166   6.7349219  )
        28           N   tau(  28) = (   1.5883158  -1.3508062   6.9109467  )
        29           H   tau(  29) = (  -1.2833291   4.1421486   5.8246226  )
        30           H   tau(  30) = (  -0.1975072   5.2138316   5.4531745  )
        31           C   tau(  31) = (  -1.0153413   4.7873657   5.1521362  )
        32           O   tau(  32) = (   2.5984037   4.8578915   1.8744838  )
        33           H   tau(  33) = (   0.7614048   3.3894320   2.8422606  )
        34           H   tau(  34) = (   1.2039681   4.5174032   3.8430870  )
        35           C   tau(  35) = (   0.5211068   4.2564909   3.2058056  )
        36           O   tau(  36) = (  -1.4280455   2.7955364   2.2710783  )
        37           N   tau(  37) = (   1.6299871   5.5087375   1.4836371  )
        38           O   tau(  38) = (   1.6381231   6.3088024   0.5621296  )
        39           N   tau(  39) = (   0.4529129   5.2478252   2.1187630  )
        40           N   tau(  40) = (  -1.6684949   3.2812704   3.3638686  )
        41           O   tau(  41) = (  -2.6751564   3.0967334   4.0421027  )
        42           N   tau(  42) = (  -0.7483445   4.1676438   3.8660780  )
        43           H   tau(  43) = (   1.1718280   1.3763014   9.4169641  )
        44           H   tau(  44) = (   2.2576499   0.3046184   9.0455160  )
        45           C   tau(  45) = (   1.4398158   0.7310843   8.7444778  )
        46           O   tau(  46) = (   5.0535608   0.6605585   5.4668254  )
        47           H   tau(  47) = (   3.2165619   2.1290180   6.4346022  )
        48           H   tau(  48) = (   3.6591252   1.0010468   7.4354285  )
        49           C   tau(  49) = (   2.9762639   1.2619591   6.7981471  )
        50           O   tau(  50) = (   1.0271116   2.7229136   5.8634199  )
        51           N   tau(  51) = (   4.0851442   0.0097125   5.0759786  )
        52           O   tau(  52) = (   4.0932802  -0.7903524   4.1544711  )
        53           N   tau(  53) = (   2.9080700   0.2706248   5.7111046  )
        54           N   tau(  54) = (   0.7866622   2.2371796   6.9562102  )
        55           O   tau(  55) = (  -0.2199993   2.4217166   7.6344442  )
        56           N   tau(  56) = (   1.7068126   1.3508062   7.4584195  )

   Crystallographic axes

     site n.     atom                  positions (cryst. coord.)
         1           N   tau(   1) = ( -0.0185100  0.6223900  0.4619000  )
         2           O   tau(   2) = (  0.2707000  0.7194200  0.4374000  )
         3           N   tau(   3) = (  0.1398000  0.7027000  0.5318000  )
         4           N   tau(   4) = ( -0.1424000  0.5245200  0.7051000  )
         5           O   tau(   5) = ( -0.2704000  0.4283900  0.9217600  )
         6           N   tau(   6) = ( -0.3009000  0.5008800  0.7935000  )
         7           O   tau(   7) = (  0.1406000  0.7467100  0.6839000  )
         8           C   tau(   8) = ( -0.1903000  0.6143400  0.5538000  )
         9           H   tau(   9) = ( -0.3169000  0.5907000  0.4651000  )
        10           H   tau(  10) = ( -0.2146000  0.6929000  0.6044000  )
        11           O   tau(  11) = ( -0.4627700  0.5598500  0.7391000  )
        12           C   tau(  12) = ( -0.0219000  0.5662400  0.2829000  )
        13           H   tau(  13) = ( -0.1576000  0.5276000  0.2410000  )
        14           H   tau(  14) = ( -0.0040000  0.6247000  0.1893000  )
        15           H   tau(  15) = (  0.4960000 -0.1247000  0.6893000  )
        16           H   tau(  16) = (  0.3424000 -0.0276000  0.7410000  )
        17           C   tau(  17) = (  0.4781000 -0.0662400  0.7829000  )
        18           O   tau(  18) = (  0.0372300 -0.0598500  1.2391000  )
        19           H   tau(  19) = (  0.2854000 -0.1929000  1.1044000  )
        20           H   tau(  20) = (  0.1831000 -0.0907000  0.9651000  )
        21           C   tau(  21) = (  0.3097000 -0.1143400  1.0538000  )
        22           O   tau(  22) = (  0.6406000 -0.2467100  1.1839000  )
        23           N   tau(  23) = (  0.1991000 -0.0008800  1.2935000  )
        24           O   tau(  24) = (  0.2296000  0.0716100  1.4217600  )
        25           N   tau(  25) = (  0.3576000 -0.0245200  1.2051000  )
        26           N   tau(  26) = (  0.6398000 -0.2027000  1.0318000  )
        27           O   tau(  27) = (  0.7707000 -0.2194200  0.9374000  )
        28           N   tau(  28) = (  0.4814900 -0.1223900  0.9619000  )
        29           H   tau(  29) = (  0.0040000  0.3753000  0.8107000  )
        30           H   tau(  30) = (  0.1576000  0.4724000  0.7590000  )
        31           C   tau(  31) = (  0.0219000  0.4337600  0.7171000  )
        32           O   tau(  32) = (  0.4627700  0.4401500  0.2609000  )
        33           H   tau(  33) = (  0.2146000  0.3071000  0.3956000  )
        34           H   tau(  34) = (  0.3169000  0.4093000  0.5349000  )
        35           C   tau(  35) = (  0.1903000  0.3856600  0.4462000  )
        36           O   tau(  36) = ( -0.1406000  0.2532900  0.3161000  )
        37           N   tau(  37) = (  0.3009000  0.4991200  0.2065000  )
        38           O   tau(  38) = (  0.2704000  0.5716100  0.0782400  )
        39           N   tau(  39) = (  0.1424000  0.4754800  0.2949000  )
        40           N   tau(  40) = ( -0.1398000  0.2973000  0.4682000  )
        41           O   tau(  41) = ( -0.2707000  0.2805800  0.5626000  )
        42           N   tau(  42) = (  0.0185100  0.3776100  0.5381000  )
        43           H   tau(  43) = (  0.5040000  0.1247000  1.3107000  )
        44           H   tau(  44) = (  0.6576000  0.0276000  1.2590000  )
        45           C   tau(  45) = (  0.5219000  0.0662400  1.2171000  )
        46           O   tau(  46) = (  0.9627700  0.0598500  0.7609000  )
        47           H   tau(  47) = (  0.7146000  0.1929000  0.8956000  )
        48           H   tau(  48) = (  0.8169000  0.0907000  1.0349000  )
        49           C   tau(  49) = (  0.6903000  0.1143400  0.9462000  )
        50           O   tau(  50) = (  0.3594000  0.2467100  0.8161000  )
        51           N   tau(  51) = (  0.8009000  0.0008800  0.7065000  )
        52           O   tau(  52) = (  0.7704000 -0.0716100  0.5782400  )
        53           N   tau(  53) = (  0.6424000  0.0245200  0.7949000  )
        54           N   tau(  54) = (  0.3602000  0.2027000  0.9682000  )
        55           O   tau(  55) = (  0.2293000  0.2194200  1.0626000  )
        56           N   tau(  56) = (  0.5185100  0.1223900  1.0381000  )

     number of k points=    16
                       cart. coord. in units 2pi/alat
        k(    1) = (   0.0191556   0.0113256   0.0217045), wk =   0.1250000
        k(    2) = (   0.0191556   0.0113256   0.0565007), wk =   0.1250000
        k(    3) = (   0.0191556   0.0113256  -0.0478880), wk =   0.1250000
        k(    4) = (   0.0191556   0.0113256  -0.0130918), wk =   0.1250000
        k(    5) = (   0.0191556   0.0339769   0.0217045), wk =   0.1250000
        k(    6) = (   0.0191556   0.0339769   0.0565007), wk =   0.1250000
        k(    7) = (   0.0191556   0.0339769  -0.0478880), wk =   0.1250000
        k(    8) = (   0.0191556   0.0339769  -0.0130918), wk =   0.1250000
        k(    9) = (   0.0574669   0.0113256   0.0303172), wk =   0.1250000
        k(   10) = (   0.0574669   0.0113256   0.0651135), wk =   0.1250000
        k(   11) = (   0.0574669   0.0113256  -0.0392753), wk =   0.1250000
        k(   12) = (   0.0574669   0.0113256  -0.0044790), wk =   0.1250000
        k(   13) = (   0.0574669   0.0339769   0.0303172), wk =   0.1250000
        k(   14) = (   0.0574669   0.0339769   0.0651135), wk =   0.1250000
        k(   15) = (   0.0574669   0.0339769  -0.0392753), wk =   0.1250000
        k(   16) = (   0.0574669   0.0339769  -0.0044790), wk =   0.1250000

                       cryst. coord.
        k(    1) = (   0.1250000   0.1250000   0.1250000), wk =   0.1250000
        k(    2) = (   0.1250000   0.1250000   0.3750000), wk =   0.1250000
        k(    3) = (   0.1250000   0.1250000  -0.3750000), wk =   0.1250000
        k(    4) = (   0.1250000   0.1250000  -0.1250000), wk =   0.1250000
        k(    5) = (   0.1250000   0.3750000   0.1250000), wk =   0.1250000
        k(    6) = (   0.1250000   0.3750000   0.3750000), wk =   0.1250000
        k(    7) = (   0.1250000   0.3750000  -0.3750000), wk =   0.1250000
        k(    8) = (   0.1250000   0.3750000  -0.1250000), wk =   0.1250000
        k(    9) = (   0.3750000   0.1250000   0.1250000), wk =   0.1250000
        k(   10) = (   0.3750000   0.1250000   0.3750000), wk =   0.1250000
        k(   11) = (   0.3750000   0.1250000  -0.3750000), wk =   0.1250000
        k(   12) = (   0.3750000   0.1250000  -0.1250000), wk =   0.1250000
        k(   13) = (   0.3750000   0.3750000   0.1250000), wk =   0.1250000
        k(   14) = (   0.3750000   0.3750000   0.3750000), wk =   0.1250000
        k(   15) = (   0.3750000   0.3750000  -0.3750000), wk =   0.1250000
        k(   16) = (   0.3750000   0.3750000  -0.1250000), wk =   0.1250000

     Dense  grid:   866645 G-vectors     FFT dimensions: ( 100, 180, 120)

     Smooth grid:   219309 G-vectors     FFT dimensions: (  64, 108,  72)

     Largest allocated arrays     est. size (Mb)     dimensions
        Kohn-Sham Wavefunctions         5.85 Mb     (    3421,  112)
        NL pseudopotentials            18.37 Mb     (    3421,  352)
        Each V/rho on FFT grid          4.12 Mb     (  270000)
        Each G-vector array             0.83 Mb     (  108331)
        G-vector shells                 0.76 Mb     (   99610)
     Largest temporary arrays     est. size (Mb)     dimensions
        Auxiliary wavefunctions        23.39 Mb     (    3421,  448)
        Each subspace H/S matrix        3.06 Mb     (     448,  448)
        Each <psi_i|beta_j> matrix      0.60 Mb     (     352,  112)
        Arrays for rho mixing          32.96 Mb     (  270000,    8)

     Check: negative/imaginary core charge=   -0.000001    0.000000

     Initial potential from superposition of free atoms

     starting charge  223.99937, renormalised to  224.00000
     Starting wfc are  176 randomized atomic wfcs
     Checking if some PAW data can be deallocated... 
       node    0, deallocated PAW data for type:  2
       node    0, deallocated PAW data for type:  3
       node    1, deallocated PAW data for type:  1
       node    2, deallocated PAW data for type:  1
       node    3, deallocated PAW data for type:  2
       node    3, deallocated PAW data for type:  3
       node    4, deallocated PAW data for type:  1
       node    5, deallocated PAW data for type:  2
       node    5, deallocated PAW data for type:  3
       node    6, deallocated PAW data for type:  1
       node    7, deallocated PAW data for type:  2
       node    7, deallocated PAW data for type:  3

     total cpu time spent up to now is      131.9 secs

     per-process dynamical memory:   191.5 Mb

     Self-consistent Calculation

     iteration #  1     ecut=    60.00 Ry     beta=0.70
     Davidson diagonalization with overlap
     ethr =  1.00E-02,  avg # of iterations =  3.0

     total cpu time spent up to now is      299.7 secs

     total energy              =   -1279.37934130 Ry
     Harris-Foulkes estimate   =   -1283.84664595 Ry
     estimated scf accuracy    <       6.86025236 Ry

     iteration #  2     ecut=    60.00 Ry     beta=0.70
     Davidson diagonalization with overlap
     ethr =  3.06E-03,  avg # of iterations =  4.0

     total cpu time spent up to now is      528.0 secs

     total energy              =   -1280.17730205 Ry
     Harris-Foulkes estimate   =   -1283.85498666 Ry
     estimated scf accuracy    <       7.45845545 Ry

     iteration #  3     ecut=    60.00 Ry     beta=0.70
     Davidson diagonalization with overlap
     ethr =  3.06E-03,  avg # of iterations =  4.0

     total cpu time spent up to now is      694.5 secs

     total energy              =   -1281.76908544 Ry
     Harris-Foulkes estimate   =   -1282.00224199 Ry
     estimated scf accuracy    <       0.43065822 Ry

     iteration #  4     ecut=    60.00 Ry     beta=0.70
     Davidson diagonalization with overlap
     ethr =  1.92E-04,  avg # of iterations =  4.9

     total cpu time spent up to now is      913.0 secs

     total energy              =   -1281.90500128 Ry
     Harris-Foulkes estimate   =   -1282.00060600 Ry
     estimated scf accuracy    <       0.21510774 Ry

     iteration #  5     ecut=    60.00 Ry     beta=0.70
     Davidson diagonalization with overlap
     ethr =  9.60E-05,  avg # of iterations =  4.0

     total cpu time spent up to now is     1081.2 secs

     total energy              =   -1281.94851404 Ry
     Harris-Foulkes estimate   =   -1281.95622161 Ry
     estimated scf accuracy    <       0.01844052 Ry

     iteration #  6     ecut=    60.00 Ry     beta=0.70
     Davidson diagonalization with overlap
     ethr =  8.23E-06,  avg # of iterations =  6.5

     total cpu time spent up to now is     1253.9 secs

     total energy              =   -1281.95173235 Ry
     Harris-Foulkes estimate   =   -1281.95363345 Ry
     estimated scf accuracy    <       0.00438666 Ry

     iteration #  7     ecut=    60.00 Ry     beta=0.70
     Davidson diagonalization with overlap
     ethr =  1.96E-06,  avg # of iterations =  4.9

     total cpu time spent up to now is     1424.9 secs

     total energy              =   -1281.95294527 Ry
     Harris-Foulkes estimate   =   -1281.95306396 Ry
     estimated scf accuracy    <       0.00028438 Ry

     iteration #  8     ecut=    60.00 Ry     beta=0.70
     Davidson diagonalization with overlap
     ethr =  1.27E-07,  avg # of iterations =  4.9

     total cpu time spent up to now is     1660.9 secs

     total energy              =   -1281.95304405 Ry
     Harris-Foulkes estimate   =   -1281.95309052 Ry
     estimated scf accuracy    <       0.00010576 Ry

     iteration #  9     ecut=    60.00 Ry     beta=0.70
     Davidson diagonalization with overlap
     ethr =  4.72E-08,  avg # of iterations =  7.1

     total cpu time spent up to now is     1812.5 secs

     total energy              =   -1281.95305437 Ry
     Harris-Foulkes estimate   =   -1281.95305836 Ry
     estimated scf accuracy    <       0.00001030 Ry

     iteration # 10     ecut=    60.00 Ry     beta=0.70
     Davidson diagonalization with overlap
     ethr =  4.60E-09,  avg # of iterations =  5.0

     total cpu time spent up to now is     2085.4 secs

     total energy              =   -1281.95306651 Ry
     Harris-Foulkes estimate   =   -1281.95307787 Ry
     estimated scf accuracy    <       0.00003712 Ry

     iteration # 11     ecut=    60.00 Ry     beta=0.70
     Davidson diagonalization with overlap
     ethr =  4.60E-09,  avg # of iterations =  5.1

     total cpu time spent up to now is     2264.3 secs

     total energy              =   -1281.95306953 Ry
     Harris-Foulkes estimate   =   -1281.95307040 Ry
     estimated scf accuracy    <       0.00000182 Ry

     iteration # 12     ecut=    60.00 Ry     beta=0.70
     Davidson diagonalization with overlap
     ethr =  8.11E-10,  avg # of iterations =  5.0

     total cpu time spent up to now is     2458.1 secs

     End of self-consistent calculation

          k = 0.0192 0.0113 0.0217 ( 27388 PWs)   bands (ev):

   -24.0434 -24.0214 -24.0094 -24.0000 -23.7614 -23.7532 -23.7523 -23.7487
   -19.2688 -19.2633 -19.2570 -19.2449 -18.9538 -18.9533 -18.9500 -18.9488
   -18.3372 -18.3127 -17.3129 -17.2650 -17.1488 -17.1474 -16.1276 -16.1141
   -12.2005 -12.1980 -12.1563 -12.0421 -11.9894 -11.9191 -11.8742 -11.8549
    -8.9539  -8.9154  -8.3716  -8.3369  -7.6459  -7.6094  -7.5340  -7.5318
    -6.9361  -6.8348  -6.6779  -6.6132  -6.5972  -6.4850  -6.4215  -6.3455
    -6.2124  -6.1859  -6.1550  -6.0383  -5.9772  -5.8993  -5.8426  -5.8023
    -5.7454  -5.7241  -5.6279  -5.5927  -5.2034  -5.0925  -5.0161  -4.9991
    -4.5522  -4.5338  -4.5027  -4.4558  -4.3243  -4.2358  -3.9376  -3.9314
    -3.7828  -3.6837  -3.6392  -3.6042  -3.2481  -3.2053  -3.1467  -3.1251
    -0.8627  -0.8593  -0.3823  -0.3811  -0.2826  -0.2299  -0.1680  -0.1481
    -0.0949  -0.0729   0.1038   0.1349   0.1459   0.1746   0.3019   0.3228
     0.3756   0.3943   0.5638   0.6160   0.6999   0.7468   0.7918   0.8222
     0.8414   0.9553   0.9892   1.0530   1.1447   1.2724   1.3001   1.3233

     occupation numbers 
     1.0000   1.0000   1.0000   1.0000   1.0000   1.0000   1.0000   1.0000
     1.0000   1.0000   1.0000   1.0000   1.0000   1.0000   1.0000   1.0000
     1.0000   1.0000   1.0000   1.0000   1.0000   1.0000   1.0000   1.0000
     1.0000   1.0000   1.0000   1.0000   1.0000   1.0000   1.0000   1.0000
     1.0000   1.0000   1.0000   1.0000   1.0000   1.0000   1.0000   1.0000
     1.0000   1.0000   1.0000   1.0000   1.0000   1.0000   1.0000   1.0000
     1.0000   1.0000   1.0000   1.0000   1.0000   1.0000   1.0000   1.0000
     1.0000   1.0000   1.0000   1.0000   1.0000   1.0000   1.0000   1.0000
     1.0000   1.0000   1.0000   1.0000   1.0000   1.0000   1.0000   1.0000
     1.0000   1.0000   1.0000   1.0000   1.0000   1.0000   1.0000   1.0000
     1.0000   1.0000   1.0000   1.0000   1.0000   1.0000   1.0000   1.0000
     1.0000   1.0000   1.0000   1.0000   1.0000   1.0000   1.0000   1.0000
     1.0000   1.0000   1.0000   1.0000   1.0000   1.0000   1.0000   1.0000
     1.0000   1.0000   1.0000   1.0000   1.0000   1.0000   1.0000   1.0000

          k = 0.0192 0.0113 0.0565 ( 27396 PWs)   bands (ev):

   -24.0355 -24.0268 -24.0057 -24.0046 -23.7633 -23.7603 -23.7489 -23.7445
   -19.2671 -19.2624 -19.2576 -19.2482 -18.9592 -18.9584 -18.9456 -18.9437
   -18.3260 -18.3260 -17.2900 -17.2877 -17.1445 -17.1422 -16.1229 -16.1217
   -12.2095 -12.2087 -12.1024 -12.0838 -11.9481 -11.9409 -11.8818 -11.8747
    -8.9344  -8.9002  -8.3539  -8.3306  -7.6590  -7.6134  -7.5160  -7.4449
    -6.9818  -6.8603  -6.6685  -6.6417  -6.6253  -6.5059  -6.4446  -6.4180
    -6.2726  -6.2442  -6.0434  -5.9973  -5.9753  -5.9044  -5.8791  -5.8428
    -5.8042  -5.7494  -5.5520  -5.5115  -5.2070  -5.1294  -5.0108  -4.9746
    -4.5042  -4.4961  -4.4629  -4.3740  -4.2500  -4.2292  -4.0490  -4.0423
    -3.7712  -3.7279  -3.5783  -3.5688  -3.2679  -3.2617  -3.1301  -3.1056
    -0.8296  -0.7981  -0.3953  -0.3867  -0.2893  -0.2511  -0.2042  -0.1773
    -0.1459  -0.1096   0.0034   0.0610   0.1697   0.2154   0.2710   0.2834
     0.4839   0.5397   0.5853   0.6244   0.7047   0.7247   0.7533   0.8037
     0.9146   0.9535   1.0225   1.0469   1.1571   1.2237   1.3049   1.3271

     occupation numbers 
     1.0000   1.0000   1.0000   1.0000   1.0000   1.0000   1.0000   1.0000
     1.0000   1.0000   1.0000   1.0000   1.0000   1.0000   1.0000   1.0000
     1.0000   1.0000   1.0000   1.0000   1.0000   1.0000   1.0000   1.0000
     1.0000   1.0000   1.0000   1.0000   1.0000   1.0000   1.0000   1.0000
     1.0000   1.0000   1.0000   1.0000   1.0000   1.0000   1.0000   1.0000
     1.0000   1.0000   1.0000   1.0000   1.0000   1.0000   1.0000   1.0000
     1.0000   1.0000   1.0000   1.0000   1.0000   1.0000   1.0000   1.0000
     1.0000   1.0000   1.0000   1.0000   1.0000   1.0000   1.0000   1.0000
     1.0000   1.0000   1.0000   1.0000   1.0000   1.0000   1.0000   1.0000
     1.0000   1.0000   1.0000   1.0000   1.0000   1.0000   1.0000   1.0000
     1.0000   1.0000   1.0000   1.0000   1.0000   1.0000   1.0000   1.0000
     1.0000   1.0000   1.0000   1.0000   1.0000   1.0000   1.0000   1.0000
     1.0000   1.0000   1.0000   1.0000   1.0000   1.0000   1.0000   1.0000
     1.0000   1.0000   1.0000   1.0000   1.0000   1.0000   1.0000   1.0000

          k = 0.0192 0.0113-0.0479 ( 27435 PWs)   bands (ev):

   -24.0365 -24.0262 -24.0093 -24.0007 -23.7648 -23.7618 -23.7458 -23.7446
   -19.2648 -19.2633 -19.2542 -19.2532 -18.9606 -18.9603 -18.9437 -18.9421
   -18.3375 -18.3132 -17.3110 -17.2666 -17.1471 -17.1449 -16.1269 -16.1116
   -12.2152 -12.2084 -12.1381 -12.0505 -11.9805 -11.9049 -11.8871 -11.8716
    -8.9439  -8.8629  -8.3420  -8.3393  -7.6546  -7.6397  -7.5291  -7.4187
    -6.9904  -6.8856  -6.6685  -6.6399  -6.5806  -6.5583  -6.4607  -6.4263
    -6.2915  -6.2648  -6.0501  -6.0215  -5.9014  -5.8715  -5.8670  -5.8570
    -5.8055  -5.7388  -5.5538  -5.5062  -5.2005  -5.1291  -4.9974  -4.9702
    -4.5370  -4.4707  -4.4359  -4.3761  -4.2919  -4.2310  -4.0511  -4.0081
    -3.7804  -3.7267  -3.6305  -3.5533  -3.2728  -3.2521  -3.1210  -3.1153
    -0.7675  -0.7095  -0.3857  -0.3779  -0.3354  -0.3080  -0.2398  -0.2163
    -0.1606  -0.1545  -0.0368   0.0455   0.1842   0.2190   0.2306   0.2780
     0.5192   0.6065   0.6249   0.6385   0.6708   0.7635   0.7735   0.7874
     0.9074   0.9608   1.0365   1.0871   1.1640   1.1903   1.2922   1.3112

     occupation numbers 
     1.0000   1.0000   1.0000   1.0000   1.0000   1.0000   1.0000   1.0000
     1.0000   1.0000   1.0000   1.0000   1.0000   1.0000   1.0000   1.0000
     1.0000   1.0000   1.0000   1.0000   1.0000   1.0000   1.0000   1.0000
     1.0000   1.0000   1.0000   1.0000   1.0000   1.0000   1.0000   1.0000
     1.0000   1.0000   1.0000   1.0000   1.0000   1.0000   1.0000   1.0000
     1.0000   1.0000   1.0000   1.0000   1.0000   1.0000   1.0000   1.0000
     1.0000   1.0000   1.0000   1.0000   1.0000   1.0000   1.0000   1.0000
     1.0000   1.0000   1.0000   1.0000   1.0000   1.0000   1.0000   1.0000
     1.0000   1.0000   1.0000   1.0000   1.0000   1.0000   1.0000   1.0000
     1.0000   1.0000   1.0000   1.0000   1.0000   1.0000   1.0000   1.0000
     1.0000   1.0000   1.0000   1.0000   1.0000   1.0000   1.0000   1.0000
     1.0000   1.0000   1.0000   1.0000   1.0000   1.0000   1.0000   1.0000
     1.0000   1.0000   1.0000   1.0000   1.0000   1.0000   1.0000   1.0000
     1.0000   1.0000   1.0000   1.0000   1.0000   1.0000   1.0000   1.0000

          k = 0.0192 0.0113-0.0131 ( 27400 PWs)   bands (ev):

   -24.0438 -24.0215 -24.0105 -23.9983 -23.7639 -23.7560 -23.7486 -23.7470
   -19.2677 -19.2621 -19.2572 -19.2471 -18.9571 -18.9570 -18.9458 -18.9457
   -18.3417 -18.3070 -17.3216 -17.2561 -17.1510 -17.1506 -16.1280 -16.1077
   -12.2074 -12.1990 -12.1671 -12.0429 -11.9886 -11.9105 -11.8706 -11.8549
    -8.9649  -8.8768  -8.3657  -8.3399  -7.6503  -7.6317  -7.5668  -7.4831
    -6.9052  -6.8925  -6.6789  -6.5989  -6.5878  -6.5308  -6.4309  -6.3612
    -6.2576  -6.2200  -6.0904  -6.0438  -5.9400  -5.8921  -5.8247  -5.7998
    -5.7577  -5.7152  -5.6060  -5.5959  -5.1703  -5.1274  -5.0150  -4.9691
    -4.5511  -4.5258  -4.4969  -4.4776  -4.3279  -4.2463  -3.9414  -3.8849
    -3.8223  -3.6905  -3.6530  -3.6048  -3.2522  -3.2030  -3.1404  -3.1295
    -0.8175  -0.7939  -0.3741  -0.3688  -0.2824  -0.2484  -0.1741  -0.1620
    -0.1497  -0.1136  -0.0083   0.0539   0.1195   0.1916   0.2490   0.3140
     0.4950   0.5346   0.5553   0.6419   0.6890   0.7521   0.8050   0.8190
     0.8515   0.9351   1.0156   1.0811   1.1440   1.2561   1.2869   1.3073

     occupation numbers 
     1.0000   1.0000   1.0000   1.0000   1.0000   1.0000   1.0000   1.0000
     1.0000   1.0000   1.0000   1.0000   1.0000   1.0000   1.0000   1.0000
     1.0000   1.0000   1.0000   1.0000   1.0000   1.0000   1.0000   1.0000
     1.0000   1.0000   1.0000   1.0000   1.0000   1.0000   1.0000   1.0000
     1.0000   1.0000   1.0000   1.0000   1.0000   1.0000   1.0000   1.0000
     1.0000   1.0000   1.0000   1.0000   1.0000   1.0000   1.0000   1.0000
     1.0000   1.0000   1.0000   1.0000   1.0000   1.0000   1.0000   1.0000
     1.0000   1.0000   1.0000   1.0000   1.0000   1.0000   1.0000   1.0000
     1.0000   1.0000   1.0000   1.0000   1.0000   1.0000   1.0000   1.0000
     1.0000   1.0000   1.0000   1.0000   1.0000   1.0000   1.0000   1.0000
     1.0000   1.0000   1.0000   1.0000   1.0000   1.0000   1.0000   1.0000
     1.0000   1.0000   1.0000   1.0000   1.0000   1.0000   1.0000   1.0000
     1.0000   1.0000   1.0000   1.0000   1.0000   1.0000   1.0000   1.0000
     1.0000   1.0000   1.0000   1.0000   1.0000   1.0000   1.0000   1.0000

          k = 0.0192 0.0340 0.0217 ( 27410 PWs)   bands (ev):

   -24.0382 -24.0297 -24.0048 -24.0016 -23.7580 -23.7541 -23.7521 -23.7511
   -19.2684 -19.2667 -19.2516 -19.2472 -18.9537 -18.9535 -18.9496 -18.9491
   -18.3303 -18.3201 -17.2988 -17.2790 -17.1484 -17.1477 -16.1236 -16.1180
   -12.2001 -12.1991 -12.1327 -12.0914 -11.9523 -11.9287 -11.8691 -11.8609
    -8.9435  -8.9275  -8.3622  -8.3478  -7.6384  -7.6228  -7.5271  -7.5261
    -6.9130  -6.8679  -6.6322  -6.6076  -6.6009  -6.5357  -6.3994  -6.3745
    -6.2221  -6.2052  -6.0860  -6.0481  -5.9793  -5.9436  -5.8436  -5.8299
    -5.7127  -5.7007  -5.6098  -5.5924  -5.1620  -5.0993  -5.0515  -5.0303
    -4.5567  -4.5485  -4.4640  -4.4437  -4.3135  -4.2685  -3.9309  -3.9261
    -3.7579  -3.7132  -3.6298  -3.6115  -3.2393  -3.2226  -3.1361  -3.1283
    -0.8587  -0.8568  -0.3746  -0.3690  -0.2931  -0.2584  -0.1891  -0.1823
    -0.0638  -0.0564   0.1265   0.1366   0.1661   0.1729   0.3250   0.3298
     0.3534   0.3714   0.5784   0.6046   0.6857   0.7027   0.8089   0.8287
     0.8813   0.9274   1.0162   1.0409   1.1786   1.2302   1.3108   1.3185

     occupation numbers 
     1.0000   1.0000   1.0000   1.0000   1.0000   1.0000   1.0000   1.0000
     1.0000   1.0000   1.0000   1.0000   1.0000   1.0000   1.0000   1.0000
     1.0000   1.0000   1.0000   1.0000   1.0000   1.0000   1.0000   1.0000
     1.0000   1.0000   1.0000   1.0000   1.0000   1.0000   1.0000   1.0000
     1.0000   1.0000   1.0000   1.0000   1.0000   1.0000   1.0000   1.0000
     1.0000   1.0000   1.0000   1.0000   1.0000   1.0000   1.0000   1.0000
     1.0000   1.0000   1.0000   1.0000   1.0000   1.0000   1.0000   1.0000
     1.0000   1.0000   1.0000   1.0000   1.0000   1.0000   1.0000   1.0000
     1.0000   1.0000   1.0000   1.0000   1.0000   1.0000   1.0000   1.0000
     1.0000   1.0000   1.0000   1.0000   1.0000   1.0000   1.0000   1.0000
     1.0000   1.0000   1.0000   1.0000   1.0000   1.0000   1.0000   1.0000
     1.0000   1.0000   1.0000   1.0000   1.0000   1.0000   1.0000   1.0000
     1.0000   1.0000   1.0000   1.0000   1.0000   1.0000   1.0000   1.0000
     1.0000   1.0000   1.0000   1.0000   1.0000   1.0000   1.0000   1.0000

          k = 0.0192 0.0340 0.0565 ( 27410 PWs)   bands (ev):

   -24.0327 -24.0290 -24.0058 -24.0053 -23.7618 -23.7606 -23.7481 -23.7463
   -19.2669 -19.2655 -19.2531 -19.2497 -18.9589 -18.9587 -18.9450 -18.9443
   -18.3260 -18.3260 -17.2897 -17.2887 -17.1435 -17.1425 -16.1226 -16.1221
   -12.2089 -12.2085 -12.0994 -12.0917 -11.9420 -11.9382 -11.8822 -11.8790
    -8.9246  -8.9104  -8.3475  -8.3378  -7.6442  -7.6256  -7.4952  -7.4665
    -6.9617  -6.9165  -6.6586  -6.6498  -6.5703  -6.5214  -6.4569  -6.4383
    -6.2285  -6.2027  -6.0671  -6.0240  -5.9513  -5.9198  -5.8791  -5.8630
    -5.7890  -5.7567  -5.5556  -5.5368  -5.1466  -5.0954  -5.0568  -5.0220
    -4.4847  -4.4708  -4.4457  -4.4042  -4.2533  -4.2429  -4.0456  -4.0432
    -3.7528  -3.7337  -3.5791  -3.5738  -3.2626  -3.2588  -3.1289  -3.1175
    -0.8195  -0.8065  -0.3887  -0.3813  -0.2985  -0.2708  -0.2143  -0.1975
    -0.1217  -0.1056   0.0482   0.0680   0.1732   0.1952   0.2646   0.2759
     0.4988   0.5240   0.5957   0.6143   0.7115   0.7224   0.7582   0.7893
     0.9195   0.9393   1.0337   1.0434   1.1790   1.2061   1.3107   1.3199

     occupation numbers 
     1.0000   1.0000   1.0000   1.0000   1.0000   1.0000   1.0000   1.0000
     1.0000   1.0000   1.0000   1.0000   1.0000   1.0000   1.0000   1.0000
     1.0000   1.0000   1.0000   1.0000   1.0000   1.0000   1.0000   1.0000
     1.0000   1.0000   1.0000   1.0000   1.0000   1.0000   1.0000   1.0000
     1.0000   1.0000   1.0000   1.0000   1.0000   1.0000   1.0000   1.0000
     1.0000   1.0000   1.0000   1.0000   1.0000   1.0000   1.0000   1.0000
     1.0000   1.0000   1.0000   1.0000   1.0000   1.0000   1.0000   1.0000
     1.0000   1.0000   1.0000   1.0000   1.0000   1.0000   1.0000   1.0000
     1.0000   1.0000   1.0000   1.0000   1.0000   1.0000   1.0000   1.0000
     1.0000   1.0000   1.0000   1.0000   1.0000   1.0000   1.0000   1.0000
     1.0000   1.0000   1.0000   1.0000   1.0000   1.0000   1.0000   1.0000
     1.0000   1.0000   1.0000   1.0000   1.0000   1.0000   1.0000   1.0000
     1.0000   1.0000   1.0000   1.0000   1.0000   1.0000   1.0000   1.0000
     1.0000   1.0000   1.0000   1.0000   1.0000   1.0000   1.0000   1.0000

          k = 0.0192 0.0340-0.0479 ( 27398 PWs)   bands (ev):

   -24.0336 -24.0294 -24.0067 -24.0032 -23.7635 -23.7622 -23.7458 -23.7453
   -19.2652 -19.2647 -19.2530 -19.2526 -18.9605 -18.9604 -18.9433 -18.9426
   -18.3306 -18.3205 -17.2980 -17.2796 -17.1464 -17.1455 -16.1223 -16.1160
   -12.2133 -12.2103 -12.1204 -12.0878 -11.9470 -11.9194 -11.8822 -11.8757
    -8.9212  -8.8877  -8.3424  -8.3409  -7.6470  -7.6418  -7.4995  -7.4528
    -6.9587  -6.9147  -6.6711  -6.6490  -6.5693  -6.5578  -6.4875  -6.4676
    -6.2093  -6.1947  -6.0831  -6.0591  -5.8978  -5.8861  -5.8707  -5.8523
    -5.7892  -5.7572  -5.5457  -5.5207  -5.1767  -5.1266  -5.0202  -4.9873
    -4.5236  -4.4957  -4.3985  -4.3754  -4.2826  -4.2561  -4.0382  -4.0203
    -3.7576  -3.7349  -3.6094  -3.5771  -3.2624  -3.2523  -3.1265  -3.1249
    -0.7513  -0.7276  -0.3851  -0.3812  -0.3083  -0.2922  -0.2641  -0.2394
    -0.1743  -0.1653   0.0142   0.0456   0.1850   0.2007   0.2425   0.2674
     0.5450   0.5794   0.6421   0.6553   0.6710   0.7167   0.7815   0.7879
     0.9222   0.9401   1.0591   1.0781   1.1697   1.1812   1.2975   1.3057

     occupation numbers 
     1.0000   1.0000   1.0000   1.0000   1.0000   1.0000   1.0000   1.0000
     1.0000   1.0000   1.0000   1.0000   1.0000   1.0000   1.0000   1.0000
     1.0000   1.0000   1.0000   1.0000   1.0000   1.0000   1.0000   1.0000
     1.0000   1.0000   1.0000   1.0000   1.0000   1.0000   1.0000   1.0000
     1.0000   1.0000   1.0000   1.0000   1.0000   1.0000   1.0000   1.0000
     1.0000   1.0000   1.0000   1.0000   1.0000   1.0000   1.0000   1.0000
     1.0000   1.0000   1.0000   1.0000   1.0000   1.0000   1.0000   1.0000
     1.0000   1.0000   1.0000   1.0000   1.0000   1.0000   1.0000   1.0000
     1.0000   1.0000   1.0000   1.0000   1.0000   1.0000   1.0000   1.0000
     1.0000   1.0000   1.0000   1.0000   1.0000   1.0000   1.0000   1.0000
     1.0000   1.0000   1.0000   1.0000   1.0000   1.0000   1.0000   1.0000
     1.0000   1.0000   1.0000   1.0000   1.0000   1.0000   1.0000   1.0000
     1.0000   1.0000   1.0000   1.0000   1.0000   1.0000   1.0000   1.0000
     1.0000   1.0000   1.0000   1.0000   1.0000   1.0000   1.0000   1.0000

          k = 0.0192 0.0340-0.0131 ( 27416 PWs)   bands (ev):

   -24.0387 -24.0303 -24.0048 -24.0005 -23.7610 -23.7577 -23.7486 -23.7480
   -19.2673 -19.2657 -19.2523 -19.2488 -18.9571 -18.9571 -18.9458 -18.9457
   -18.3319 -18.3176 -17.3020 -17.2749 -17.1511 -17.1509 -16.1218 -16.1134
   -12.2051 -12.2020 -12.1416 -12.0969 -11.9477 -11.9217 -11.8662 -11.8595
    -8.9407  -8.9042  -8.3595  -8.3489  -7.6456  -7.6369  -7.5390  -7.5055
    -6.8825  -6.8695  -6.6662  -6.6237  -6.5914  -6.5603  -6.4469  -6.4156
    -6.2012  -6.1826  -6.0964  -6.0679  -5.9370  -5.9131  -5.8266  -5.8220
    -5.7161  -5.7033  -5.5965  -5.5885  -5.1688  -5.1419  -5.0154  -4.9915
    -4.5615  -4.5534  -4.4649  -4.4448  -4.3213  -4.2781  -3.9230  -3.8997
    -3.7756  -3.7195  -3.6419  -3.6207  -3.2418  -3.2221  -3.1345  -3.1305
    -0.8077  -0.7978  -0.3660  -0.3604  -0.2929  -0.2600  -0.1908  -0.1819
    -0.1461  -0.1256   0.0239   0.0528   0.1400   0.1729   0.2822   0.3102
     0.5050   0.5278   0.5721   0.6231   0.6706   0.7047   0.8210   0.8231
     0.8870   0.9185   1.0446   1.0709   1.1685   1.2155   1.2964   1.3028

     occupation numbers 
     1.0000   1.0000   1.0000   1.0000   1.0000   1.0000   1.0000   1.0000
     1.0000   1.0000   1.0000   1.0000   1.0000   1.0000   1.0000   1.0000
     1.0000   1.0000   1.0000   1.0000   1.0000   1.0000   1.0000   1.0000
     1.0000   1.0000   1.0000   1.0000   1.0000   1.0000   1.0000   1.0000
     1.0000   1.0000   1.0000   1.0000   1.0000   1.0000   1.0000   1.0000
     1.0000   1.0000   1.0000   1.0000   1.0000   1.0000   1.0000   1.0000
     1.0000   1.0000   1.0000   1.0000   1.0000   1.0000   1.0000   1.0000
     1.0000   1.0000   1.0000   1.0000   1.0000   1.0000   1.0000   1.0000
     1.0000   1.0000   1.0000   1.0000   1.0000   1.0000   1.0000   1.0000
     1.0000   1.0000   1.0000   1.0000   1.0000   1.0000   1.0000   1.0000
     1.0000   1.0000   1.0000   1.0000   1.0000   1.0000   1.0000   1.0000
     1.0000   1.0000   1.0000   1.0000   1.0000   1.0000   1.0000   1.0000
     1.0000   1.0000   1.0000   1.0000   1.0000   1.0000   1.0000   1.0000
     1.0000   1.0000   1.0000   1.0000   1.0000   1.0000   1.0000   1.0000

          k = 0.0575 0.0113 0.0303 ( 27420 PWs)   bands (ev):

   -24.0330 -24.0237 -24.0064 -24.0058 -23.7601 -23.7575 -23.7535 -23.7487
   -19.2668 -19.2626 -19.2584 -19.2490 -18.9566 -18.9556 -18.9481 -18.9465
   -18.3318 -18.3318 -17.2872 -17.2851 -17.1499 -17.1481 -16.1233 -16.1218
   -12.1987 -12.1975 -12.0767 -12.0575 -11.9212 -11.9109 -11.8800 -11.8681
    -8.9531  -8.9214  -8.3713  -8.3501  -7.6395  -7.6190  -7.5964  -7.5456
    -7.0559  -6.9839  -6.7381  -6.6177  -6.5606  -6.5208  -6.3403  -6.3041
    -6.2790  -6.2313  -6.1023  -6.0342  -5.9739  -5.9239  -5.8498  -5.8299
    -5.7390  -5.6925  -5.6257  -5.6128  -5.2224  -5.1146  -4.9988  -4.9894
    -4.5317  -4.5124  -4.4656  -4.4083  -4.1473  -4.0950  -3.8900  -3.8721
    -3.8219  -3.7420  -3.6850  -3.6780  -3.2423  -3.2343  -3.1471  -3.1185
    -0.8205  -0.8078  -0.3640  -0.3622  -0.2721  -0.2541  -0.1897  -0.1615
    -0.1367  -0.1077   0.0435   0.0578   0.1397   0.1529   0.2789   0.3026
     0.5142   0.5205   0.5831   0.6351   0.7141   0.7222   0.7901   0.8065
     0.8620   0.9121   0.9428   0.9884   1.2187   1.2465   1.2878   1.3235

     occupation numbers 
     1.0000   1.0000   1.0000   1.0000   1.0000   1.0000   1.0000   1.0000
     1.0000   1.0000   1.0000   1.0000   1.0000   1.0000   1.0000   1.0000
     1.0000   1.0000   1.0000   1.0000   1.0000   1.0000   1.0000   1.0000
     1.0000   1.0000   1.0000   1.0000   1.0000   1.0000   1.0000   1.0000
     1.0000   1.0000   1.0000   1.0000   1.0000   1.0000   1.0000   1.0000
     1.0000   1.0000   1.0000   1.0000   1.0000   1.0000   1.0000   1.0000
     1.0000   1.0000   1.0000   1.0000   1.0000   1.0000   1.0000   1.0000
     1.0000   1.0000   1.0000   1.0000   1.0000   1.0000   1.0000   1.0000
     1.0000   1.0000   1.0000   1.0000   1.0000   1.0000   1.0000   1.0000
     1.0000   1.0000   1.0000   1.0000   1.0000   1.0000   1.0000   1.0000
     1.0000   1.0000   1.0000   1.0000   1.0000   1.0000   1.0000   1.0000
     1.0000   1.0000   1.0000   1.0000   1.0000   1.0000   1.0000   1.0000
     1.0000   1.0000   1.0000   1.0000   1.0000   1.0000   1.0000   1.0000
     1.0000   1.0000   1.0000   1.0000   1.0000   1.0000   1.0000   1.0000

          k = 0.0575 0.0113 0.0651 ( 27436 PWs)   bands (ev):

   -24.0290 -24.0264 -24.0100 -24.0022 -23.7597 -23.7593 -23.7555 -23.7464
   -19.2674 -19.2641 -19.2588 -19.2479 -18.9660 -18.9640 -18.9410 -18.9372
   -18.3465 -18.3223 -17.3067 -17.2643 -17.1405 -17.1367 -16.1384 -16.1209
   -12.2092 -12.2072 -12.1048 -12.0287 -11.9271 -11.8860 -11.8784 -11.8723
    -8.9957  -8.8777  -8.3664  -8.3319  -7.6461  -7.6223  -7.5596  -7.4368
    -7.1529  -6.9332  -6.7448  -6.5877  -6.5776  -6.5075  -6.4828  -6.3924
    -6.3332  -6.2562  -6.0669  -6.0433  -5.9962  -5.9496  -5.8812  -5.8281
    -5.7193  -5.6627  -5.5803  -5.5136  -5.2321  -5.0732  -5.0601  -5.0052
    -4.4817  -4.4669  -4.4113  -4.3619  -4.1049  -4.0567  -3.9879  -3.9468
    -3.8534  -3.7694  -3.6974  -3.6121  -3.2785  -3.2567  -3.1411  -3.0882
    -0.8936  -0.8534  -0.3702  -0.3394  -0.2762  -0.2451  -0.1860  -0.1474
    -0.1021  -0.0675   0.1080   0.1400   0.1582   0.1798   0.2466   0.3366
     0.4299   0.4526   0.4926   0.6070   0.7027   0.7324   0.7723   0.8024
     0.8976   0.9391   0.9534   0.9810   1.2332   1.2680   1.2903   1.3324

     occupation numbers 
     1.0000   1.0000   1.0000   1.0000   1.0000   1.0000   1.0000   1.0000
     1.0000   1.0000   1.0000   1.0000   1.0000   1.0000   1.0000   1.0000
     1.0000   1.0000   1.0000   1.0000   1.0000   1.0000   1.0000   1.0000
     1.0000   1.0000   1.0000   1.0000   1.0000   1.0000   1.0000   1.0000
     1.0000   1.0000   1.0000   1.0000   1.0000   1.0000   1.0000   1.0000
     1.0000   1.0000   1.0000   1.0000   1.0000   1.0000   1.0000   1.0000
     1.0000   1.0000   1.0000   1.0000   1.0000   1.0000   1.0000   1.0000
     1.0000   1.0000   1.0000   1.0000   1.0000   1.0000   1.0000   1.0000
     1.0000   1.0000   1.0000   1.0000   1.0000   1.0000   1.0000   1.0000
     1.0000   1.0000   1.0000   1.0000   1.0000   1.0000   1.0000   1.0000
     1.0000   1.0000   1.0000   1.0000   1.0000   1.0000   1.0000   1.0000
     1.0000   1.0000   1.0000   1.0000   1.0000   1.0000   1.0000   1.0000
     1.0000   1.0000   1.0000   1.0000   1.0000   1.0000   1.0000   1.0000
     1.0000   1.0000   1.0000   1.0000   1.0000   1.0000   1.0000   1.0000

          k = 0.0575 0.0113-0.0393 ( 27423 PWs)   bands (ev):

   -24.0308 -24.0251 -24.0116 -24.0001 -23.7627 -23.7615 -23.7514 -23.7453
   -19.2655 -19.2632 -19.2590 -19.2506 -18.9669 -18.9650 -18.9399 -18.9362
   -18.3509 -18.3166 -17.3162 -17.2543 -17.1431 -17.1397 -16.1382 -16.1149
   -12.2108 -12.2091 -12.1289 -12.0084 -11.9426 -11.8879 -11.8806 -11.8520
    -8.9914  -8.8544  -8.3608  -8.3334  -7.6421  -7.6307  -7.5796  -7.4242
    -7.1697  -6.9364  -6.7312  -6.6042  -6.5760  -6.5504  -6.4755  -6.4148
    -6.3387  -6.2715  -6.0552  -5.9966  -5.9757  -5.9535  -5.8824  -5.8434
    -5.6953  -5.6594  -5.5873  -5.5116  -5.2223  -5.0958  -5.0342  -4.9937
    -4.4866  -4.4462  -4.4054  -4.3823  -4.1202  -4.0858  -3.9405  -3.9352
    -3.8023  -3.7936  -3.7606  -3.6213  -3.2830  -3.2517  -3.1360  -3.0938
    -0.8524  -0.7914  -0.3639  -0.3175  -0.2868  -0.2641  -0.1906  -0.1642
    -0.1582  -0.1214   0.0393   0.1179   0.1552   0.1998   0.2156   0.2384
     0.4739   0.5539   0.5785   0.5935   0.7003   0.7263   0.7910   0.8158
     0.8902   0.9193   0.9741   1.0344   1.2511   1.2655   1.2702   1.2944

     occupation numbers 
     1.0000   1.0000   1.0000   1.0000   1.0000   1.0000   1.0000   1.0000
     1.0000   1.0000   1.0000   1.0000   1.0000   1.0000   1.0000   1.0000
     1.0000   1.0000   1.0000   1.0000   1.0000   1.0000   1.0000   1.0000
     1.0000   1.0000   1.0000   1.0000   1.0000   1.0000   1.0000   1.0000
     1.0000   1.0000   1.0000   1.0000   1.0000   1.0000   1.0000   1.0000
     1.0000   1.0000   1.0000   1.0000   1.0000   1.0000   1.0000   1.0000
     1.0000   1.0000   1.0000   1.0000   1.0000   1.0000   1.0000   1.0000
     1.0000   1.0000   1.0000   1.0000   1.0000   1.0000   1.0000   1.0000
     1.0000   1.0000   1.0000   1.0000   1.0000   1.0000   1.0000   1.0000
     1.0000   1.0000   1.0000   1.0000   1.0000   1.0000   1.0000   1.0000
     1.0000   1.0000   1.0000   1.0000   1.0000   1.0000   1.0000   1.0000
     1.0000   1.0000   1.0000   1.0000   1.0000   1.0000   1.0000   1.0000
     1.0000   1.0000   1.0000   1.0000   1.0000   1.0000   1.0000   1.0000
     1.0000   1.0000   1.0000   1.0000   1.0000   1.0000   1.0000   1.0000

          k = 0.0575 0.0113-0.0045 ( 27392 PWs)   bands (ev):

   -24.0338 -24.0233 -24.0100 -24.0016 -23.7629 -23.7596 -23.7494 -23.7478
   -19.2646 -19.2631 -19.2550 -19.2542 -18.9589 -18.9582 -18.9455 -18.9441
   -18.3434 -18.3190 -17.3086 -17.2632 -17.1522 -17.1515 -16.1272 -16.1117
   -12.2006 -12.1991 -12.1175 -12.0192 -11.9496 -11.8978 -11.8707 -11.8630
    -8.9630  -8.8835  -8.3604  -8.3574  -7.6394  -7.6293  -7.6233  -7.5228
    -7.0700  -6.9835  -6.6938  -6.6711  -6.5549  -6.5526  -6.3737  -6.3406
    -6.2630  -6.2579  -6.0435  -6.0138  -5.9379  -5.9046  -5.8660  -5.8557
    -5.7115  -5.7019  -5.6244  -5.6116  -5.1821  -5.1640  -4.9810  -4.9693
    -4.5335  -4.5099  -4.4512  -4.4251  -4.1456  -4.1201  -3.8595  -3.8541
    -3.7959  -3.7765  -3.7260  -3.6851  -3.2550  -3.2233  -3.1396  -3.1253
    -0.7691  -0.7226  -0.3660  -0.3559  -0.2786  -0.2778  -0.2442  -0.2377
    -0.1498  -0.1233  -0.0020   0.0582   0.1215   0.1590   0.2531   0.2877
     0.4959   0.5651   0.6431   0.6844   0.6971   0.7417   0.8053   0.8304
     0.8625   0.8780   0.9559   1.0376   1.2351   1.2406   1.2686   1.2859

     occupation numbers 
     1.0000   1.0000   1.0000   1.0000   1.0000   1.0000   1.0000   1.0000
     1.0000   1.0000   1.0000   1.0000   1.0000   1.0000   1.0000   1.0000
     1.0000   1.0000   1.0000   1.0000   1.0000   1.0000   1.0000   1.0000
     1.0000   1.0000   1.0000   1.0000   1.0000   1.0000   1.0000   1.0000
     1.0000   1.0000   1.0000   1.0000   1.0000   1.0000   1.0000   1.0000
     1.0000   1.0000   1.0000   1.0000   1.0000   1.0000   1.0000   1.0000
     1.0000   1.0000   1.0000   1.0000   1.0000   1.0000   1.0000   1.0000
     1.0000   1.0000   1.0000   1.0000   1.0000   1.0000   1.0000   1.0000
     1.0000   1.0000   1.0000   1.0000   1.0000   1.0000   1.0000   1.0000
     1.0000   1.0000   1.0000   1.0000   1.0000   1.0000   1.0000   1.0000
     1.0000   1.0000   1.0000   1.0000   1.0000   1.0000   1.0000   1.0000
     1.0000   1.0000   1.0000   1.0000   1.0000   1.0000   1.0000   1.0000
     1.0000   1.0000   1.0000   1.0000   1.0000   1.0000   1.0000   1.0000
     1.0000   1.0000   1.0000   1.0000   1.0000   1.0000   1.0000   1.0000

          k = 0.0575 0.0340 0.0303 ( 27395 PWs)   bands (ev):

   -24.0301 -24.0261 -24.0066 -24.0062 -23.7584 -23.7574 -23.7529 -23.7508
   -19.2667 -19.2655 -19.2539 -19.2506 -18.9563 -18.9559 -18.9476 -18.9470
   -18.3318 -18.3318 -17.2867 -17.2859 -17.1492 -17.1485 -16.1229 -16.1222
   -12.1983 -12.1978 -12.0699 -12.0618 -11.9197 -11.9152 -11.8768 -11.8717
    -8.9438  -8.9306  -8.3624  -8.3534  -7.6325  -7.6243  -7.5851  -7.5635
    -7.0564  -7.0313  -6.6663  -6.6258  -6.5424  -6.5168  -6.3671  -6.3322
    -6.2689  -6.2417  -6.0733  -6.0450  -5.9657  -5.9399  -5.8471  -5.8285
    -5.7201  -5.7052  -5.6222  -5.6150  -5.1931  -5.1485  -5.0007  -4.9960
    -4.5256  -4.5148  -4.4517  -4.4288  -4.1254  -4.1014  -3.8801  -3.8672
    -3.8100  -3.7719  -3.6843  -3.6781  -3.2396  -3.2360  -3.1418  -3.1295
    -0.8134  -0.8082  -0.3544  -0.3491  -0.3051  -0.2891  -0.1705  -0.1503
    -0.1307  -0.1156   0.0557   0.0704   0.1437   0.1560   0.2786   0.2897
     0.5341   0.5425   0.5664   0.5955   0.7132   0.7195   0.7986   0.8188
     0.8757   0.9064   0.9456   0.9668   1.2274   1.2388   1.2989   1.3134

     occupation numbers 
     1.0000   1.0000   1.0000   1.0000   1.0000   1.0000   1.0000   1.0000
     1.0000   1.0000   1.0000   1.0000   1.0000   1.0000   1.0000   1.0000
     1.0000   1.0000   1.0000   1.0000   1.0000   1.0000   1.0000   1.0000
     1.0000   1.0000   1.0000   1.0000   1.0000   1.0000   1.0000   1.0000
     1.0000   1.0000   1.0000   1.0000   1.0000   1.0000   1.0000   1.0000
     1.0000   1.0000   1.0000   1.0000   1.0000   1.0000   1.0000   1.0000
     1.0000   1.0000   1.0000   1.0000   1.0000   1.0000   1.0000   1.0000
     1.0000   1.0000   1.0000   1.0000   1.0000   1.0000   1.0000   1.0000
     1.0000   1.0000   1.0000   1.0000   1.0000   1.0000   1.0000   1.0000
     1.0000   1.0000   1.0000   1.0000   1.0000   1.0000   1.0000   1.0000
     1.0000   1.0000   1.0000   1.0000   1.0000   1.0000   1.0000   1.0000
     1.0000   1.0000   1.0000   1.0000   1.0000   1.0000   1.0000   1.0000
     1.0000   1.0000   1.0000   1.0000   1.0000   1.0000   1.0000   1.0000
     1.0000   1.0000   1.0000   1.0000   1.0000   1.0000   1.0000   1.0000

          k = 0.0575 0.0340 0.0651 ( 27410 PWs)   bands (ev):

   -24.0279 -24.0268 -24.0082 -24.0049 -23.7595 -23.7593 -23.7529 -23.7490
   -19.2676 -19.2667 -19.2539 -19.2499 -18.9654 -18.9646 -18.9399 -18.9383
   -18.3396 -18.3295 -17.2942 -17.2767 -17.1393 -17.1378 -16.1332 -16.1259
   -12.2101 -12.2086 -12.0837 -12.0532 -11.9092 -11.8897 -11.8823 -11.8773
    -8.9624  -8.9136  -8.3549  -8.3405  -7.6213  -7.6103  -7.5515  -7.4944
    -7.1113  -7.0330  -6.6513  -6.6018  -6.5652  -6.5400  -6.4430  -6.3915
    -6.3224  -6.2730  -6.0473  -6.0306  -5.9954  -5.9774  -5.8912  -5.8576
    -5.7075  -5.6852  -5.5533  -5.5261  -5.1952  -5.1287  -5.0415  -5.0176
    -4.4691  -4.4500  -4.4028  -4.3695  -4.0905  -4.0714  -3.9782  -3.9614
    -3.8324  -3.8028  -3.6677  -3.6345  -3.2723  -3.2633  -3.1265  -3.1046
    -0.8788  -0.8624  -0.3592  -0.3454  -0.3004  -0.2906  -0.1610  -0.1486
    -0.0732  -0.0609   0.1239   0.1350   0.1718   0.1837   0.2683   0.3104
     0.4175   0.4285   0.5446   0.6001   0.6826   0.7140   0.7863   0.8017
     0.8908   0.9158   0.9722   0.9879   1.2421   1.2562   1.3030   1.3201

     occupation numbers 
     1.0000   1.0000   1.0000   1.0000   1.0000   1.0000   1.0000   1.0000
     1.0000   1.0000   1.0000   1.0000   1.0000   1.0000   1.0000   1.0000
     1.0000   1.0000   1.0000   1.0000   1.0000   1.0000   1.0000   1.0000
     1.0000   1.0000   1.0000   1.0000   1.0000   1.0000   1.0000   1.0000
     1.0000   1.0000   1.0000   1.0000   1.0000   1.0000   1.0000   1.0000
     1.0000   1.0000   1.0000   1.0000   1.0000   1.0000   1.0000   1.0000
     1.0000   1.0000   1.0000   1.0000   1.0000   1.0000   1.0000   1.0000
     1.0000   1.0000   1.0000   1.0000   1.0000   1.0000   1.0000   1.0000
     1.0000   1.0000   1.0000   1.0000   1.0000   1.0000   1.0000   1.0000
     1.0000   1.0000   1.0000   1.0000   1.0000   1.0000   1.0000   1.0000
     1.0000   1.0000   1.0000   1.0000   1.0000   1.0000   1.0000   1.0000
     1.0000   1.0000   1.0000   1.0000   1.0000   1.0000   1.0000   1.0000
     1.0000   1.0000   1.0000   1.0000   1.0000   1.0000   1.0000   1.0000
     1.0000   1.0000   1.0000   1.0000   1.0000   1.0000   1.0000   1.0000

          k = 0.0575 0.0340-0.0393 ( 27396 PWs)   bands (ev):

   -24.0293 -24.0270 -24.0081 -24.0034 -23.7621 -23.7616 -23.7498 -23.7472
   -19.2661 -19.2657 -19.2547 -19.2518 -18.9663 -18.9656 -18.9388 -18.9373
   -18.3412 -18.3270 -17.2978 -17.2721 -17.1423 -17.1409 -16.1312 -16.1215
   -12.2126 -12.2112 -12.0993 -12.0540 -11.9121 -11.8942 -11.8747 -11.8624
    -8.9533  -8.8967  -8.3524  -8.3410  -7.6255  -7.6098  -7.5641  -7.4882
    -7.1171  -7.0315  -6.6513  -6.6139  -6.5723  -6.5516  -6.4939  -6.4401
    -6.2869  -6.2468  -6.0535  -6.0185  -5.9737  -5.9645  -5.8886  -5.8636
    -5.6909  -5.6762  -5.5523  -5.5212  -5.2077  -5.1559  -5.0109  -4.9924
    -4.4863  -4.4691  -4.3779  -4.3617  -4.1082  -4.0947  -3.9414  -3.9390
    -3.8128  -3.8056  -3.7107  -3.6565  -3.2723  -3.2585  -3.1271  -3.1092
    -0.8322  -0.8067  -0.3554  -0.3383  -0.3070  -0.2921  -0.1718  -0.1647
    -0.1288  -0.1072   0.0654   0.0952   0.1637   0.1809   0.2189   0.2404
     0.5016   0.5310   0.6021   0.6058   0.6984   0.7095   0.7794   0.7885
     0.8985   0.9164   0.9986   1.0217   1.2543   1.2616   1.2750   1.2864

     occupation numbers 
     1.0000   1.0000   1.0000   1.0000   1.0000   1.0000   1.0000   1.0000
     1.0000   1.0000   1.0000   1.0000   1.0000   1.0000   1.0000   1.0000
     1.0000   1.0000   1.0000   1.0000   1.0000   1.0000   1.0000   1.0000
     1.0000   1.0000   1.0000   1.0000   1.0000   1.0000   1.0000   1.0000
     1.0000   1.0000   1.0000   1.0000   1.0000   1.0000   1.0000   1.0000
     1.0000   1.0000   1.0000   1.0000   1.0000   1.0000   1.0000   1.0000
     1.0000   1.0000   1.0000   1.0000   1.0000   1.0000   1.0000   1.0000
     1.0000   1.0000   1.0000   1.0000   1.0000   1.0000   1.0000   1.0000
     1.0000   1.0000   1.0000   1.0000   1.0000   1.0000   1.0000   1.0000
     1.0000   1.0000   1.0000   1.0000   1.0000   1.0000   1.0000   1.0000
     1.0000   1.0000   1.0000   1.0000   1.0000   1.0000   1.0000   1.0000
     1.0000   1.0000   1.0000   1.0000   1.0000   1.0000   1.0000   1.0000
     1.0000   1.0000   1.0000   1.0000   1.0000   1.0000   1.0000   1.0000
     1.0000   1.0000   1.0000   1.0000   1.0000   1.0000   1.0000   1.0000

          k = 0.0575 0.0340-0.0045 ( 27395 PWs)   bands (ev):

   -24.0310 -24.0267 -24.0073 -24.0039 -23.7615 -23.7601 -23.7493 -23.7486
   -19.2650 -19.2645 -19.2539 -19.2536 -18.9587 -18.9584 -18.9450 -18.9445
   -18.3365 -18.3263 -17.2952 -17.2764 -17.1520 -17.1517 -16.1226 -16.1162
   -12.2008 -12.2004 -12.0936 -12.0559 -11.9245 -11.9055 -11.8700 -11.8669
    -8.9403  -8.9074  -8.3585  -8.3559  -7.6361  -7.6319  -7.5966  -7.5548
    -7.0577  -7.0227  -6.6598  -6.6489  -6.5401  -6.5370  -6.4273  -6.4137
    -6.2183  -6.2116  -6.0542  -6.0356  -5.9294  -5.9150  -5.8493  -5.8428
    -5.7152  -5.7045  -5.6210  -5.6164  -5.1863  -5.1765  -4.9750  -4.9713
    -4.5341  -4.5186  -4.4503  -4.4282  -4.1273  -4.1156  -3.8604  -3.8583
    -3.7746  -3.7568  -3.7383  -3.7111  -3.2452  -3.2310  -3.1399  -3.1346
    -0.7537  -0.7344  -0.3514  -0.3461  -0.2980  -0.2762  -0.2618  -0.2431
    -0.1482  -0.1282   0.0195   0.0455   0.1378   0.1562   0.2621   0.2807
     0.5277   0.5627   0.6281   0.6512   0.7072   0.7353   0.8104   0.8168
     0.8812   0.8906   0.9711   1.0085   1.2375   1.2390   1.2731   1.2806

     occupation numbers 
     1.0000   1.0000   1.0000   1.0000   1.0000   1.0000   1.0000   1.0000
     1.0000   1.0000   1.0000   1.0000   1.0000   1.0000   1.0000   1.0000
     1.0000   1.0000   1.0000   1.0000   1.0000   1.0000   1.0000   1.0000
     1.0000   1.0000   1.0000   1.0000   1.0000   1.0000   1.0000   1.0000
     1.0000   1.0000   1.0000   1.0000   1.0000   1.0000   1.0000   1.0000
     1.0000   1.0000   1.0000   1.0000   1.0000   1.0000   1.0000   1.0000
     1.0000   1.0000   1.0000   1.0000   1.0000   1.0000   1.0000   1.0000
     1.0000   1.0000   1.0000   1.0000   1.0000   1.0000   1.0000   1.0000
     1.0000   1.0000   1.0000   1.0000   1.0000   1.0000   1.0000   1.0000
     1.0000   1.0000   1.0000   1.0000   1.0000   1.0000   1.0000   1.0000
     1.0000   1.0000   1.0000   1.0000   1.0000   1.0000   1.0000   1.0000
     1.0000   1.0000   1.0000   1.0000   1.0000   1.0000   1.0000   1.0000
     1.0000   1.0000   1.0000   1.0000   1.0000   1.0000   1.0000   1.0000
     1.0000   1.0000   1.0000   1.0000   1.0000   1.0000   1.0000   1.0000

     highest occupied level (ev):     1.3324

!    total energy              =   -1281.95306973 Ry
     Harris-Foulkes estimate   =   -1281.95307020 Ry
     estimated scf accuracy    <       0.00000053 Ry

     total all-electron energy =     -4786.396817 Ry

     The total energy is the sum of the following terms:

     one-electron contribution =    -654.36099660 Ry
     hartree contribution      =     424.84849137 Ry
     xc contribution           =    -260.40547795 Ry
     ewald contribution        =    -461.63880349 Ry
     one-center paw contrib.   =    -330.39628305 Ry

     convergence has been achieved in  12 iterations

     Forces acting on atoms (Ry/au):

     atom    1 type  1   force =    -0.01136643   -0.00703829   -0.01205299
     atom    2 type  4   force =     0.03490142    0.00951538   -0.02299679
     atom    3 type  1   force =    -0.00380915   -0.01297591   -0.01375963
     atom    4 type  1   force =     0.01293070   -0.00704984    0.00511567
     atom    5 type  4   force =     0.00377912   -0.03916238    0.04229518
     atom    6 type  1   force =     0.01659332    0.01039480   -0.01502456
     atom    7 type  4   force =    -0.01098867    0.02353143    0.04666874
     atom    8 type  2   force =     0.19647907   -0.12640717    0.05892029
     atom    9 type  3   force =    -0.15430748   -0.06631604   -0.15735827
     atom   10 type  3   force =    -0.05230995    0.20176324    0.09205109
     atom   11 type  4   force =    -0.04581296    0.02790155   -0.01846631
     atom   12 type  2   force =     0.11977012   -0.05876214    0.20833724
     atom   13 type  3   force =    -0.19747317   -0.09915953   -0.06291794
     atom   14 type  3   force =     0.06711483    0.15539224   -0.15251482
     atom   15 type  3   force =     0.06711483   -0.15539224   -0.15251482
     atom   16 type  3   force =    -0.19747317    0.09915953   -0.06291794
     atom   17 type  2   force =     0.11977012    0.05876214    0.20833724
     atom   18 type  4   force =    -0.04581296   -0.02790155   -0.01846631
     atom   19 type  3   force =    -0.05230995   -0.20176324    0.09205109
     atom   20 type  3   force =    -0.15430748    0.06631604   -0.15735827
     atom   21 type  2   force =     0.19647907    0.12640717    0.05892029
     atom   22 type  4   force =    -0.01098867   -0.02353143    0.04666874
     atom   23 type  1   force =     0.01659332   -0.01039480   -0.01502456
     atom   24 type  4   force =     0.00377912    0.03916238    0.04229518
     atom   25 type  1   force =     0.01293070    0.00704984    0.00511567
     atom   26 type  1   force =    -0.00380915    0.01297591   -0.01375963
     atom   27 type  4   force =     0.03490142   -0.00951538   -0.02299679
     atom   28 type  1   force =    -0.01136643    0.00703829   -0.01205299
     atom   29 type  3   force =    -0.06711483   -0.15539224    0.15251482
     atom   30 type  3   force =     0.19747317    0.09915953    0.06291794
     atom   31 type  2   force =    -0.11977012    0.05876214   -0.20833724
     atom   32 type  4   force =     0.04581296   -0.02790155    0.01846631
     atom   33 type  3   force =     0.05230995   -0.20176324   -0.09205109
     atom   34 type  3   force =     0.15430748    0.06631604    0.15735827
     atom   35 type  2   force =    -0.19647907    0.12640717   -0.05892029
     atom   36 type  4   force =     0.01098867   -0.02353143   -0.04666874
     atom   37 type  1   force =    -0.01659332   -0.01039480    0.01502456
     atom   38 type  4   force =    -0.00377912    0.03916238   -0.04229518
     atom   39 type  1   force =    -0.01293070    0.00704984   -0.00511567
     atom   40 type  1   force =     0.00380915    0.01297591    0.01375963
     atom   41 type  4   force =    -0.03490142   -0.00951538    0.02299679
     atom   42 type  1   force =     0.01136643    0.00703829    0.01205299
     atom   43 type  3   force =    -0.06711483    0.15539224    0.15251482
     atom   44 type  3   force =     0.19747317   -0.09915953    0.06291794
     atom   45 type  2   force =    -0.11977012   -0.05876214   -0.20833724
     atom   46 type  4   force =     0.04581296    0.02790155    0.01846631
     atom   47 type  3   force =     0.05230995    0.20176324   -0.09205109
     atom   48 type  3   force =     0.15430748   -0.06631604    0.15735827
     atom   49 type  2   force =    -0.19647907   -0.12640717   -0.05892029
     atom   50 type  4   force =     0.01098867    0.02353143   -0.04666874
     atom   51 type  1   force =    -0.01659332    0.01039480    0.01502456
     atom   52 type  4   force =    -0.00377912   -0.03916238   -0.04229518
     atom   53 type  1   force =    -0.01293070   -0.00704984   -0.00511567
     atom   54 type  1   force =     0.00380915   -0.01297591    0.01375963
     atom   55 type  4   force =    -0.03490142    0.00951538    0.02299679
     atom   56 type  1   force =     0.01136643   -0.00703829    0.01205299
     The non-local contrib.  to forces
     atom    1 type  1   force =     0.16244711    0.38337023    0.10810990
     atom    2 type  4   force =    -2.40890229   -0.47656683    1.54152831
     atom    3 type  1   force =     0.04555488   -0.03466884    0.05324695
     atom    4 type  1   force =    -0.56817440   -0.40786094   -0.11096006
     atom    5 type  4   force =     0.14522690    1.88390635   -2.23682483
     atom    6 type  1   force =    -0.00505580    0.06368982    0.05447449
     atom    7 type  4   force =     0.54751136   -1.16433675   -2.63038341
     atom    8 type  2   force =     0.65430714   -0.44674725    0.18149795
     atom    9 type  3   force =     0.08201691    0.02770344    0.07234213
     atom   10 type  3   force =     0.02990832   -0.10168625   -0.04162747
     atom   11 type  4   force =     2.27169494   -1.50079380    0.81629234
     atom   12 type  2   force =     0.37967619   -0.19489507    0.69561176
     atom   13 type  3   force =     0.09415952    0.04895012    0.03941334
     atom   14 type  3   force =    -0.02956063   -0.07547115    0.08038599
     atom   15 type  3   force =    -0.02956063    0.07547115    0.08038599
     atom   16 type  3   force =     0.09415952   -0.04895012    0.03941334
     atom   17 type  2   force =     0.37967619    0.19489507    0.69561176
     atom   18 type  4   force =     2.27169494    1.50079380    0.81629234
     atom   19 type  3   force =     0.02990832    0.10168625   -0.04162747
     atom   20 type  3   force =     0.08201691   -0.02770344    0.07234213
     atom   21 type  2   force =     0.65430714    0.44674725    0.18149795
     atom   22 type  4   force =     0.54751136    1.16433675   -2.63038341
     atom   23 type  1   force =    -0.00505580   -0.06368982    0.05447449
     atom   24 type  4   force =     0.14522690   -1.88390635   -2.23682483
     atom   25 type  1   force =    -0.56817440    0.40786094   -0.11096006
     atom   26 type  1   force =     0.04555488    0.03466884    0.05324695
     atom   27 type  4   force =    -2.40890229    0.47656683    1.54152831
     atom   28 type  1   force =     0.16244711   -0.38337023    0.10810990
     atom   29 type  3   force =     0.02956063    0.07547115   -0.08038599
     atom   30 type  3   force =    -0.09415952   -0.04895012   -0.03941334
     atom   31 type  2   force =    -0.37967619    0.19489507   -0.69561176
     atom   32 type  4   force =    -2.27169494    1.50079380   -0.81629234
     atom   33 type  3   force =    -0.02990832    0.10168625    0.04162747
     atom   34 type  3   force =    -0.08201691   -0.02770344   -0.07234213
     atom   35 type  2   force =    -0.65430714    0.44674725   -0.18149795
     atom   36 type  4   force =    -0.54751136    1.16433675    2.63038341
     atom   37 type  1   force =     0.00505580   -0.06368982   -0.05447449
     atom   38 type  4   force =    -0.14522690   -1.88390635    2.23682483
     atom   39 type  1   force =     0.56817440    0.40786094    0.11096006
     atom   40 type  1   force =    -0.04555488    0.03466884   -0.05324695
     atom   41 type  4   force =     2.40890229    0.47656683   -1.54152831
     atom   42 type  1   force =    -0.16244711   -0.38337023   -0.10810990
     atom   43 type  3   force =     0.02956063   -0.07547115   -0.08038599
     atom   44 type  3   force =    -0.09415952    0.04895012   -0.03941334
     atom   45 type  2   force =    -0.37967619   -0.19489507   -0.69561176
     atom   46 type  4   force =    -2.27169494   -1.50079380   -0.81629234
     atom   47 type  3   force =    -0.02990832   -0.10168625    0.04162747
     atom   48 type  3   force =    -0.08201691    0.02770344   -0.07234213
     atom   49 type  2   force =    -0.65430714   -0.44674725   -0.18149795
     atom   50 type  4   force =    -0.54751136   -1.16433675    2.63038341
     atom   51 type  1   force =     0.00505580    0.06368982   -0.05447449
     atom   52 type  4   force =    -0.14522690    1.88390635    2.23682483
     atom   53 type  1   force =     0.56817440   -0.40786094    0.11096006
     atom   54 type  1   force =    -0.04555488   -0.03466884   -0.05324695
     atom   55 type  4   force =     2.40890229   -0.47656683   -1.54152831
     atom   56 type  1   force =    -0.16244711    0.38337023   -0.10810990
     The ionic contribution  to forces
     atom    1 type  1   force =    -2.98574241    0.28768524   -1.98995955
     atom    2 type  4   force =    12.32605624    4.46897253   -6.05307582
     atom    3 type  1   force =    -0.22198844    1.74709182    0.03104347
     atom    4 type  1   force =     2.72398529    2.76015808    2.00356854
     atom    5 type  4   force =    -1.38510603   -8.79391461   11.50298923
     atom    6 type  1   force =    -0.41177865    0.08160974    1.10576084
     atom    7 type  4   force =    -2.11153922    6.39162145   12.56330285
     atom    8 type  2   force =    -4.06343486    3.26529007   -1.16466039
     atom    9 type  3   force =    -2.33212389   -0.14105590   -2.07121141
     atom   10 type  3   force =    -1.27980373    2.89156196    0.78930334
     atom   11 type  4   force =   -11.29512376    6.38826800   -2.14928522
     atom   12 type  2   force =    -2.89324934    1.04598259   -4.77600606
     atom   13 type  3   force =    -2.63719007   -1.06735352   -1.62107703
     atom   14 type  3   force =     0.24455193    2.08108242   -2.54111395
     atom   15 type  3   force =     0.24455193   -2.08108242   -2.54111395
     atom   16 type  3   force =    -2.63719007    1.06735352   -1.62107703
     atom   17 type  2   force =    -2.89324934   -1.04598259   -4.77600606
     atom   18 type  4   force =   -11.29512376   -6.38826800   -2.14928522
     atom   19 type  3   force =    -1.27980373   -2.89156196    0.78930334
     atom   20 type  3   force =    -2.33212389    0.14105590   -2.07121141
     atom   21 type  2   force =    -4.06343486   -3.26529007   -1.16466039
     atom   22 type  4   force =    -2.11153922   -6.39162145   12.56330285
     atom   23 type  1   force =    -0.41177865   -0.08160974    1.10576084
     atom   24 type  4   force =    -1.38510603    8.79391461   11.50298923
     atom   25 type  1   force =     2.72398529   -2.76015808    2.00356854
     atom   26 type  1   force =    -0.22198844   -1.74709182    0.03104347
     atom   27 type  4   force =    12.32605624   -4.46897253   -6.05307582
     atom   28 type  1   force =    -2.98574241   -0.28768524   -1.98995955
     atom   29 type  3   force =    -0.24455193   -2.08108242    2.54111395
     atom   30 type  3   force =     2.63719007    1.06735352    1.62107703
     atom   31 type  2   force =     2.89324934   -1.04598259    4.77600606
     atom   32 type  4   force =    11.29512376   -6.38826800    2.14928522
     atom   33 type  3   force =     1.27980373   -2.89156196   -0.78930334
     atom   34 type  3   force =     2.33212389    0.14105590    2.07121141
     atom   35 type  2   force =     4.06343486   -3.26529007    1.16466039
     atom   36 type  4   force =     2.11153922   -6.39162145  -12.56330285
     atom   37 type  1   force =     0.41177865   -0.08160974   -1.10576084
     atom   38 type  4   force =     1.38510603    8.79391461  -11.50298923
     atom   39 type  1   force =    -2.72398529   -2.76015808   -2.00356854
     atom   40 type  1   force =     0.22198844   -1.74709182   -0.03104347
     atom   41 type  4   force =   -12.32605624   -4.46897253    6.05307582
     atom   42 type  1   force =     2.98574241   -0.28768524    1.98995955
     atom   43 type  3   force =    -0.24455193    2.08108242    2.54111395
     atom   44 type  3   force =     2.63719007   -1.06735352    1.62107703
     atom   45 type  2   force =     2.89324934    1.04598259    4.77600606
     atom   46 type  4   force =    11.29512376    6.38826800    2.14928522
     atom   47 type  3   force =     1.27980373    2.89156196   -0.78930334
     atom   48 type  3   force =     2.33212389   -0.14105590    2.07121141
     atom   49 type  2   force =     4.06343486    3.26529007    1.16466039
     atom   50 type  4   force =     2.11153922    6.39162145  -12.56330285
     atom   51 type  1   force =     0.41177865    0.08160974   -1.10576084
     atom   52 type  4   force =     1.38510603   -8.79391461  -11.50298923
     atom   53 type  1   force =    -2.72398529    2.76015808   -2.00356854
     atom   54 type  1   force =     0.22198844    1.74709182   -0.03104347
     atom   55 type  4   force =   -12.32605624    4.46897253    6.05307582
     atom   56 type  1   force =     2.98574241    0.28768524    1.98995955
     The local contribution  to forces
     atom    1 type  1   force =     2.81474619   -0.67153399    1.87161773
     atom    2 type  4   force =    -9.90097363   -3.98644460    4.50063239
     atom    3 type  1   force =     0.17211791   -1.72698932   -0.09769164
     atom    4 type  1   force =    -2.15221508   -2.36554043   -1.88891782
     atom    5 type  4   force =     1.24480302    6.88533957   -9.24130563
     atom    6 type  1   force =     0.43466366   -0.13299528   -1.17542416
     atom    7 type  4   force =     1.55724260   -5.21252172   -9.90637308
     atom    8 type  2   force =     3.62009020   -2.95535002    1.04712817
     atom    9 type  3   force =     2.09579259    0.04704102    1.84151598
     atom   10 type  3   force =     1.19758890   -2.58812720   -0.65562341
     atom   11 type  4   force =     8.99522807   -4.87123037    1.32090144
     atom   12 type  2   force =     2.64228276   -0.91400413    4.30471172
     atom   13 type  3   force =     2.34555004    0.91924405    1.51874501
     atom   14 type  3   force =    -0.14789002   -1.85021804    2.30821241
     atom   15 type  3   force =    -0.14789002    1.85021804    2.30821241
     atom   16 type  3   force =     2.34555004   -0.91924405    1.51874501
     atom   17 type  2   force =     2.64228276    0.91400413    4.30471172
     atom   18 type  4   force =     8.99522807    4.87123037    1.32090144
     atom   19 type  3   force =     1.19758890    2.58812720   -0.65562341
     atom   20 type  3   force =     2.09579259   -0.04704102    1.84151598
     atom   21 type  2   force =     3.62009020    2.95535002    1.04712817
     atom   22 type  4   force =     1.55724260    5.21252172   -9.90637308
     atom   23 type  1   force =     0.43466366    0.13299528   -1.17542416
     atom   24 type  4   force =     1.24480302   -6.88533957   -9.24130563
     atom   25 type  1   force =    -2.15221508    2.36554043   -1.88891782
     atom   26 type  1   force =     0.17211791    1.72698932   -0.09769164
     atom   27 type  4   force =    -9.90097363    3.98644460    4.50063239
     atom   28 type  1   force =     2.81474619    0.67153399    1.87161773
     atom   29 type  3   force =     0.14789002    1.85021804   -2.30821241
     atom   30 type  3   force =    -2.34555004   -0.91924405   -1.51874501
     atom   31 type  2   force =    -2.64228276    0.91400413   -4.30471172
     atom   32 type  4   force =    -8.99522807    4.87123037   -1.32090144
     atom   33 type  3   force =    -1.19758890    2.58812720    0.65562341
     atom   34 type  3   force =    -2.09579259   -0.04704102   -1.84151598
     atom   35 type  2   force =    -3.62009020    2.95535002   -1.04712817
     atom   36 type  4   force =    -1.55724260    5.21252172    9.90637308
     atom   37 type  1   force =    -0.43466366    0.13299528    1.17542416
     atom   38 type  4   force =    -1.24480302   -6.88533957    9.24130563
     atom   39 type  1   force =     2.15221508    2.36554043    1.88891782
     atom   40 type  1   force =    -0.17211791    1.72698932    0.09769164
     atom   41 type  4   force =     9.90097363    3.98644460   -4.50063239
     atom   42 type  1   force =    -2.81474619    0.67153399   -1.87161773
     atom   43 type  3   force =     0.14789002   -1.85021804   -2.30821241
     atom   44 type  3   force =    -2.34555004    0.91924405   -1.51874501
     atom   45 type  2   force =    -2.64228276   -0.91400413   -4.30471172
     atom   46 type  4   force =    -8.99522807   -4.87123037   -1.32090144
     atom   47 type  3   force =    -1.19758890   -2.58812720    0.65562341
     atom   48 type  3   force =    -2.09579259    0.04704102   -1.84151598
     atom   49 type  2   force =    -3.62009020   -2.95535002   -1.04712817
     atom   50 type  4   force =    -1.55724260   -5.21252172    9.90637308
     atom   51 type  1   force =    -0.43466366   -0.13299528    1.17542416
     atom   52 type  4   force =    -1.24480302    6.88533957    9.24130563
     atom   53 type  1   force =     2.15221508   -2.36554043    1.88891782
     atom   54 type  1   force =    -0.17211791   -1.72698932    0.09769164
     atom   55 type  4   force =     9.90097363   -3.98644460   -4.50063239
     atom   56 type  1   force =    -2.81474619   -0.67153399   -1.87161773
     The core correction contribution to forces
     atom    1 type  1   force =    -0.00294353   -0.00653028   -0.00180901
     atom    2 type  4   force =     0.01881955    0.00363269   -0.01206085
     atom    3 type  1   force =     0.00040065    0.00178353    0.00003947
     atom    4 type  1   force =     0.00929538    0.00630520    0.00143393
     atom    5 type  4   force =    -0.00118652   -0.01447615    0.01740487
     atom    6 type  1   force =    -0.00126179   -0.00165630   -0.00008542
     atom    7 type  4   force =    -0.00423376    0.00889654    0.02038408
     atom    8 type  2   force =    -0.01455930    0.01039593   -0.00497551
     atom    9 type  3   force =     0.00000000    0.00000000    0.00000000
     atom   10 type  3   force =     0.00000000    0.00000000    0.00000000
     atom   11 type  4   force =    -0.01766618    0.01175162   -0.00645804
     atom   12 type  2   force =    -0.00892999    0.00410331   -0.01602901
     atom   13 type  3   force =     0.00000000    0.00000000    0.00000000
     atom   14 type  3   force =     0.00000000    0.00000000    0.00000000
     atom   15 type  3   force =     0.00000000    0.00000000    0.00000000
     atom   16 type  3   force =     0.00000000    0.00000000    0.00000000
     atom   17 type  2   force =    -0.00892999   -0.00410331   -0.01602901
     atom   18 type  4   force =    -0.01766618   -0.01175162   -0.00645804
     atom   19 type  3   force =     0.00000000    0.00000000    0.00000000
     atom   20 type  3   force =     0.00000000    0.00000000    0.00000000
     atom   21 type  2   force =    -0.01455930   -0.01039593   -0.00497551
     atom   22 type  4   force =    -0.00423376   -0.00889654    0.02038408
     atom   23 type  1   force =    -0.00126179    0.00165630   -0.00008542
     atom   24 type  4   force =    -0.00118652    0.01447615    0.01740487
     atom   25 type  1   force =     0.00929538   -0.00630520    0.00143393
     atom   26 type  1   force =     0.00040065   -0.00178353    0.00003947
     atom   27 type  4   force =     0.01881955   -0.00363269   -0.01206085
     atom   28 type  1   force =    -0.00294353    0.00653028   -0.00180901
     atom   29 type  3   force =     0.00000000    0.00000000    0.00000000
     atom   30 type  3   force =     0.00000000    0.00000000    0.00000000
     atom   31 type  2   force =     0.00892999   -0.00410331    0.01602901
     atom   32 type  4   force =     0.01766618   -0.01175162    0.00645804
     atom   33 type  3   force =     0.00000000    0.00000000    0.00000000
     atom   34 type  3   force =     0.00000000    0.00000000    0.00000000
     atom   35 type  2   force =     0.01455930   -0.01039593    0.00497551
     atom   36 type  4   force =     0.00423376   -0.00889654   -0.02038408
     atom   37 type  1   force =     0.00126179    0.00165630    0.00008542
     atom   38 type  4   force =     0.00118652    0.01447615   -0.01740487
     atom   39 type  1   force =    -0.00929538   -0.00630520   -0.00143393
     atom   40 type  1   force =    -0.00040065   -0.00178353   -0.00003947
     atom   41 type  4   force =    -0.01881955   -0.00363269    0.01206085
     atom   42 type  1   force =     0.00294353    0.00653028    0.00180901
     atom   43 type  3   force =     0.00000000    0.00000000    0.00000000
     atom   44 type  3   force =     0.00000000    0.00000000    0.00000000
     atom   45 type  2   force =     0.00892999    0.00410331    0.01602901
     atom   46 type  4   force =     0.01766618    0.01175162    0.00645804
     atom   47 type  3   force =     0.00000000    0.00000000    0.00000000
     atom   48 type  3   force =     0.00000000    0.00000000    0.00000000
     atom   49 type  2   force =     0.01455930    0.01039593    0.00497551
     atom   50 type  4   force =     0.00423376    0.00889654   -0.02038408
     atom   51 type  1   force =     0.00126179   -0.00165630    0.00008542
     atom   52 type  4   force =     0.00118652   -0.01447615   -0.01740487
     atom   53 type  1   force =    -0.00929538    0.00630520   -0.00143393
     atom   54 type  1   force =    -0.00040065    0.00178353   -0.00003947
     atom   55 type  4   force =    -0.01881955    0.00363269    0.01206085
     atom   56 type  1   force =     0.00294353   -0.00653028    0.00180901
     The Hubbard contrib.    to forces
     atom    1 type  1   force =     0.00000000    0.00000000    0.00000000
     atom    2 type  4   force =     0.00000000    0.00000000    0.00000000
     atom    3 type  1   force =     0.00000000    0.00000000    0.00000000
     atom    4 type  1   force =     0.00000000    0.00000000    0.00000000
     atom    5 type  4   force =     0.00000000    0.00000000    0.00000000
     atom    6 type  1   force =     0.00000000    0.00000000    0.00000000
     atom    7 type  4   force =     0.00000000    0.00000000    0.00000000
     atom    8 type  2   force =     0.00000000    0.00000000    0.00000000
     atom    9 type  3   force =     0.00000000    0.00000000    0.00000000
     atom   10 type  3   force =     0.00000000    0.00000000    0.00000000
     atom   11 type  4   force =     0.00000000    0.00000000    0.00000000
     atom   12 type  2   force =     0.00000000    0.00000000    0.00000000
     atom   13 type  3   force =     0.00000000    0.00000000    0.00000000
     atom   14 type  3   force =     0.00000000    0.00000000    0.00000000
     atom   15 type  3   force =     0.00000000    0.00000000    0.00000000
     atom   16 type  3   force =     0.00000000    0.00000000    0.00000000
     atom   17 type  2   force =     0.00000000    0.00000000    0.00000000
     atom   18 type  4   force =     0.00000000    0.00000000    0.00000000
     atom   19 type  3   force =     0.00000000    0.00000000    0.00000000
     atom   20 type  3   force =     0.00000000    0.00000000    0.00000000
     atom   21 type  2   force =     0.00000000    0.00000000    0.00000000
     atom   22 type  4   force =     0.00000000    0.00000000    0.00000000
     atom   23 type  1   force =     0.00000000    0.00000000    0.00000000
     atom   24 type  4   force =     0.00000000    0.00000000    0.00000000
     atom   25 type  1   force =     0.00000000    0.00000000    0.00000000
     atom   26 type  1   force =     0.00000000    0.00000000    0.00000000
     atom   27 type  4   force =     0.00000000    0.00000000    0.00000000
     atom   28 type  1   force =     0.00000000    0.00000000    0.00000000
     atom   29 type  3   force =     0.00000000    0.00000000    0.00000000
     atom   30 type  3   force =     0.00000000    0.00000000    0.00000000
     atom   31 type  2   force =     0.00000000    0.00000000    0.00000000
     atom   32 type  4   force =     0.00000000    0.00000000    0.00000000
     atom   33 type  3   force =     0.00000000    0.00000000    0.00000000
     atom   34 type  3   force =     0.00000000    0.00000000    0.00000000
     atom   35 type  2   force =     0.00000000    0.00000000    0.00000000
     atom   36 type  4   force =     0.00000000    0.00000000    0.00000000
     atom   37 type  1   force =     0.00000000    0.00000000    0.00000000
     atom   38 type  4   force =     0.00000000    0.00000000    0.00000000
     atom   39 type  1   force =     0.00000000    0.00000000    0.00000000
     atom   40 type  1   force =     0.00000000    0.00000000    0.00000000
     atom   41 type  4   force =     0.00000000    0.00000000    0.00000000
     atom   42 type  1   force =     0.00000000    0.00000000    0.00000000
     atom   43 type  3   force =     0.00000000    0.00000000    0.00000000
     atom   44 type  3   force =     0.00000000    0.00000000    0.00000000
     atom   45 type  2   force =     0.00000000    0.00000000    0.00000000
     atom   46 type  4   force =     0.00000000    0.00000000    0.00000000
     atom   47 type  3   force =     0.00000000    0.00000000    0.00000000
     atom   48 type  3   force =     0.00000000    0.00000000    0.00000000
     atom   49 type  2   force =     0.00000000    0.00000000    0.00000000
     atom   50 type  4   force =     0.00000000    0.00000000    0.00000000
     atom   51 type  1   force =     0.00000000    0.00000000    0.00000000
     atom   52 type  4   force =     0.00000000    0.00000000    0.00000000
     atom   53 type  1   force =     0.00000000    0.00000000    0.00000000
     atom   54 type  1   force =     0.00000000    0.00000000    0.00000000
     atom   55 type  4   force =     0.00000000    0.00000000    0.00000000
     atom   56 type  1   force =     0.00000000    0.00000000    0.00000000
     The SCF correction term to forces
     atom    1 type  1   force =     0.00012620   -0.00002948   -0.00001206
     atom    2 type  4   force =    -0.00009844   -0.00007840   -0.00002081
     atom    3 type  1   force =     0.00010586   -0.00019310   -0.00039789
     atom    4 type  1   force =     0.00003951   -0.00011176   -0.00000892
     atom    5 type  4   force =     0.00004174   -0.00001754    0.00003154
     atom    6 type  1   force =     0.00002590   -0.00025318    0.00024969
     atom    7 type  4   force =     0.00003035   -0.00012808   -0.00026170
     atom    8 type  2   force =     0.00007588    0.00000409   -0.00006992
     atom    9 type  3   force =     0.00000691   -0.00000459   -0.00000498
     atom   10 type  3   force =    -0.00000344    0.00001474   -0.00000137
     atom   11 type  4   force =     0.00005398   -0.00009390    0.00008317
     atom   12 type  2   force =    -0.00000950    0.00005116    0.00004883
     atom   13 type  3   force =     0.00000734   -0.00000018    0.00000074
     atom   14 type  3   force =     0.00001356   -0.00000099    0.00000074
     atom   15 type  3   force =     0.00001356    0.00000099    0.00000074
     atom   16 type  3   force =     0.00000734    0.00000018    0.00000074
     atom   17 type  2   force =    -0.00000950   -0.00005116    0.00004883
     atom   18 type  4   force =     0.00005398    0.00009390    0.00008317
     atom   19 type  3   force =    -0.00000344   -0.00001474   -0.00000137
     atom   20 type  3   force =     0.00000691    0.00000459   -0.00000498
     atom   21 type  2   force =     0.00007588   -0.00000409   -0.00006992
     atom   22 type  4   force =     0.00003035    0.00012808   -0.00026170
     atom   23 type  1   force =     0.00002590    0.00025318    0.00024969
     atom   24 type  4   force =     0.00004174    0.00001754    0.00003154
     atom   25 type  1   force =     0.00003951    0.00011176   -0.00000892
     atom   26 type  1   force =     0.00010586    0.00019310   -0.00039789
     atom   27 type  4   force =    -0.00009844    0.00007840   -0.00002081
     atom   28 type  1   force =     0.00012620    0.00002948   -0.00001206
     atom   29 type  3   force =    -0.00001356    0.00000099   -0.00000074
     atom   30 type  3   force =    -0.00000734    0.00000018   -0.00000074
     atom   31 type  2   force =     0.00000950   -0.00005116   -0.00004883
     atom   32 type  4   force =    -0.00005398    0.00009390   -0.00008317
     atom   33 type  3   force =     0.00000344   -0.00001474    0.00000137
     atom   34 type  3   force =    -0.00000691    0.00000459    0.00000498
     atom   35 type  2   force =    -0.00007588   -0.00000409    0.00006992
     atom   36 type  4   force =    -0.00003035    0.00012808    0.00026170
     atom   37 type  1   force =    -0.00002590    0.00025318   -0.00024969
     atom   38 type  4   force =    -0.00004174    0.00001754   -0.00003154
     atom   39 type  1   force =    -0.00003951    0.00011176    0.00000892
     atom   40 type  1   force =    -0.00010586    0.00019310    0.00039789
     atom   41 type  4   force =     0.00009844    0.00007840    0.00002081
     atom   42 type  1   force =    -0.00012620    0.00002948    0.00001206
     atom   43 type  3   force =    -0.00001356   -0.00000099   -0.00000074
     atom   44 type  3   force =    -0.00000734   -0.00000018   -0.00000074
     atom   45 type  2   force =     0.00000950    0.00005116   -0.00004883
     atom   46 type  4   force =    -0.00005398   -0.00009390   -0.00008317
     atom   47 type  3   force =     0.00000344    0.00001474    0.00000137
     atom   48 type  3   force =    -0.00000691   -0.00000459    0.00000498
     atom   49 type  2   force =    -0.00007588    0.00000409    0.00006992
     atom   50 type  4   force =    -0.00003035   -0.00012808    0.00026170
     atom   51 type  1   force =    -0.00002590   -0.00025318   -0.00024969
     atom   52 type  4   force =    -0.00004174   -0.00001754   -0.00003154
     atom   53 type  1   force =    -0.00003951   -0.00011176    0.00000892
     atom   54 type  1   force =    -0.00010586   -0.00019310    0.00039789
     atom   55 type  4   force =     0.00009844   -0.00007840    0.00002081
     atom   56 type  1   force =    -0.00012620   -0.00002948    0.00001206

     Total force =     1.168995     Total SCF correction =     0.001421


     entering subroutine stress ...

          total   stress  (Ry/bohr**3)                   (kbar)     P=  146.64
   0.00104114   0.00000000   0.00013563        153.16      0.00     19.95
   0.00000000   0.00100023   0.00000000          0.00    147.14      0.00
   0.00013563   0.00000000   0.00094919         19.95      0.00    139.63

     kinetic stress (kbar)  15109.16      0.00    336.79
                                0.00  15505.94      0.00
                              336.79      0.00  15063.73

     local   stress (kbar) -15843.09      0.00   8035.15
                                0.00  -8939.88      0.00
                             8035.15      0.00 -11982.03

     nonloc. stress (kbar)   1016.24      0.00     11.18
                                0.00   1026.29      0.00
                               11.18      0.00    987.38

     hartree stress (kbar)   7141.79      0.00  -2935.60
                                0.00   5092.68      0.00
                            -2935.60      0.00   5663.21

     exc-cor stress (kbar)  -2178.02     -0.00    -11.15
                               -0.00  -2197.90     -0.00
                              -11.15     -0.00  -2183.66

     corecor stress (kbar)  -1130.91     -0.00     -2.83
                               -0.00  -1132.80     -0.00
                               -2.83     -0.00  -1130.64

     ewald   stress (kbar)  -3962.00      0.00  -5413.60
                                0.00  -9207.19      0.00
                            -5413.60      0.00  -6278.35

     hubbard stress (kbar)      0.00      0.00      0.00
                                0.00      0.00      0.00
                                0.00      0.00      0.00

     london  stress (kbar)      0.00      0.00      0.00
                                0.00      0.00      0.00
                                0.00      0.00      0.00

     XDM     stress (kbar)      0.00      0.00      0.00
                                0.00      0.00      0.00
                                0.00      0.00      0.00

     dft-nl  stress (kbar)      0.00      0.00      0.00
                                0.00      0.00      0.00
                                0.00      0.00      0.00

     TS-vdW  stress (kbar)      0.00      0.00      0.00
                                0.00      0.00      0.00
                                0.00      0.00      0.00



     Writing output data file scf.pbe.ec-60.kp-444.HMX-792930.np-8.300K.save

     init_run     :    142.58s CPU    130.49s WALL (       1 calls)
     electrons    :   2846.82s CPU   2328.33s WALL (       1 calls)
     forces       :     81.90s CPU     73.49s WALL (       1 calls)
     stress       :    215.01s CPU    212.47s WALL (       1 calls)

     Called by init_run:
     wfcinit      :     76.70s CPU     61.28s WALL (       1 calls)
     potinit      :     23.71s CPU     24.34s WALL (       1 calls)

     Called by electrons:
     c_bands      :   2554.71s CPU   2046.28s WALL (      12 calls)
     sum_band     :    250.32s CPU    237.87s WALL (      12 calls)
     v_of_rho     :     10.03s CPU     10.44s WALL (      13 calls)
     v_h          :      0.64s CPU      0.67s WALL (      13 calls)
     v_xc         :     10.91s CPU     11.35s WALL (      15 calls)
     newd         :     19.53s CPU     19.93s WALL (      13 calls)
     PAW_pot      :     11.40s CPU     11.51s WALL (      13 calls)
     mix_rho      :      2.28s CPU      2.43s WALL (      12 calls)

     Called by c_bands:
     init_us_2    :     10.66s CPU     10.89s WALL (     432 calls)
     cegterg      :   2524.45s CPU   2010.83s WALL (     192 calls)

     Called by sum_band:
     sum_band:bec :      0.31s CPU      0.31s WALL (     192 calls)
     addusdens    :     19.65s CPU     21.65s WALL (      12 calls)

     Called by *egterg:
     h_psi        :   1217.10s CPU   1064.73s WALL (    1145 calls)
     s_psi        :    271.50s CPU    146.66s WALL (    1145 calls)
     g_psi        :      6.62s CPU      6.69s WALL (     937 calls)
     cdiaghg      :    383.26s CPU    342.39s WALL (    1129 calls)
     cegterg:over :    306.09s CPU    212.94s WALL (     937 calls)
     cegterg:upda :    206.38s CPU    110.13s WALL (     937 calls)
     cegterg:last :    106.11s CPU     57.86s WALL (     208 calls)

     Called by h_psi:
     h_psi:vloc   :    642.17s CPU    716.26s WALL (    1145 calls)
     h_psi:vnl    :    568.86s CPU    342.34s WALL (    1145 calls)
     add_vuspsi   :    274.45s CPU    148.30s WALL (    1145 calls)

     General routines
     calbec       :    416.35s CPU    277.48s WALL (    1417 calls)
     fft          :      9.16s CPU     11.14s WALL (     229 calls)
     ffts         :      0.18s CPU      0.27s WALL (      25 calls)
     fftw         :    541.64s CPU    617.65s WALL (  162808 calls)
     interpolate  :      1.41s CPU      1.61s WALL (      25 calls)
     davcio       :      0.24s CPU     16.05s WALL (      16 calls)

     Parallel routines
     fft_scatter  :    197.41s CPU    257.44s WALL (  163062 calls)

     PAW routines
     PAW_pot      :     11.40s CPU     11.51s WALL (      13 calls)
     PAW_symme    :      0.02s CPU      0.03s WALL (      25 calls)

     PWSCF        : 54m48.73s CPU    46m 5.91s WALL


   This run was terminated on:   8:14:42  25Jun2016            

=------------------------------------------------------------------------------=
   JOB DONE.
=------------------------------------------------------------------------------=
