
     Program PWSCF v.5.3.0 (svn rev. 11974) starts on 25Jun2016 at 15:58: 9 

     This program is part of the open-source Quantum ESPRESSO suite
     for quantum simulation of materials; please cite
         "P. Giannozzi et al., J. Phys.:Condens. Matter 21 395502 (2009);
          URL http://www.quantum-espresso.org", 
     in publications or presentations arising from this work. More details at
     http://www.quantum-espresso.org/quote

     Parallel version (MPI), running on     8 processors
     R & G space division:  proc/nbgrp/npool/nimage =       8
     Waiting for input...
     Reading input from standard input
Warning: card    &IONS ignored
Warning: card TRUST_RADIUS_MAX=0.2 ignored
Warning: card / ignored
Warning: card     &CELL ignored
Warning: card CELL_DYNAMICS='BFGS' ignored
Warning: card / ignored

     Current dimensions of program PWSCF are:
     Max number of different atomic species (ntypx) = 10
     Max number of k-points (npk) =  40000
     Max angular momentum in pseudopotentials (lmaxx) =  3
               file N.pbe-n-kjpaw_psl.1.0.0.UPF: wavefunction(s)  2S renormalized
               file C.pbe-n-kjpaw_psl.1.0.0.UPF: wavefunction(s)  2S 2P renormalized
               file H.pbe-kjpaw_psl.1.0.0.UPF: wavefunction(s)  1S renormalized
               file O.pbe-n-kjpaw_psl.1.0.0.UPF: wavefunction(s)  2S 2P renormalized

     Subspace diagonalization in iterative solution of the eigenvalue problem:
     a serial algorithm will be used


     Parallelization info
     --------------------
     sticks:   dense  smooth     PW     G-vecs:    dense   smooth      PW
     Min        4606    1842    479               562916   142379   19044
     Max        4607    1843    480               562918   142409   19047
     Sum       36855   14743   3835              4503341  1139201  152357


     Title: 
     HMX-scf--kp-444-ec-180-300K                                                


     bravais-lattice index     =            0
     lattice parameter (alat)  =       1.8897  a.u.
     unit-cell volume          =    3491.9260 (a.u.)^3
     number of atoms/cell      =           56
     number of atomic types    =            4
     number of electrons       =       224.00
     number of Kohn-Sham states=          112
     kinetic-energy cutoff     =     180.0000  Ry
     charge density cutoff     =    1800.0000  Ry
     convergence threshold     =      1.0E-06
     mixing beta               =       0.7000
     number of iterations used =            8  plain     mixing
     Exchange-correlation      =  SLA  PW   PBX  PBC ( 1  4  3  4 0 0)

     celldm(1)=   1.889726  celldm(2)=   0.000000  celldm(3)=   0.000000
     celldm(4)=   0.000000  celldm(5)=   0.000000  celldm(6)=   0.000000

     crystal axes: (cart. coord. in units of alat)
               a(1) = (   6.525500   0.000000   0.000000 )  
               a(2) = (   0.000000  11.036900   0.000000 )  
               a(3) = (  -1.615186   0.000000   7.184683 )  

     reciprocal axes: (cart. coord. in units 2 pi/alat)
               b(1) = (  0.153245 -0.000000  0.034451 )  
               b(2) = (  0.000000  0.090605 -0.000000 )  
               b(3) = (  0.000000  0.000000  0.139185 )  


     PseudoPot. # 1 for  N read from file:
     /users/majewski/.data/PSEUDOPOTENTIALS/N.pbe-n-kjpaw_psl.1.0.0.UPF
     MD5 check sum: c21df8f53e59d08c3548513d559cdda6
     Pseudo is Projector augmented-wave + core cor, Zval =  5.0
     Generated using "atomic" code by A. Dal Corso  v.5.3.0 svn rev. 11974
     Shape of augmentation charge: PSQ
     Using radial grid of 1085 points,  4 beta functions with: 
                l(1) =   0
                l(2) =   0
                l(3) =   1
                l(4) =   1
     Q(r) pseudized with 0 coefficients 


     PseudoPot. # 2 for  C read from file:
     /users/majewski/.data/PSEUDOPOTENTIALS/C.pbe-n-kjpaw_psl.1.0.0.UPF
     MD5 check sum: 2ba8448e293caca687844dde9a1b88a8
     Pseudo is Projector augmented-wave + core cor, Zval =  4.0
     Generated using "atomic" code by A. Dal Corso  v.5.3.0 svn rev. 11974
     Shape of augmentation charge: PSQ
     Using radial grid of 1073 points,  4 beta functions with: 
                l(1) =   0
                l(2) =   0
                l(3) =   1
                l(4) =   1
     Q(r) pseudized with 0 coefficients 


     PseudoPot. # 3 for  H read from file:
     /users/majewski/.data/PSEUDOPOTENTIALS/H.pbe-kjpaw_psl.1.0.0.UPF
     MD5 check sum: bc0feb48a24907a0b97fa6ee2d589a29
     Pseudo is Projector augmented-wave, Zval =  1.0
     Generated using "atomic" code by A. Dal Corso  v.5.3.0 svn rev. 11974
     Shape of augmentation charge: PSQ
     Using radial grid of  929 points,  2 beta functions with: 
                l(1) =   0
                l(2) =   0
     Q(r) pseudized with 0 coefficients 


     PseudoPot. # 4 for  O read from file:
     /users/majewski/.data/PSEUDOPOTENTIALS/O.pbe-n-kjpaw_psl.1.0.0.UPF
     MD5 check sum: 9c0ade6c043cf4a781bde3908a3a8206
     Pseudo is Projector augmented-wave + core cor, Zval =  6.0
     Generated using "atomic" code by A. Dal Corso  v.5.3.0 svn rev. 11974
     Shape of augmentation charge: PSQ
     Using radial grid of 1095 points,  4 beta functions with: 
                l(1) =   0
                l(2) =   0
                l(3) =   1
                l(4) =   1
     Q(r) pseudized with 0 coefficients 


     atomic species   valence    mass     pseudopotential
        N              5.00    14.00670      N( 1.00)
        C              4.00    12.01100      C( 1.00)
        H              1.00     1.00790      H( 1.00)
        O              6.00    15.99940      O( 1.00)

      4 Sym. Ops., with inversion, found ( 2 have fractional translation)


                                    s                        frac. trans.

      isym =  1     identity                                     

 cryst.   s( 1) = (     1          0          0      )
                  (     0          1          0      )
                  (     0          0          1      )

 cart.    s( 1) = (  1.0000000  0.0000000  0.0000000 )
                  (  0.0000000  1.0000000  0.0000000 )
                  (  0.0000000  0.0000000  1.0000000 )


      isym =  2     180 deg rotation - cart. axis [0,1,0]        

 cryst.   s( 2) = (    -1          0          0      )    f =(  0.5000000 )
                  (     0          1          0      )       (  0.5000000 )
                  (     0          0         -1      )       (  0.5000000 )

 cart.    s( 2) = ( -1.0000000  0.0000000 -0.0000000 )    f =(  2.4551571 )
                  (  0.0000000  1.0000000  0.0000000 )       (  5.5184500 )
                  (  0.0000000  0.0000000 -1.0000000 )       (  3.5923415 )


      isym =  3     inversion                                    

 cryst.   s( 3) = (    -1          0          0      )
                  (     0         -1          0      )
                  (     0          0         -1      )

 cart.    s( 3) = ( -1.0000000  0.0000000 -0.0000000 )
                  (  0.0000000 -1.0000000  0.0000000 )
                  (  0.0000000  0.0000000 -1.0000000 )


      isym =  4     inv. 180 deg rotation - cart. axis [0,1,0]   

 cryst.   s( 4) = (     1          0          0      )    f =(  0.5000000 )
                  (     0         -1          0      )       (  0.5000000 )
                  (     0          0          1      )       ( -0.5000000 )

 cart.    s( 4) = (  1.0000000  0.0000000  0.0000000 )    f =(  4.0703429 )
                  (  0.0000000 -1.0000000  0.0000000 )       (  5.5184500 )
                  (  0.0000000  0.0000000  1.0000000 )       ( -3.5923415 )


   Cartesian axes

     site n.     atom                  positions (alat units)
         1           N   tau(   1) = (  -0.8668413   6.8692562   3.3186051  )
         2           O   tau(   2) = (   1.0599706   7.9401666   3.1425804  )
         3           N   tau(   3) = (   0.0533091   7.7556296   3.8208145  )
         4           N   tau(   4) = (  -2.0680987   5.7890748   5.0659200  )
         5           O   tau(   5) = (  -3.2533088   4.7280976   6.6225535  )
         6           N   tau(   6) = (  -3.2451729   5.5281625   5.7010460  )
         7           O   tau(   7) = (  -0.1871403   8.2413636   4.9136048  )
         8           C   tau(   8) = (  -2.1362925   6.7804091   3.9788775  )
         9           H   tau(   9) = (  -2.8191539   6.5194968   3.3415961  )
        10           H   tau(  10) = (  -2.3765906   7.6474680   4.3424225  )
        11           O   tau(  11) = (  -4.2135894   6.1790085   5.3101993  )
        12           C   tau(  12) = (  -0.5998445   6.2495343   2.0325468  )
        13           H   tau(  13) = (  -1.4176786   5.8230684   1.7315086  )
        14           H   tau(  14) = (  -0.3318567   6.8947514   1.3600605  )
        15           H   tau(  15) = (   2.1233004  -1.3763014   4.9524020  )
        16           H   tau(  16) = (   1.0374785  -0.3046184   5.3238502  )
        17           C   tau(  17) = (   1.8553126  -0.7310843   5.6248884  )
        18           O   tau(  18) = (  -1.7584323  -0.6605585   8.9025408  )
        19           H   tau(  19) = (   0.0785665  -2.1290180   7.9347640  )
        20           H   tau(  20) = (  -0.3639967  -1.0010468   6.9339376  )
        21           C   tau(  21) = (   0.3188646  -1.2619591   7.5712190  )
        22           O   tau(  22) = (   2.2680169  -2.7229136   8.5059463  )
        23           N   tau(  23) = (  -0.7900158  -0.0097125   9.2933876  )
        24           O   tau(  24) = (  -0.7981517   0.7903524  10.2148950  )
        25           N   tau(  25) = (   0.3870584  -0.2706248   8.6582616  )
        26           N   tau(  26) = (   2.5084662  -2.2371796   7.4131560  )
        27           O   tau(  27) = (   3.5151277  -2.4217166   6.7349219  )
        28           N   tau(  28) = (   1.5883158  -1.3508062   6.9109467  )
        29           H   tau(  29) = (  -1.2833291   4.1421486   5.8246226  )
        30           H   tau(  30) = (  -0.1975072   5.2138316   5.4531745  )
        31           C   tau(  31) = (  -1.0153413   4.7873657   5.1521362  )
        32           O   tau(  32) = (   2.5984037   4.8578915   1.8744838  )
        33           H   tau(  33) = (   0.7614048   3.3894320   2.8422606  )
        34           H   tau(  34) = (   1.2039681   4.5174032   3.8430870  )
        35           C   tau(  35) = (   0.5211068   4.2564909   3.2058056  )
        36           O   tau(  36) = (  -1.4280455   2.7955364   2.2710783  )
        37           N   tau(  37) = (   1.6299871   5.5087375   1.4836371  )
        38           O   tau(  38) = (   1.6381231   6.3088024   0.5621296  )
        39           N   tau(  39) = (   0.4529129   5.2478252   2.1187630  )
        40           N   tau(  40) = (  -1.6684949   3.2812704   3.3638686  )
        41           O   tau(  41) = (  -2.6751564   3.0967334   4.0421027  )
        42           N   tau(  42) = (  -0.7483445   4.1676438   3.8660780  )
        43           H   tau(  43) = (   1.1718280   1.3763014   9.4169641  )
        44           H   tau(  44) = (   2.2576499   0.3046184   9.0455160  )
        45           C   tau(  45) = (   1.4398158   0.7310843   8.7444778  )
        46           O   tau(  46) = (   5.0535608   0.6605585   5.4668254  )
        47           H   tau(  47) = (   3.2165619   2.1290180   6.4346022  )
        48           H   tau(  48) = (   3.6591252   1.0010468   7.4354285  )
        49           C   tau(  49) = (   2.9762639   1.2619591   6.7981471  )
        50           O   tau(  50) = (   1.0271116   2.7229136   5.8634199  )
        51           N   tau(  51) = (   4.0851442   0.0097125   5.0759786  )
        52           O   tau(  52) = (   4.0932802  -0.7903524   4.1544711  )
        53           N   tau(  53) = (   2.9080700   0.2706248   5.7111046  )
        54           N   tau(  54) = (   0.7866622   2.2371796   6.9562102  )
        55           O   tau(  55) = (  -0.2199993   2.4217166   7.6344442  )
        56           N   tau(  56) = (   1.7068126   1.3508062   7.4584195  )

   Crystallographic axes

     site n.     atom                  positions (cryst. coord.)
         1           N   tau(   1) = ( -0.0185100  0.6223900  0.4619000  )
         2           O   tau(   2) = (  0.2707000  0.7194200  0.4374000  )
         3           N   tau(   3) = (  0.1398000  0.7027000  0.5318000  )
         4           N   tau(   4) = ( -0.1424000  0.5245200  0.7051000  )
         5           O   tau(   5) = ( -0.2704000  0.4283900  0.9217600  )
         6           N   tau(   6) = ( -0.3009000  0.5008800  0.7935000  )
         7           O   tau(   7) = (  0.1406000  0.7467100  0.6839000  )
         8           C   tau(   8) = ( -0.1903000  0.6143400  0.5538000  )
         9           H   tau(   9) = ( -0.3169000  0.5907000  0.4651000  )
        10           H   tau(  10) = ( -0.2146000  0.6929000  0.6044000  )
        11           O   tau(  11) = ( -0.4627700  0.5598500  0.7391000  )
        12           C   tau(  12) = ( -0.0219000  0.5662400  0.2829000  )
        13           H   tau(  13) = ( -0.1576000  0.5276000  0.2410000  )
        14           H   tau(  14) = ( -0.0040000  0.6247000  0.1893000  )
        15           H   tau(  15) = (  0.4960000 -0.1247000  0.6893000  )
        16           H   tau(  16) = (  0.3424000 -0.0276000  0.7410000  )
        17           C   tau(  17) = (  0.4781000 -0.0662400  0.7829000  )
        18           O   tau(  18) = (  0.0372300 -0.0598500  1.2391000  )
        19           H   tau(  19) = (  0.2854000 -0.1929000  1.1044000  )
        20           H   tau(  20) = (  0.1831000 -0.0907000  0.9651000  )
        21           C   tau(  21) = (  0.3097000 -0.1143400  1.0538000  )
        22           O   tau(  22) = (  0.6406000 -0.2467100  1.1839000  )
        23           N   tau(  23) = (  0.1991000 -0.0008800  1.2935000  )
        24           O   tau(  24) = (  0.2296000  0.0716100  1.4217600  )
        25           N   tau(  25) = (  0.3576000 -0.0245200  1.2051000  )
        26           N   tau(  26) = (  0.6398000 -0.2027000  1.0318000  )
        27           O   tau(  27) = (  0.7707000 -0.2194200  0.9374000  )
        28           N   tau(  28) = (  0.4814900 -0.1223900  0.9619000  )
        29           H   tau(  29) = (  0.0040000  0.3753000  0.8107000  )
        30           H   tau(  30) = (  0.1576000  0.4724000  0.7590000  )
        31           C   tau(  31) = (  0.0219000  0.4337600  0.7171000  )
        32           O   tau(  32) = (  0.4627700  0.4401500  0.2609000  )
        33           H   tau(  33) = (  0.2146000  0.3071000  0.3956000  )
        34           H   tau(  34) = (  0.3169000  0.4093000  0.5349000  )
        35           C   tau(  35) = (  0.1903000  0.3856600  0.4462000  )
        36           O   tau(  36) = ( -0.1406000  0.2532900  0.3161000  )
        37           N   tau(  37) = (  0.3009000  0.4991200  0.2065000  )
        38           O   tau(  38) = (  0.2704000  0.5716100  0.0782400  )
        39           N   tau(  39) = (  0.1424000  0.4754800  0.2949000  )
        40           N   tau(  40) = ( -0.1398000  0.2973000  0.4682000  )
        41           O   tau(  41) = ( -0.2707000  0.2805800  0.5626000  )
        42           N   tau(  42) = (  0.0185100  0.3776100  0.5381000  )
        43           H   tau(  43) = (  0.5040000  0.1247000  1.3107000  )
        44           H   tau(  44) = (  0.6576000  0.0276000  1.2590000  )
        45           C   tau(  45) = (  0.5219000  0.0662400  1.2171000  )
        46           O   tau(  46) = (  0.9627700  0.0598500  0.7609000  )
        47           H   tau(  47) = (  0.7146000  0.1929000  0.8956000  )
        48           H   tau(  48) = (  0.8169000  0.0907000  1.0349000  )
        49           C   tau(  49) = (  0.6903000  0.1143400  0.9462000  )
        50           O   tau(  50) = (  0.3594000  0.2467100  0.8161000  )
        51           N   tau(  51) = (  0.8009000  0.0008800  0.7065000  )
        52           O   tau(  52) = (  0.7704000 -0.0716100  0.5782400  )
        53           N   tau(  53) = (  0.6424000  0.0245200  0.7949000  )
        54           N   tau(  54) = (  0.3602000  0.2027000  0.9682000  )
        55           O   tau(  55) = (  0.2293000  0.2194200  1.0626000  )
        56           N   tau(  56) = (  0.5185100  0.1223900  1.0381000  )

     number of k points=    16
                       cart. coord. in units 2pi/alat
        k(    1) = (   0.0191556   0.0113256   0.0217045), wk =   0.1250000
        k(    2) = (   0.0191556   0.0113256   0.0565007), wk =   0.1250000
        k(    3) = (   0.0191556   0.0113256  -0.0478880), wk =   0.1250000
        k(    4) = (   0.0191556   0.0113256  -0.0130918), wk =   0.1250000
        k(    5) = (   0.0191556   0.0339769   0.0217045), wk =   0.1250000
        k(    6) = (   0.0191556   0.0339769   0.0565007), wk =   0.1250000
        k(    7) = (   0.0191556   0.0339769  -0.0478880), wk =   0.1250000
        k(    8) = (   0.0191556   0.0339769  -0.0130918), wk =   0.1250000
        k(    9) = (   0.0574669   0.0113256   0.0303172), wk =   0.1250000
        k(   10) = (   0.0574669   0.0113256   0.0651135), wk =   0.1250000
        k(   11) = (   0.0574669   0.0113256  -0.0392753), wk =   0.1250000
        k(   12) = (   0.0574669   0.0113256  -0.0044790), wk =   0.1250000
        k(   13) = (   0.0574669   0.0339769   0.0303172), wk =   0.1250000
        k(   14) = (   0.0574669   0.0339769   0.0651135), wk =   0.1250000
        k(   15) = (   0.0574669   0.0339769  -0.0392753), wk =   0.1250000
        k(   16) = (   0.0574669   0.0339769  -0.0044790), wk =   0.1250000

                       cryst. coord.
        k(    1) = (   0.1250000   0.1250000   0.1250000), wk =   0.1250000
        k(    2) = (   0.1250000   0.1250000   0.3750000), wk =   0.1250000
        k(    3) = (   0.1250000   0.1250000  -0.3750000), wk =   0.1250000
        k(    4) = (   0.1250000   0.1250000  -0.1250000), wk =   0.1250000
        k(    5) = (   0.1250000   0.3750000   0.1250000), wk =   0.1250000
        k(    6) = (   0.1250000   0.3750000   0.3750000), wk =   0.1250000
        k(    7) = (   0.1250000   0.3750000  -0.3750000), wk =   0.1250000
        k(    8) = (   0.1250000   0.3750000  -0.1250000), wk =   0.1250000
        k(    9) = (   0.3750000   0.1250000   0.1250000), wk =   0.1250000
        k(   10) = (   0.3750000   0.1250000   0.3750000), wk =   0.1250000
        k(   11) = (   0.3750000   0.1250000  -0.3750000), wk =   0.1250000
        k(   12) = (   0.3750000   0.1250000  -0.1250000), wk =   0.1250000
        k(   13) = (   0.3750000   0.3750000   0.1250000), wk =   0.1250000
        k(   14) = (   0.3750000   0.3750000   0.3750000), wk =   0.1250000
        k(   15) = (   0.3750000   0.3750000  -0.3750000), wk =   0.1250000
        k(   16) = (   0.3750000   0.3750000  -0.1250000), wk =   0.1250000

     Dense  grid:  4503341 G-vectors     FFT dimensions: ( 180, 288, 192)

     Smooth grid:  1139201 G-vectors     FFT dimensions: ( 108, 180, 120)

     Largest allocated arrays     est. size (Mb)     dimensions
        Kohn-Sham Wavefunctions        30.45 Mb     (   17819,  112)
        NL pseudopotentials            95.71 Mb     (   17819,  352)
        Each V/rho on FFT grid         18.98 Mb     ( 1244160)
        Each G-vector array             4.29 Mb     (  562918)
        G-vector shells                 3.94 Mb     (  516887)
     Largest temporary arrays     est. size (Mb)     dimensions
        Auxiliary wavefunctions       121.81 Mb     (   17819,  448)
        Each subspace H/S matrix        3.06 Mb     (     448,  448)
        Each <psi_i|beta_j> matrix      0.60 Mb     (     352,  112)
        Arrays for rho mixing         151.88 Mb     ( 1244160,    8)

     Initial potential from superposition of free atoms

     starting charge  223.99937, renormalised to  224.00000
     Starting wfc are  176 randomized atomic wfcs
     Checking if some PAW data can be deallocated... 
       node    0, deallocated PAW data for type:  2
       node    0, deallocated PAW data for type:  3
       node    1, deallocated PAW data for type:  1
       node    2, deallocated PAW data for type:  1
       node    3, deallocated PAW data for type:  2
       node    3, deallocated PAW data for type:  3
       node    4, deallocated PAW data for type:  1
       node    5, deallocated PAW data for type:  2
       node    5, deallocated PAW data for type:  3
       node    6, deallocated PAW data for type:  1
       node    7, deallocated PAW data for type:  2
       node    7, deallocated PAW data for type:  3

     total cpu time spent up to now is      725.0 secs

     per-process dynamical memory:   892.1 Mb

     Self-consistent Calculation

     iteration #  1     ecut=   180.00 Ry     beta=0.70
     Davidson diagonalization with overlap
     ethr =  1.00E-02,  avg # of iterations =  3.0

     total cpu time spent up to now is     1810.7 secs

     total energy              =   -1279.61039278 Ry
     Harris-Foulkes estimate   =   -1283.97678852 Ry
     estimated scf accuracy    <       6.72871918 Ry

     iteration #  2     ecut=   180.00 Ry     beta=0.70
     Davidson diagonalization with overlap
     ethr =  3.00E-03,  avg # of iterations =  4.0

     total cpu time spent up to now is     3004.5 secs

     total energy              =   -1280.29424202 Ry
     Harris-Foulkes estimate   =   -1283.75780407 Ry
     estimated scf accuracy    <       6.95726010 Ry

     iteration #  3     ecut=   180.00 Ry     beta=0.70
     Davidson diagonalization with overlap
     ethr =  3.00E-03,  avg # of iterations =  4.8

     total cpu time spent up to now is     3912.5 secs

     total energy              =   -1281.78892419 Ry
     Harris-Foulkes estimate   =   -1282.01258524 Ry
     estimated scf accuracy    <       0.41286951 Ry

     iteration #  4     ecut=   180.00 Ry     beta=0.70
     Davidson diagonalization with overlap
     ethr =  1.84E-04,  avg # of iterations =  4.9

     total cpu time spent up to now is     5040.5 secs

     total energy              =   -1281.94199910 Ry
     Harris-Foulkes estimate   =   -1282.02537866 Ry
     estimated scf accuracy    <       0.18161996 Ry

     iteration #  5     ecut=   180.00 Ry     beta=0.70
     Davidson diagonalization with overlap
     ethr =  8.11E-05,  avg # of iterations =  4.0

     total cpu time spent up to now is     5960.7 secs

     total energy              =   -1281.97929738 Ry
     Harris-Foulkes estimate   =   -1281.98896405 Ry
     estimated scf accuracy    <       0.02433725 Ry

     iteration #  6     ecut=   180.00 Ry     beta=0.70
     Davidson diagonalization with overlap
     ethr =  1.09E-05,  avg # of iterations =  5.1

     total cpu time spent up to now is     6708.8 secs

     total energy              =   -1281.98088503 Ry
     Harris-Foulkes estimate   =   -1281.98248764 Ry
     estimated scf accuracy    <       0.00446398 Ry

     iteration #  7     ecut=   180.00 Ry     beta=0.70
     Davidson diagonalization with overlap
     ethr =  1.99E-06,  avg # of iterations =  4.9

     total cpu time spent up to now is     7892.5 secs

     total energy              =   -1281.98413496 Ry
     Harris-Foulkes estimate   =   -1281.98536016 Ry
     estimated scf accuracy    <       0.00480316 Ry

     iteration #  8     ecut=   180.00 Ry     beta=0.70
     Davidson diagonalization with overlap
     ethr =  1.99E-06,  avg # of iterations =  1.0

     total cpu time spent up to now is     8536.7 secs

     total energy              =   -1281.98277634 Ry
     Harris-Foulkes estimate   =   -1281.98420579 Ry
     estimated scf accuracy    <       0.00285811 Ry

     iteration #  9     ecut=   180.00 Ry     beta=0.70
     Davidson diagonalization with overlap
     ethr =  1.28E-06,  avg # of iterations =  5.0

     total cpu time spent up to now is     9589.5 secs

     total energy              =   -1281.98441623 Ry
     Harris-Foulkes estimate   =   -1281.98558569 Ry
     estimated scf accuracy    <       0.00602730 Ry

     iteration # 10     ecut=   180.00 Ry     beta=0.70
     Davidson diagonalization with overlap
     ethr =  1.28E-06,  avg # of iterations =  1.0

     total cpu time spent up to now is    10231.4 secs

     total energy              =   -1281.98285984 Ry
     Harris-Foulkes estimate   =   -1281.98445249 Ry
     estimated scf accuracy    <       0.00414693 Ry

     iteration # 11     ecut=   180.00 Ry     beta=0.70
     Davidson diagonalization with overlap
     ethr =  1.28E-06,  avg # of iterations =  5.0

     total cpu time spent up to now is    11212.1 secs

     total energy              =   -1281.98432997 Ry
     Harris-Foulkes estimate   =   -1281.98470098 Ry
     estimated scf accuracy    <       0.00141232 Ry

     iteration # 12     ecut=   180.00 Ry     beta=0.70
     Davidson diagonalization with overlap
     ethr =  6.31E-07,  avg # of iterations =  1.0

     total cpu time spent up to now is    11851.4 secs

     total energy              =   -1281.98401637 Ry
     Harris-Foulkes estimate   =   -1281.98434780 Ry
     estimated scf accuracy    <       0.00082219 Ry

     iteration # 13     ecut=   180.00 Ry     beta=0.70
     Davidson diagonalization with overlap
     ethr =  3.67E-07,  avg # of iterations =  5.0

     total cpu time spent up to now is    12827.9 secs

     total energy              =   -1281.98443340 Ry
     Harris-Foulkes estimate   =   -1281.98455091 Ry
     estimated scf accuracy    <       0.00061875 Ry

     iteration # 14     ecut=   180.00 Ry     beta=0.70
     Davidson diagonalization with overlap
     ethr =  2.76E-07,  avg # of iterations =  1.0

     total cpu time spent up to now is    13471.6 secs

     total energy              =   -1281.98426114 Ry
     Harris-Foulkes estimate   =   -1281.98443710 Ry
     estimated scf accuracy    <       0.00043110 Ry

     iteration # 15     ecut=   180.00 Ry     beta=0.70
     Davidson diagonalization with overlap
     ethr =  1.92E-07,  avg # of iterations =  5.0

     total cpu time spent up to now is    14406.4 secs

     total energy              =   -1281.98446407 Ry
     Harris-Foulkes estimate   =   -1281.98446538 Ry
     estimated scf accuracy    <       0.00017699 Ry

     iteration # 16     ecut=   180.00 Ry     beta=0.70
     Davidson diagonalization with overlap
     ethr =  7.90E-08,  avg # of iterations =  1.0

     total cpu time spent up to now is    15050.5 secs

     total energy              =   -1281.98442840 Ry
     Harris-Foulkes estimate   =   -1281.98446507 Ry
     estimated scf accuracy    <       0.00017427 Ry

     iteration # 17     ecut=   180.00 Ry     beta=0.70
     Davidson diagonalization with overlap
     ethr =  7.78E-08,  avg # of iterations =  3.6

     total cpu time spent up to now is    15760.8 secs

     total energy              =   -1281.98443099 Ry
     Harris-Foulkes estimate   =   -1281.98443398 Ry
     estimated scf accuracy    <       0.00006334 Ry

     iteration # 18     ecut=   180.00 Ry     beta=0.70
     Davidson diagonalization with overlap
     ethr =  2.83E-08,  avg # of iterations =  5.2

     total cpu time spent up to now is    16512.6 secs

     total energy              =   -1281.98443383 Ry
     Harris-Foulkes estimate   =   -1281.98443443 Ry
     estimated scf accuracy    <       0.00003456 Ry

     iteration # 19     ecut=   180.00 Ry     beta=0.70
     Davidson diagonalization with overlap
     ethr =  1.54E-08,  avg # of iterations =  1.6

     total cpu time spent up to now is    17174.6 secs

     total energy              =   -1281.98443934 Ry
     Harris-Foulkes estimate   =   -1281.98443432 Ry
     estimated scf accuracy    <       0.00003033 Ry

     iteration # 20     ecut=   180.00 Ry     beta=0.70
     Davidson diagonalization with overlap
     ethr =  1.35E-08,  avg # of iterations =  1.1

     total cpu time spent up to now is    17824.3 secs

     total energy              =   -1281.98443796 Ry
     Harris-Foulkes estimate   =   -1281.98443961 Ry
     estimated scf accuracy    <       0.00003844 Ry

     iteration # 21     ecut=   180.00 Ry     beta=0.70
     Davidson diagonalization with overlap
     ethr =  1.35E-08,  avg # of iterations =  1.0

     total cpu time spent up to now is    18495.0 secs

     total energy              =   -1281.98443678 Ry
     Harris-Foulkes estimate   =   -1281.98443808 Ry
     estimated scf accuracy    <       0.00003527 Ry

     iteration # 22     ecut=   180.00 Ry     beta=0.70
     Davidson diagonalization with overlap
     ethr =  1.35E-08,  avg # of iterations =  1.0

     total cpu time spent up to now is    19164.6 secs

     total energy              =   -1281.98443466 Ry
     Harris-Foulkes estimate   =   -1281.98443694 Ry
     estimated scf accuracy    <       0.00003215 Ry

     iteration # 23     ecut=   180.00 Ry     beta=0.70
     Davidson diagonalization with overlap
     ethr =  1.35E-08,  avg # of iterations =  1.0

     total cpu time spent up to now is    19832.4 secs

     total energy              =   -1281.98442962 Ry
     Harris-Foulkes estimate   =   -1281.98443481 Ry
     estimated scf accuracy    <       0.00002653 Ry

     iteration # 24     ecut=   180.00 Ry     beta=0.70
     Davidson diagonalization with overlap
     ethr =  1.18E-08,  avg # of iterations =  4.9

     total cpu time spent up to now is    20675.3 secs

     total energy              =   -1281.98443004 Ry
     Harris-Foulkes estimate   =   -1281.98443137 Ry
     estimated scf accuracy    <       0.00000987 Ry

     iteration # 25     ecut=   180.00 Ry     beta=0.70
     Davidson diagonalization with overlap
     ethr =  4.41E-09,  avg # of iterations =  5.8

     total cpu time spent up to now is    21529.9 secs

     total energy              =   -1281.98443158 Ry
     Harris-Foulkes estimate   =   -1281.98443172 Ry
     estimated scf accuracy    <       0.00000143 Ry

     iteration # 26     ecut=   180.00 Ry     beta=0.70
     Davidson diagonalization with overlap
     ethr =  6.37E-10,  avg # of iterations =  5.0

     total cpu time spent up to now is    22409.7 secs

     End of self-consistent calculation

          k = 0.0192 0.0113 0.0217 (142442 PWs)   bands (ev):

   -24.0425 -24.0205 -24.0085 -23.9991 -23.7607 -23.7525 -23.7515 -23.7479
   -19.2680 -19.2625 -19.2562 -19.2441 -18.9532 -18.9527 -18.9495 -18.9482
   -18.3365 -18.3121 -17.3124 -17.2644 -17.1481 -17.1467 -16.1271 -16.1136
   -12.2004 -12.1979 -12.1563 -12.0421 -11.9895 -11.9192 -11.8741 -11.8549
    -8.9538  -8.9154  -8.3719  -8.3372  -7.6459  -7.6095  -7.5345  -7.5324
    -6.9362  -6.8349  -6.6778  -6.6136  -6.5977  -6.4848  -6.4219  -6.3464
    -6.2126  -6.1862  -6.1555  -6.0389  -5.9777  -5.9000  -5.8433  -5.8026
    -5.7459  -5.7247  -5.6283  -5.5932  -5.2037  -5.0928  -5.0163  -4.9992
    -4.5528  -4.5342  -4.5031  -4.4560  -4.3246  -4.2362  -3.9381  -3.9319
    -3.7833  -3.6841  -3.6397  -3.6046  -3.2485  -3.2058  -3.1473  -3.1256
    -0.8629  -0.8597  -0.3827  -0.3813  -0.2827  -0.2302  -0.1684  -0.1485
    -0.0952  -0.0736   0.1032   0.1344   0.1453   0.1741   0.3014   0.3222
     0.3748   0.3938   0.5632   0.6156   0.6997   0.7465   0.7917   0.8219
     0.8413   0.9550   0.9887   1.0524   1.1443   1.2719   1.2995   1.3229

     occupation numbers 
     1.0000   1.0000   1.0000   1.0000   1.0000   1.0000   1.0000   1.0000
     1.0000   1.0000   1.0000   1.0000   1.0000   1.0000   1.0000   1.0000
     1.0000   1.0000   1.0000   1.0000   1.0000   1.0000   1.0000   1.0000
     1.0000   1.0000   1.0000   1.0000   1.0000   1.0000   1.0000   1.0000
     1.0000   1.0000   1.0000   1.0000   1.0000   1.0000   1.0000   1.0000
     1.0000   1.0000   1.0000   1.0000   1.0000   1.0000   1.0000   1.0000
     1.0000   1.0000   1.0000   1.0000   1.0000   1.0000   1.0000   1.0000
     1.0000   1.0000   1.0000   1.0000   1.0000   1.0000   1.0000   1.0000
     1.0000   1.0000   1.0000   1.0000   1.0000   1.0000   1.0000   1.0000
     1.0000   1.0000   1.0000   1.0000   1.0000   1.0000   1.0000   1.0000
     1.0000   1.0000   1.0000   1.0000   1.0000   1.0000   1.0000   1.0000
     1.0000   1.0000   1.0000   1.0000   1.0000   1.0000   1.0000   1.0000
     1.0000   1.0000   1.0000   1.0000   1.0000   1.0000   1.0000   1.0000
     1.0000   1.0000   1.0000   1.0000   1.0000   1.0000   1.0000   1.0000

          k = 0.0192 0.0113 0.0565 (142432 PWs)   bands (ev):

   -24.0347 -24.0260 -24.0048 -24.0038 -23.7625 -23.7596 -23.7482 -23.7438
   -19.2663 -19.2616 -19.2568 -19.2474 -18.9586 -18.9579 -18.9450 -18.9431
   -18.3253 -18.3253 -17.2895 -17.2872 -17.1438 -17.1415 -16.1224 -16.1211
   -12.2094 -12.2085 -12.1024 -12.0838 -11.9481 -11.9410 -11.8818 -11.8746
    -8.9344  -8.9002  -8.3542  -8.3308  -7.6591  -7.6135  -7.5165  -7.4454
    -6.9819  -6.8606  -6.6687  -6.6422  -6.6254  -6.5059  -6.4447  -6.4186
    -6.2730  -6.2448  -6.0441  -5.9979  -5.9762  -5.9047  -5.8796  -5.8430
    -5.8049  -5.7501  -5.5522  -5.5118  -5.2073  -5.1298  -5.0110  -4.9748
    -4.5046  -4.4965  -4.4634  -4.3743  -4.2505  -4.2296  -4.0496  -4.0429
    -3.7717  -3.7284  -3.5787  -3.5692  -3.2684  -3.2622  -3.1306  -3.1061
    -0.8299  -0.7986  -0.3955  -0.3870  -0.2895  -0.2513  -0.2045  -0.1777
    -0.1463  -0.1103   0.0030   0.0604   0.1691   0.2148   0.2704   0.2828
     0.4834   0.5391   0.5848   0.6239   0.7044   0.7246   0.7531   0.8035
     0.9143   0.9531   1.0220   1.0463   1.1566   1.2232   1.3044   1.3267

     occupation numbers 
     1.0000   1.0000   1.0000   1.0000   1.0000   1.0000   1.0000   1.0000
     1.0000   1.0000   1.0000   1.0000   1.0000   1.0000   1.0000   1.0000
     1.0000   1.0000   1.0000   1.0000   1.0000   1.0000   1.0000   1.0000
     1.0000   1.0000   1.0000   1.0000   1.0000   1.0000   1.0000   1.0000
     1.0000   1.0000   1.0000   1.0000   1.0000   1.0000   1.0000   1.0000
     1.0000   1.0000   1.0000   1.0000   1.0000   1.0000   1.0000   1.0000
     1.0000   1.0000   1.0000   1.0000   1.0000   1.0000   1.0000   1.0000
     1.0000   1.0000   1.0000   1.0000   1.0000   1.0000   1.0000   1.0000
     1.0000   1.0000   1.0000   1.0000   1.0000   1.0000   1.0000   1.0000
     1.0000   1.0000   1.0000   1.0000   1.0000   1.0000   1.0000   1.0000
     1.0000   1.0000   1.0000   1.0000   1.0000   1.0000   1.0000   1.0000
     1.0000   1.0000   1.0000   1.0000   1.0000   1.0000   1.0000   1.0000
     1.0000   1.0000   1.0000   1.0000   1.0000   1.0000   1.0000   1.0000
     1.0000   1.0000   1.0000   1.0000   1.0000   1.0000   1.0000   1.0000

          k = 0.0192 0.0113-0.0479 (142396 PWs)   bands (ev):

   -24.0357 -24.0253 -24.0084 -23.9998 -23.7640 -23.7611 -23.7451 -23.7438
   -19.2640 -19.2625 -19.2534 -19.2525 -18.9601 -18.9597 -18.9432 -18.9416
   -18.3369 -18.3125 -17.3105 -17.2660 -17.1464 -17.1442 -16.1263 -16.1110
   -12.2151 -12.2083 -12.1381 -12.0505 -11.9805 -11.9049 -11.8870 -11.8716
    -8.9439  -8.8629  -8.3422  -8.3395  -7.6547  -7.6398  -7.5296  -7.4193
    -6.9906  -6.8858  -6.6689  -6.6405  -6.5804  -6.5582  -6.4610  -6.4269
    -6.2923  -6.2651  -6.0507  -6.0224  -5.9016  -5.8720  -5.8672  -5.8575
    -5.8064  -5.7395  -5.5539  -5.5065  -5.2008  -5.1294  -4.9977  -4.9704
    -4.5375  -4.4710  -4.4362  -4.3764  -4.2924  -4.2314  -4.0516  -4.0086
    -3.7809  -3.7272  -3.6309  -3.5537  -3.2732  -3.2526  -3.1215  -3.1158
    -0.7678  -0.7098  -0.3860  -0.3781  -0.3359  -0.3084  -0.2401  -0.2168
    -0.1609  -0.1550  -0.0372   0.0451   0.1836   0.2184   0.2300   0.2775
     0.5185   0.6062   0.6246   0.6379   0.6704   0.7633   0.7733   0.7874
     0.9069   0.9604   1.0360   1.0866   1.1635   1.1898   1.2918   1.3108

     occupation numbers 
     1.0000   1.0000   1.0000   1.0000   1.0000   1.0000   1.0000   1.0000
     1.0000   1.0000   1.0000   1.0000   1.0000   1.0000   1.0000   1.0000
     1.0000   1.0000   1.0000   1.0000   1.0000   1.0000   1.0000   1.0000
     1.0000   1.0000   1.0000   1.0000   1.0000   1.0000   1.0000   1.0000
     1.0000   1.0000   1.0000   1.0000   1.0000   1.0000   1.0000   1.0000
     1.0000   1.0000   1.0000   1.0000   1.0000   1.0000   1.0000   1.0000
     1.0000   1.0000   1.0000   1.0000   1.0000   1.0000   1.0000   1.0000
     1.0000   1.0000   1.0000   1.0000   1.0000   1.0000   1.0000   1.0000
     1.0000   1.0000   1.0000   1.0000   1.0000   1.0000   1.0000   1.0000
     1.0000   1.0000   1.0000   1.0000   1.0000   1.0000   1.0000   1.0000
     1.0000   1.0000   1.0000   1.0000   1.0000   1.0000   1.0000   1.0000
     1.0000   1.0000   1.0000   1.0000   1.0000   1.0000   1.0000   1.0000
     1.0000   1.0000   1.0000   1.0000   1.0000   1.0000   1.0000   1.0000
     1.0000   1.0000   1.0000   1.0000   1.0000   1.0000   1.0000   1.0000

          k = 0.0192 0.0113-0.0131 (142425 PWs)   bands (ev):

   -24.0429 -24.0206 -24.0096 -23.9974 -23.7631 -23.7553 -23.7479 -23.7463
   -19.2669 -19.2613 -19.2564 -19.2464 -18.9566 -18.9565 -18.9453 -18.9452
   -18.3410 -18.3064 -17.3210 -17.2555 -17.1503 -17.1499 -16.1274 -16.1071
   -12.2072 -12.1989 -12.1671 -12.0430 -11.9886 -11.9106 -11.8706 -11.8548
    -8.9648  -8.8768  -8.3659  -8.3401  -7.6504  -7.6318  -7.5673  -7.4837
    -6.9053  -6.8926  -6.6792  -6.5995  -6.5878  -6.5307  -6.4312  -6.3620
    -6.2582  -6.2203  -6.0908  -6.0445  -5.9405  -5.8925  -5.8253  -5.8003
    -5.7583  -5.7158  -5.6064  -5.5963  -5.1705  -5.1275  -5.0153  -4.9694
    -4.5516  -4.5262  -4.4972  -4.4779  -4.3283  -4.2468  -3.9419  -3.8853
    -3.8228  -3.6910  -3.6535  -3.6052  -3.2526  -3.2034  -3.1409  -3.1300
    -0.8179  -0.7942  -0.3745  -0.3690  -0.2826  -0.2488  -0.1744  -0.1627
    -0.1499  -0.1141  -0.0088   0.0535   0.1189   0.1910   0.2484   0.3135
     0.4942   0.5339   0.5548   0.6417   0.6885   0.7518   0.8047   0.8189
     0.8512   0.9347   1.0150   1.0805   1.1437   1.2557   1.2863   1.3068

     occupation numbers 
     1.0000   1.0000   1.0000   1.0000   1.0000   1.0000   1.0000   1.0000
     1.0000   1.0000   1.0000   1.0000   1.0000   1.0000   1.0000   1.0000
     1.0000   1.0000   1.0000   1.0000   1.0000   1.0000   1.0000   1.0000
     1.0000   1.0000   1.0000   1.0000   1.0000   1.0000   1.0000   1.0000
     1.0000   1.0000   1.0000   1.0000   1.0000   1.0000   1.0000   1.0000
     1.0000   1.0000   1.0000   1.0000   1.0000   1.0000   1.0000   1.0000
     1.0000   1.0000   1.0000   1.0000   1.0000   1.0000   1.0000   1.0000
     1.0000   1.0000   1.0000   1.0000   1.0000   1.0000   1.0000   1.0000
     1.0000   1.0000   1.0000   1.0000   1.0000   1.0000   1.0000   1.0000
     1.0000   1.0000   1.0000   1.0000   1.0000   1.0000   1.0000   1.0000
     1.0000   1.0000   1.0000   1.0000   1.0000   1.0000   1.0000   1.0000
     1.0000   1.0000   1.0000   1.0000   1.0000   1.0000   1.0000   1.0000
     1.0000   1.0000   1.0000   1.0000   1.0000   1.0000   1.0000   1.0000
     1.0000   1.0000   1.0000   1.0000   1.0000   1.0000   1.0000   1.0000

          k = 0.0192 0.0340 0.0217 (142382 PWs)   bands (ev):

   -24.0373 -24.0288 -24.0040 -24.0007 -23.7572 -23.7534 -23.7514 -23.7503
   -19.2676 -19.2659 -19.2508 -19.2464 -18.9531 -18.9529 -18.9491 -18.9485
   -18.3296 -18.3195 -17.2982 -17.2784 -17.1477 -17.1470 -16.1230 -16.1174
   -12.2000 -12.1990 -12.1327 -12.0914 -11.9523 -11.9288 -11.8690 -11.8608
    -8.9434  -8.9275  -8.3625  -8.3481  -7.6385  -7.6229  -7.5276  -7.5266
    -6.9131  -6.8680  -6.6324  -6.6082  -6.6010  -6.5355  -6.3999  -6.3753
    -6.2224  -6.2056  -6.0866  -6.0486  -5.9800  -5.9444  -5.8439  -5.8301
    -5.7133  -5.7014  -5.6102  -5.5928  -5.1623  -5.0996  -5.0517  -5.0305
    -4.5572  -4.5489  -4.4643  -4.4439  -4.3140  -4.2689  -3.9314  -3.9266
    -3.7584  -3.7137  -3.6303  -3.6119  -3.2398  -3.2231  -3.1366  -3.1288
    -0.8590  -0.8572  -0.3749  -0.3694  -0.2934  -0.2588  -0.1895  -0.1827
    -0.0642  -0.0570   0.1259   0.1361   0.1656   0.1724   0.3245   0.3292
     0.3526   0.3708   0.5778   0.6040   0.6855   0.7025   0.8088   0.8286
     0.8809   0.9270   1.0156   1.0403   1.1782   1.2298   1.3103   1.3180

     occupation numbers 
     1.0000   1.0000   1.0000   1.0000   1.0000   1.0000   1.0000   1.0000
     1.0000   1.0000   1.0000   1.0000   1.0000   1.0000   1.0000   1.0000
     1.0000   1.0000   1.0000   1.0000   1.0000   1.0000   1.0000   1.0000
     1.0000   1.0000   1.0000   1.0000   1.0000   1.0000   1.0000   1.0000
     1.0000   1.0000   1.0000   1.0000   1.0000   1.0000   1.0000   1.0000
     1.0000   1.0000   1.0000   1.0000   1.0000   1.0000   1.0000   1.0000
     1.0000   1.0000   1.0000   1.0000   1.0000   1.0000   1.0000   1.0000
     1.0000   1.0000   1.0000   1.0000   1.0000   1.0000   1.0000   1.0000
     1.0000   1.0000   1.0000   1.0000   1.0000   1.0000   1.0000   1.0000
     1.0000   1.0000   1.0000   1.0000   1.0000   1.0000   1.0000   1.0000
     1.0000   1.0000   1.0000   1.0000   1.0000   1.0000   1.0000   1.0000
     1.0000   1.0000   1.0000   1.0000   1.0000   1.0000   1.0000   1.0000
     1.0000   1.0000   1.0000   1.0000   1.0000   1.0000   1.0000   1.0000
     1.0000   1.0000   1.0000   1.0000   1.0000   1.0000   1.0000   1.0000

          k = 0.0192 0.0340 0.0565 (142423 PWs)   bands (ev):

   -24.0319 -24.0282 -24.0050 -24.0044 -23.7611 -23.7599 -23.7474 -23.7455
   -19.2661 -19.2647 -19.2523 -19.2490 -18.9584 -18.9581 -18.9445 -18.9437
   -18.3253 -18.3253 -17.2891 -17.2881 -17.1428 -17.1418 -16.1220 -16.1215
   -12.2088 -12.2084 -12.0994 -12.0917 -11.9420 -11.9382 -11.8821 -11.8789
    -8.9246  -8.9104  -8.3478  -8.3381  -7.6443  -7.6257  -7.4957  -7.4670
    -6.9619  -6.9167  -6.6591  -6.6504  -6.5701  -6.5213  -6.4572  -6.4387
    -6.2291  -6.2032  -6.0678  -6.0246  -5.9521  -5.9205  -5.8792  -5.8632
    -5.7897  -5.7573  -5.5558  -5.5370  -5.1468  -5.0956  -5.0571  -5.0223
    -4.4851  -4.4712  -4.4461  -4.4046  -4.2537  -4.2433  -4.0461  -4.0437
    -3.7532  -3.7341  -3.5795  -3.5742  -3.2630  -3.2593  -3.1294  -3.1180
    -0.8198  -0.8069  -0.3889  -0.3816  -0.2989  -0.2712  -0.2147  -0.1979
    -0.1221  -0.1062   0.0477   0.0674   0.1726   0.1947   0.2640   0.2753
     0.4984   0.5236   0.5952   0.6138   0.7113   0.7222   0.7579   0.7891
     0.9191   0.9390   1.0332   1.0429   1.1785   1.2056   1.3103   1.3195

     occupation numbers 
     1.0000   1.0000   1.0000   1.0000   1.0000   1.0000   1.0000   1.0000
     1.0000   1.0000   1.0000   1.0000   1.0000   1.0000   1.0000   1.0000
     1.0000   1.0000   1.0000   1.0000   1.0000   1.0000   1.0000   1.0000
     1.0000   1.0000   1.0000   1.0000   1.0000   1.0000   1.0000   1.0000
     1.0000   1.0000   1.0000   1.0000   1.0000   1.0000   1.0000   1.0000
     1.0000   1.0000   1.0000   1.0000   1.0000   1.0000   1.0000   1.0000
     1.0000   1.0000   1.0000   1.0000   1.0000   1.0000   1.0000   1.0000
     1.0000   1.0000   1.0000   1.0000   1.0000   1.0000   1.0000   1.0000
     1.0000   1.0000   1.0000   1.0000   1.0000   1.0000   1.0000   1.0000
     1.0000   1.0000   1.0000   1.0000   1.0000   1.0000   1.0000   1.0000
     1.0000   1.0000   1.0000   1.0000   1.0000   1.0000   1.0000   1.0000
     1.0000   1.0000   1.0000   1.0000   1.0000   1.0000   1.0000   1.0000
     1.0000   1.0000   1.0000   1.0000   1.0000   1.0000   1.0000   1.0000
     1.0000   1.0000   1.0000   1.0000   1.0000   1.0000   1.0000   1.0000

          k = 0.0192 0.0340-0.0479 (142444 PWs)   bands (ev):

   -24.0328 -24.0285 -24.0058 -24.0023 -23.7627 -23.7615 -23.7451 -23.7445
   -19.2644 -19.2639 -19.2522 -19.2518 -18.9600 -18.9598 -18.9427 -18.9421
   -18.3299 -18.3199 -17.2974 -17.2790 -17.1457 -17.1448 -16.1218 -16.1154
   -12.2132 -12.2102 -12.1204 -12.0878 -11.9470 -11.9195 -11.8821 -11.8757
    -8.9211  -8.8876  -8.3427  -8.3412  -7.6471  -7.6419  -7.5000  -7.4534
    -6.9589  -6.9150  -6.6714  -6.6494  -6.5692  -6.5579  -6.4879  -6.4680
    -6.2100  -6.1953  -6.0838  -6.0599  -5.8980  -5.8865  -5.8713  -5.8529
    -5.7899  -5.7579  -5.5459  -5.5209  -5.1770  -5.1268  -5.0205  -4.9876
    -4.5241  -4.4962  -4.3988  -4.3757  -4.2831  -4.2565  -4.0387  -4.0208
    -3.7581  -3.7353  -3.6098  -3.5775  -3.2629  -3.2527  -3.1270  -3.1254
    -0.7516  -0.7279  -0.3854  -0.3814  -0.3087  -0.2926  -0.2646  -0.2399
    -0.1747  -0.1658   0.0137   0.0452   0.1844   0.2001   0.2419   0.2668
     0.5444   0.5790   0.6417   0.6549   0.6706   0.7164   0.7814   0.7878
     0.9218   0.9397   1.0586   1.0776   1.1692   1.1807   1.2971   1.3052

     occupation numbers 
     1.0000   1.0000   1.0000   1.0000   1.0000   1.0000   1.0000   1.0000
     1.0000   1.0000   1.0000   1.0000   1.0000   1.0000   1.0000   1.0000
     1.0000   1.0000   1.0000   1.0000   1.0000   1.0000   1.0000   1.0000
     1.0000   1.0000   1.0000   1.0000   1.0000   1.0000   1.0000   1.0000
     1.0000   1.0000   1.0000   1.0000   1.0000   1.0000   1.0000   1.0000
     1.0000   1.0000   1.0000   1.0000   1.0000   1.0000   1.0000   1.0000
     1.0000   1.0000   1.0000   1.0000   1.0000   1.0000   1.0000   1.0000
     1.0000   1.0000   1.0000   1.0000   1.0000   1.0000   1.0000   1.0000
     1.0000   1.0000   1.0000   1.0000   1.0000   1.0000   1.0000   1.0000
     1.0000   1.0000   1.0000   1.0000   1.0000   1.0000   1.0000   1.0000
     1.0000   1.0000   1.0000   1.0000   1.0000   1.0000   1.0000   1.0000
     1.0000   1.0000   1.0000   1.0000   1.0000   1.0000   1.0000   1.0000
     1.0000   1.0000   1.0000   1.0000   1.0000   1.0000   1.0000   1.0000
     1.0000   1.0000   1.0000   1.0000   1.0000   1.0000   1.0000   1.0000

          k = 0.0192 0.0340-0.0131 (142404 PWs)   bands (ev):

   -24.0379 -24.0294 -24.0039 -23.9996 -23.7603 -23.7570 -23.7478 -23.7472
   -19.2666 -19.2649 -19.2515 -19.2480 -18.9566 -18.9565 -18.9452 -18.9452
   -18.3313 -18.3169 -17.3014 -17.2743 -17.1503 -17.1502 -16.1213 -16.1129
   -12.2050 -12.2019 -12.1416 -12.0969 -11.9477 -11.9218 -11.8662 -11.8594
    -8.9406  -8.9042  -8.3598  -8.3492  -7.6457  -7.6370  -7.5395  -7.5061
    -6.8827  -6.8697  -6.6664  -6.6239  -6.5917  -6.5602  -6.4473  -6.4162
    -6.2017  -6.1831  -6.0969  -6.0685  -5.9376  -5.9136  -5.8270  -5.8222
    -5.7168  -5.7040  -5.5968  -5.5888  -5.1690  -5.1421  -5.0157  -4.9917
    -4.5620  -4.5539  -4.4651  -4.4450  -4.3217  -4.2785  -3.9234  -3.9002
    -3.7761  -3.7200  -3.6424  -3.6211  -3.2423  -3.2225  -3.1350  -3.1310
    -0.8080  -0.7981  -0.3663  -0.3607  -0.2932  -0.2605  -0.1911  -0.1822
    -0.1467  -0.1261   0.0234   0.0523   0.1394   0.1724   0.2815   0.3096
     0.5043   0.5272   0.5715   0.6226   0.6704   0.7045   0.8209   0.8230
     0.8866   0.9181   1.0440   1.0703   1.1682   1.2151   1.2959   1.3022

     occupation numbers 
     1.0000   1.0000   1.0000   1.0000   1.0000   1.0000   1.0000   1.0000
     1.0000   1.0000   1.0000   1.0000   1.0000   1.0000   1.0000   1.0000
     1.0000   1.0000   1.0000   1.0000   1.0000   1.0000   1.0000   1.0000
     1.0000   1.0000   1.0000   1.0000   1.0000   1.0000   1.0000   1.0000
     1.0000   1.0000   1.0000   1.0000   1.0000   1.0000   1.0000   1.0000
     1.0000   1.0000   1.0000   1.0000   1.0000   1.0000   1.0000   1.0000
     1.0000   1.0000   1.0000   1.0000   1.0000   1.0000   1.0000   1.0000
     1.0000   1.0000   1.0000   1.0000   1.0000   1.0000   1.0000   1.0000
     1.0000   1.0000   1.0000   1.0000   1.0000   1.0000   1.0000   1.0000
     1.0000   1.0000   1.0000   1.0000   1.0000   1.0000   1.0000   1.0000
     1.0000   1.0000   1.0000   1.0000   1.0000   1.0000   1.0000   1.0000
     1.0000   1.0000   1.0000   1.0000   1.0000   1.0000   1.0000   1.0000
     1.0000   1.0000   1.0000   1.0000   1.0000   1.0000   1.0000   1.0000
     1.0000   1.0000   1.0000   1.0000   1.0000   1.0000   1.0000   1.0000

          k = 0.0575 0.0113 0.0303 (142416 PWs)   bands (ev):

   -24.0321 -24.0228 -24.0055 -24.0049 -23.7594 -23.7568 -23.7527 -23.7479
   -19.2661 -19.2619 -19.2576 -19.2482 -18.9561 -18.9550 -18.9475 -18.9459
   -18.3312 -18.3311 -17.2866 -17.2846 -17.1492 -17.1474 -16.1227 -16.1212
   -12.1986 -12.1974 -12.0767 -12.0575 -11.9213 -11.9110 -11.8800 -11.8681
    -8.9531  -8.9213  -8.3716  -8.3504  -7.6396  -7.6195  -7.5965  -7.5461
    -7.0561  -6.9841  -6.7379  -6.6179  -6.5612  -6.5211  -6.3407  -6.3044
    -6.2795  -6.2317  -6.1028  -6.0348  -5.9744  -5.9243  -5.8502  -5.8303
    -5.7397  -5.6930  -5.6261  -5.6132  -5.2227  -5.1149  -4.9991  -4.9897
    -4.5321  -4.5127  -4.4659  -4.4084  -4.1478  -4.0955  -3.8905  -3.8726
    -3.8224  -3.7425  -3.6854  -3.6784  -3.2428  -3.2348  -3.1476  -3.1190
    -0.8208  -0.8083  -0.3643  -0.3625  -0.2724  -0.2545  -0.1902  -0.1618
    -0.1373  -0.1080   0.0430   0.0574   0.1391   0.1524   0.2782   0.3021
     0.5135   0.5198   0.5825   0.6346   0.7138   0.7219   0.7898   0.8062
     0.8618   0.9118   0.9424   0.9878   1.2182   1.2461   1.2874   1.3232

     occupation numbers 
     1.0000   1.0000   1.0000   1.0000   1.0000   1.0000   1.0000   1.0000
     1.0000   1.0000   1.0000   1.0000   1.0000   1.0000   1.0000   1.0000
     1.0000   1.0000   1.0000   1.0000   1.0000   1.0000   1.0000   1.0000
     1.0000   1.0000   1.0000   1.0000   1.0000   1.0000   1.0000   1.0000
     1.0000   1.0000   1.0000   1.0000   1.0000   1.0000   1.0000   1.0000
     1.0000   1.0000   1.0000   1.0000   1.0000   1.0000   1.0000   1.0000
     1.0000   1.0000   1.0000   1.0000   1.0000   1.0000   1.0000   1.0000
     1.0000   1.0000   1.0000   1.0000   1.0000   1.0000   1.0000   1.0000
     1.0000   1.0000   1.0000   1.0000   1.0000   1.0000   1.0000   1.0000
     1.0000   1.0000   1.0000   1.0000   1.0000   1.0000   1.0000   1.0000
     1.0000   1.0000   1.0000   1.0000   1.0000   1.0000   1.0000   1.0000
     1.0000   1.0000   1.0000   1.0000   1.0000   1.0000   1.0000   1.0000
     1.0000   1.0000   1.0000   1.0000   1.0000   1.0000   1.0000   1.0000
     1.0000   1.0000   1.0000   1.0000   1.0000   1.0000   1.0000   1.0000

          k = 0.0575 0.0113 0.0651 (142419 PWs)   bands (ev):

   -24.0282 -24.0255 -24.0092 -24.0013 -23.7590 -23.7586 -23.7548 -23.7456
   -19.2666 -19.2633 -19.2580 -19.2471 -18.9654 -18.9635 -18.9404 -18.9366
   -18.3458 -18.3216 -17.3061 -17.2637 -17.1397 -17.1360 -16.1378 -16.1203
   -12.2091 -12.2071 -12.1048 -12.0286 -11.9272 -11.8859 -11.8784 -11.8723
    -8.9957  -8.8776  -8.3666  -8.3321  -7.6465  -7.6225  -7.5597  -7.4373
    -7.1531  -6.9335  -6.7446  -6.5883  -6.5781  -6.5075  -6.4828  -6.3929
    -6.3339  -6.2566  -6.0675  -6.0436  -5.9967  -5.9503  -5.8815  -5.8288
    -5.7201  -5.6633  -5.5805  -5.5138  -5.2324  -5.0735  -5.0605  -5.0053
    -4.4821  -4.4673  -4.4117  -4.3621  -4.1055  -4.0571  -3.9884  -3.9473
    -3.8539  -3.7700  -3.6979  -3.6125  -3.2790  -3.2571  -3.1416  -3.0887
    -0.8939  -0.8540  -0.3704  -0.3396  -0.2765  -0.2454  -0.1864  -0.1478
    -0.1026  -0.0676   0.1075   0.1395   0.1576   0.1793   0.2460   0.3362
     0.4292   0.4519   0.4918   0.6063   0.7025   0.7321   0.7721   0.8021
     0.8973   0.9387   0.9530   0.9806   1.2327   1.2675   1.2899   1.3320

     occupation numbers 
     1.0000   1.0000   1.0000   1.0000   1.0000   1.0000   1.0000   1.0000
     1.0000   1.0000   1.0000   1.0000   1.0000   1.0000   1.0000   1.0000
     1.0000   1.0000   1.0000   1.0000   1.0000   1.0000   1.0000   1.0000
     1.0000   1.0000   1.0000   1.0000   1.0000   1.0000   1.0000   1.0000
     1.0000   1.0000   1.0000   1.0000   1.0000   1.0000   1.0000   1.0000
     1.0000   1.0000   1.0000   1.0000   1.0000   1.0000   1.0000   1.0000
     1.0000   1.0000   1.0000   1.0000   1.0000   1.0000   1.0000   1.0000
     1.0000   1.0000   1.0000   1.0000   1.0000   1.0000   1.0000   1.0000
     1.0000   1.0000   1.0000   1.0000   1.0000   1.0000   1.0000   1.0000
     1.0000   1.0000   1.0000   1.0000   1.0000   1.0000   1.0000   1.0000
     1.0000   1.0000   1.0000   1.0000   1.0000   1.0000   1.0000   1.0000
     1.0000   1.0000   1.0000   1.0000   1.0000   1.0000   1.0000   1.0000
     1.0000   1.0000   1.0000   1.0000   1.0000   1.0000   1.0000   1.0000
     1.0000   1.0000   1.0000   1.0000   1.0000   1.0000   1.0000   1.0000

          k = 0.0575 0.0113-0.0393 (142352 PWs)   bands (ev):

   -24.0299 -24.0243 -24.0107 -23.9992 -23.7619 -23.7608 -23.7507 -23.7445
   -19.2648 -19.2625 -19.2582 -19.2497 -18.9663 -18.9645 -18.9393 -18.9357
   -18.3503 -18.3159 -17.3157 -17.2537 -17.1424 -17.1390 -16.1377 -16.1143
   -12.2107 -12.2090 -12.1289 -12.0084 -11.9426 -11.8878 -11.8806 -11.8520
    -8.9914  -8.8543  -8.3611  -8.3337  -7.6422  -7.6311  -7.5797  -7.4248
    -7.1699  -6.9368  -6.7310  -6.6046  -6.5765  -6.5504  -6.4760  -6.4150
    -6.3395  -6.2718  -6.0558  -5.9968  -5.9764  -5.9539  -5.8829  -5.8441
    -5.6961  -5.6600  -5.5875  -5.5118  -5.2226  -5.0961  -5.0346  -4.9940
    -4.4870  -4.4465  -4.4057  -4.3826  -4.1207  -4.0863  -3.9410  -3.9356
    -3.8029  -3.7940  -3.7611  -3.6217  -3.2835  -3.2522  -3.1365  -3.0942
    -0.8526  -0.7920  -0.3641  -0.3177  -0.2872  -0.2644  -0.1909  -0.1644
    -0.1586  -0.1219   0.0389   0.1174   0.1545   0.1991   0.2151   0.2381
     0.4731   0.5534   0.5780   0.5928   0.7001   0.7260   0.7907   0.8156
     0.8898   0.9189   0.9736   1.0341   1.2506   1.2651   1.2698   1.2940

     occupation numbers 
     1.0000   1.0000   1.0000   1.0000   1.0000   1.0000   1.0000   1.0000
     1.0000   1.0000   1.0000   1.0000   1.0000   1.0000   1.0000   1.0000
     1.0000   1.0000   1.0000   1.0000   1.0000   1.0000   1.0000   1.0000
     1.0000   1.0000   1.0000   1.0000   1.0000   1.0000   1.0000   1.0000
     1.0000   1.0000   1.0000   1.0000   1.0000   1.0000   1.0000   1.0000
     1.0000   1.0000   1.0000   1.0000   1.0000   1.0000   1.0000   1.0000
     1.0000   1.0000   1.0000   1.0000   1.0000   1.0000   1.0000   1.0000
     1.0000   1.0000   1.0000   1.0000   1.0000   1.0000   1.0000   1.0000
     1.0000   1.0000   1.0000   1.0000   1.0000   1.0000   1.0000   1.0000
     1.0000   1.0000   1.0000   1.0000   1.0000   1.0000   1.0000   1.0000
     1.0000   1.0000   1.0000   1.0000   1.0000   1.0000   1.0000   1.0000
     1.0000   1.0000   1.0000   1.0000   1.0000   1.0000   1.0000   1.0000
     1.0000   1.0000   1.0000   1.0000   1.0000   1.0000   1.0000   1.0000
     1.0000   1.0000   1.0000   1.0000   1.0000   1.0000   1.0000   1.0000

          k = 0.0575 0.0113-0.0045 (142399 PWs)   bands (ev):

   -24.0330 -24.0225 -24.0092 -24.0007 -23.7622 -23.7589 -23.7487 -23.7470
   -19.2638 -19.2624 -19.2542 -19.2535 -18.9583 -18.9577 -18.9449 -18.9435
   -18.3428 -18.3183 -17.3081 -17.2626 -17.1514 -17.1508 -16.1267 -16.1112
   -12.2004 -12.1990 -12.1175 -12.0192 -11.9496 -11.8977 -11.8706 -11.8630
    -8.9629  -8.8835  -8.3607  -8.3577  -7.6395  -7.6294  -7.6238  -7.5234
    -7.0701  -6.9837  -6.6937  -6.6710  -6.5555  -6.5532  -6.3739  -6.3407
    -6.2636  -6.2585  -6.0439  -6.0146  -5.9383  -5.9049  -5.8666  -5.8562
    -5.7121  -5.7026  -5.6248  -5.6120  -5.1823  -5.1643  -4.9813  -4.9697
    -4.5339  -4.5103  -4.4514  -4.4254  -4.1461  -4.1206  -3.8599  -3.8546
    -3.7964  -3.7770  -3.7265  -3.6855  -3.2555  -3.2237  -3.1401  -3.1258
    -0.7694  -0.7230  -0.3663  -0.3562  -0.2791  -0.2781  -0.2446  -0.2381
    -0.1503  -0.1238  -0.0023   0.0578   0.1209   0.1584   0.2525   0.2872
     0.4952   0.5645   0.6425   0.6841   0.6965   0.7414   0.8050   0.8302
     0.8623   0.8777   0.9553   1.0371   1.2347   1.2402   1.2682   1.2855

     occupation numbers 
     1.0000   1.0000   1.0000   1.0000   1.0000   1.0000   1.0000   1.0000
     1.0000   1.0000   1.0000   1.0000   1.0000   1.0000   1.0000   1.0000
     1.0000   1.0000   1.0000   1.0000   1.0000   1.0000   1.0000   1.0000
     1.0000   1.0000   1.0000   1.0000   1.0000   1.0000   1.0000   1.0000
     1.0000   1.0000   1.0000   1.0000   1.0000   1.0000   1.0000   1.0000
     1.0000   1.0000   1.0000   1.0000   1.0000   1.0000   1.0000   1.0000
     1.0000   1.0000   1.0000   1.0000   1.0000   1.0000   1.0000   1.0000
     1.0000   1.0000   1.0000   1.0000   1.0000   1.0000   1.0000   1.0000
     1.0000   1.0000   1.0000   1.0000   1.0000   1.0000   1.0000   1.0000
     1.0000   1.0000   1.0000   1.0000   1.0000   1.0000   1.0000   1.0000
     1.0000   1.0000   1.0000   1.0000   1.0000   1.0000   1.0000   1.0000
     1.0000   1.0000   1.0000   1.0000   1.0000   1.0000   1.0000   1.0000
     1.0000   1.0000   1.0000   1.0000   1.0000   1.0000   1.0000   1.0000
     1.0000   1.0000   1.0000   1.0000   1.0000   1.0000   1.0000   1.0000

          k = 0.0575 0.0340 0.0303 (142418 PWs)   bands (ev):

   -24.0292 -24.0253 -24.0057 -24.0053 -23.7576 -23.7567 -23.7522 -23.7501
   -19.2660 -19.2648 -19.2531 -19.2498 -18.9558 -18.9553 -18.9471 -18.9464
   -18.3312 -18.3311 -17.2862 -17.2853 -17.1485 -17.1477 -16.1223 -16.1217
   -12.1982 -12.1977 -12.0699 -12.0618 -11.9198 -11.9152 -11.8767 -11.8716
    -8.9437  -8.9306  -8.3627  -8.3537  -7.6326  -7.6245  -7.5855  -7.5640
    -7.0565  -7.0314  -6.6662  -6.6260  -6.5429  -6.5171  -6.3676  -6.3326
    -6.2694  -6.2422  -6.0738  -6.0456  -5.9662  -5.9403  -5.8474  -5.8289
    -5.7208  -5.7059  -5.6226  -5.6154  -5.1934  -5.1487  -5.0010  -4.9963
    -4.5260  -4.5151  -4.4520  -4.4291  -4.1259  -4.1018  -3.8806  -3.8677
    -3.8106  -3.7724  -3.6848  -3.6786  -3.2401  -3.2364  -3.1423  -3.1300
    -0.8138  -0.8086  -0.3547  -0.3494  -0.3055  -0.2895  -0.1710  -0.1508
    -0.1310  -0.1159   0.0551   0.0700   0.1432   0.1555   0.2780   0.2892
     0.5334   0.5418   0.5658   0.5950   0.7129   0.7192   0.7983   0.8184
     0.8753   0.9061   0.9451   0.9663   1.2270   1.2384   1.2985   1.3130

     occupation numbers 
     1.0000   1.0000   1.0000   1.0000   1.0000   1.0000   1.0000   1.0000
     1.0000   1.0000   1.0000   1.0000   1.0000   1.0000   1.0000   1.0000
     1.0000   1.0000   1.0000   1.0000   1.0000   1.0000   1.0000   1.0000
     1.0000   1.0000   1.0000   1.0000   1.0000   1.0000   1.0000   1.0000
     1.0000   1.0000   1.0000   1.0000   1.0000   1.0000   1.0000   1.0000
     1.0000   1.0000   1.0000   1.0000   1.0000   1.0000   1.0000   1.0000
     1.0000   1.0000   1.0000   1.0000   1.0000   1.0000   1.0000   1.0000
     1.0000   1.0000   1.0000   1.0000   1.0000   1.0000   1.0000   1.0000
     1.0000   1.0000   1.0000   1.0000   1.0000   1.0000   1.0000   1.0000
     1.0000   1.0000   1.0000   1.0000   1.0000   1.0000   1.0000   1.0000
     1.0000   1.0000   1.0000   1.0000   1.0000   1.0000   1.0000   1.0000
     1.0000   1.0000   1.0000   1.0000   1.0000   1.0000   1.0000   1.0000
     1.0000   1.0000   1.0000   1.0000   1.0000   1.0000   1.0000   1.0000
     1.0000   1.0000   1.0000   1.0000   1.0000   1.0000   1.0000   1.0000

          k = 0.0575 0.0340 0.0651 (142374 PWs)   bands (ev):

   -24.0270 -24.0260 -24.0073 -24.0040 -23.7588 -23.7586 -23.7521 -23.7483
   -19.2668 -19.2660 -19.2531 -19.2491 -18.9648 -18.9640 -18.9393 -18.9378
   -18.3389 -18.3289 -17.2936 -17.2761 -17.1386 -17.1371 -16.1326 -16.1253
   -12.2100 -12.2085 -12.0837 -12.0532 -11.9092 -11.8897 -11.8823 -11.8773
    -8.9623  -8.9136  -8.3551  -8.3408  -7.6215  -7.6106  -7.5518  -7.4949
    -7.1114  -7.0332  -6.6513  -6.6022  -6.5656  -6.5401  -6.4431  -6.3916
    -6.3233  -6.2737  -6.0478  -6.0309  -5.9960  -5.9780  -5.8916  -5.8582
    -5.7083  -5.6859  -5.5536  -5.5263  -5.1955  -5.1290  -5.0418  -5.0179
    -4.4695  -4.4503  -4.4031  -4.3697  -4.0910  -4.0719  -3.9787  -3.9619
    -3.8328  -3.8033  -3.6681  -3.6349  -3.2727  -3.2638  -3.1271  -3.1050
    -0.8792  -0.8629  -0.3594  -0.3456  -0.3008  -0.2910  -0.1614  -0.1489
    -0.0737  -0.0613   0.1234   0.1345   0.1713   0.1831   0.2677   0.3100
     0.4168   0.4278   0.5440   0.5995   0.6822   0.7137   0.7861   0.8015
     0.8904   0.9153   0.9718   0.9875   1.2417   1.2558   1.3026   1.3197

     occupation numbers 
     1.0000   1.0000   1.0000   1.0000   1.0000   1.0000   1.0000   1.0000
     1.0000   1.0000   1.0000   1.0000   1.0000   1.0000   1.0000   1.0000
     1.0000   1.0000   1.0000   1.0000   1.0000   1.0000   1.0000   1.0000
     1.0000   1.0000   1.0000   1.0000   1.0000   1.0000   1.0000   1.0000
     1.0000   1.0000   1.0000   1.0000   1.0000   1.0000   1.0000   1.0000
     1.0000   1.0000   1.0000   1.0000   1.0000   1.0000   1.0000   1.0000
     1.0000   1.0000   1.0000   1.0000   1.0000   1.0000   1.0000   1.0000
     1.0000   1.0000   1.0000   1.0000   1.0000   1.0000   1.0000   1.0000
     1.0000   1.0000   1.0000   1.0000   1.0000   1.0000   1.0000   1.0000
     1.0000   1.0000   1.0000   1.0000   1.0000   1.0000   1.0000   1.0000
     1.0000   1.0000   1.0000   1.0000   1.0000   1.0000   1.0000   1.0000
     1.0000   1.0000   1.0000   1.0000   1.0000   1.0000   1.0000   1.0000
     1.0000   1.0000   1.0000   1.0000   1.0000   1.0000   1.0000   1.0000
     1.0000   1.0000   1.0000   1.0000   1.0000   1.0000   1.0000   1.0000

          k = 0.0575 0.0340-0.0393 (142354 PWs)   bands (ev):

   -24.0284 -24.0261 -24.0073 -24.0025 -23.7614 -23.7609 -23.7491 -23.7465
   -19.2653 -19.2649 -19.2539 -19.2509 -18.9658 -18.9650 -18.9383 -18.9367
   -18.3406 -18.3264 -17.2972 -17.2716 -17.1416 -17.1402 -16.1306 -16.1209
   -12.2125 -12.2111 -12.0993 -12.0540 -11.9121 -11.8942 -11.8747 -11.8624
    -8.9532  -8.8967  -8.3527  -8.3412  -7.6256  -7.6100  -7.5645  -7.4888
    -7.1173  -7.0318  -6.6514  -6.6143  -6.5727  -6.5517  -6.4942  -6.4402
    -6.2877  -6.2474  -6.0541  -6.0191  -5.9740  -5.9649  -5.8891  -5.8642
    -5.6917  -5.6769  -5.5525  -5.5214  -5.2080  -5.1562  -5.0112  -4.9927
    -4.4866  -4.4694  -4.3782  -4.3620  -4.1087  -4.0952  -3.9419  -3.9395
    -3.8133  -3.8061  -3.7112  -3.6570  -3.2727  -3.2589  -3.1276  -3.1097
    -0.8325  -0.8072  -0.3557  -0.3385  -0.3074  -0.2925  -0.1721  -0.1650
    -0.1292  -0.1077   0.0650   0.0947   0.1630   0.1803   0.2184   0.2399
     0.5009   0.5304   0.6015   0.6052   0.6980   0.7092   0.7792   0.7883
     0.8980   0.9159   0.9982   1.0213   1.2539   1.2612   1.2746   1.2859

     occupation numbers 
     1.0000   1.0000   1.0000   1.0000   1.0000   1.0000   1.0000   1.0000
     1.0000   1.0000   1.0000   1.0000   1.0000   1.0000   1.0000   1.0000
     1.0000   1.0000   1.0000   1.0000   1.0000   1.0000   1.0000   1.0000
     1.0000   1.0000   1.0000   1.0000   1.0000   1.0000   1.0000   1.0000
     1.0000   1.0000   1.0000   1.0000   1.0000   1.0000   1.0000   1.0000
     1.0000   1.0000   1.0000   1.0000   1.0000   1.0000   1.0000   1.0000
     1.0000   1.0000   1.0000   1.0000   1.0000   1.0000   1.0000   1.0000
     1.0000   1.0000   1.0000   1.0000   1.0000   1.0000   1.0000   1.0000
     1.0000   1.0000   1.0000   1.0000   1.0000   1.0000   1.0000   1.0000
     1.0000   1.0000   1.0000   1.0000   1.0000   1.0000   1.0000   1.0000
     1.0000   1.0000   1.0000   1.0000   1.0000   1.0000   1.0000   1.0000
     1.0000   1.0000   1.0000   1.0000   1.0000   1.0000   1.0000   1.0000
     1.0000   1.0000   1.0000   1.0000   1.0000   1.0000   1.0000   1.0000
     1.0000   1.0000   1.0000   1.0000   1.0000   1.0000   1.0000   1.0000

          k = 0.0575 0.0340-0.0045 (142404 PWs)   bands (ev):

   -24.0301 -24.0258 -24.0065 -24.0031 -23.7608 -23.7594 -23.7486 -23.7479
   -19.2642 -19.2637 -19.2531 -19.2528 -18.9581 -18.9579 -18.9445 -18.9439
   -18.3358 -18.3257 -17.2947 -17.2758 -17.1513 -17.1510 -16.1220 -16.1156
   -12.2007 -12.2003 -12.0936 -12.0559 -11.9245 -11.9055 -11.8700 -11.8668
    -8.9402  -8.9074  -8.3588  -8.3562  -7.6362  -7.6320  -7.5971  -7.5554
    -7.0578  -7.0230  -6.6598  -6.6490  -6.5406  -6.5374  -6.4277  -6.4140
    -6.2188  -6.2122  -6.0547  -6.0363  -5.9297  -5.9152  -5.8499  -5.8433
    -5.7159  -5.7052  -5.6214  -5.6168  -5.1865  -5.1767  -4.9754  -4.9717
    -4.5345  -4.5190  -4.4505  -4.4284  -4.1278  -4.1161  -3.8609  -3.8588
    -3.7751  -3.7573  -3.7387  -3.7116  -3.2456  -3.2315  -3.1404  -3.1351
    -0.7540  -0.7347  -0.3517  -0.3464  -0.2985  -0.2768  -0.2622  -0.2435
    -0.1484  -0.1284   0.0190   0.0449   0.1372   0.1557   0.2615   0.2801
     0.5271   0.5622   0.6275   0.6506   0.7069   0.7350   0.8101   0.8165
     0.8808   0.8903   0.9706   1.0080   1.2371   1.2387   1.2727   1.2802

     occupation numbers 
     1.0000   1.0000   1.0000   1.0000   1.0000   1.0000   1.0000   1.0000
     1.0000   1.0000   1.0000   1.0000   1.0000   1.0000   1.0000   1.0000
     1.0000   1.0000   1.0000   1.0000   1.0000   1.0000   1.0000   1.0000
     1.0000   1.0000   1.0000   1.0000   1.0000   1.0000   1.0000   1.0000
     1.0000   1.0000   1.0000   1.0000   1.0000   1.0000   1.0000   1.0000
     1.0000   1.0000   1.0000   1.0000   1.0000   1.0000   1.0000   1.0000
     1.0000   1.0000   1.0000   1.0000   1.0000   1.0000   1.0000   1.0000
     1.0000   1.0000   1.0000   1.0000   1.0000   1.0000   1.0000   1.0000
     1.0000   1.0000   1.0000   1.0000   1.0000   1.0000   1.0000   1.0000
     1.0000   1.0000   1.0000   1.0000   1.0000   1.0000   1.0000   1.0000
     1.0000   1.0000   1.0000   1.0000   1.0000   1.0000   1.0000   1.0000
     1.0000   1.0000   1.0000   1.0000   1.0000   1.0000   1.0000   1.0000
     1.0000   1.0000   1.0000   1.0000   1.0000   1.0000   1.0000   1.0000
     1.0000   1.0000   1.0000   1.0000   1.0000   1.0000   1.0000   1.0000

     highest occupied level (ev):     1.3320

!    total energy              =   -1281.98443123 Ry
     Harris-Foulkes estimate   =   -1281.98443180 Ry
     estimated scf accuracy    <       0.00000063 Ry

     total all-electron energy =     -4786.428179 Ry

     The total energy is the sum of the following terms:

     one-electron contribution =    -654.42043540 Ry
     hartree contribution      =     424.88237658 Ry
     xc contribution           =    -260.41213212 Ry
     ewald contribution        =    -461.63880349 Ry
     one-center paw contrib.   =    -330.39543680 Ry

     convergence has been achieved in  26 iterations

     Forces acting on atoms (Ry/au):

     atom    1 type  1   force =    -0.01137049   -0.00708991   -0.01213374
     atom    2 type  4   force =     0.03496098    0.00953340   -0.02304257
     atom    3 type  1   force =    -0.00368622   -0.01276321   -0.01350775
     atom    4 type  1   force =     0.01297414   -0.00702462    0.00506657
     atom    5 type  4   force =     0.00378962   -0.03907013    0.04216075
     atom    6 type  1   force =     0.01637625    0.01035532   -0.01489524
     atom    7 type  4   force =    -0.01086998    0.02331500    0.04614586
     atom    8 type  2   force =     0.19640777   -0.12639726    0.05895164
     atom    9 type  3   force =    -0.15428844   -0.06630045   -0.15734285
     atom   10 type  3   force =    -0.05230534    0.20174733    0.09203986
     atom   11 type  4   force =    -0.04561395    0.02775349   -0.01836622
     atom   12 type  2   force =     0.11974168   -0.05876274    0.20829110
     atom   13 type  3   force =    -0.19744683   -0.09914014   -0.06291493
     atom   14 type  3   force =     0.06710135    0.15536655   -0.15250099
     atom   15 type  3   force =     0.06710135   -0.15536655   -0.15250099
     atom   16 type  3   force =    -0.19744683    0.09914014   -0.06291493
     atom   17 type  2   force =     0.11974168    0.05876274    0.20829110
     atom   18 type  4   force =    -0.04561395   -0.02775349   -0.01836622
     atom   19 type  3   force =    -0.05230534   -0.20174733    0.09203986
     atom   20 type  3   force =    -0.15428844    0.06630045   -0.15734285
     atom   21 type  2   force =     0.19640777    0.12639726    0.05895164
     atom   22 type  4   force =    -0.01086998   -0.02331500    0.04614586
     atom   23 type  1   force =     0.01637625   -0.01035532   -0.01489524
     atom   24 type  4   force =     0.00378962    0.03907013    0.04216075
     atom   25 type  1   force =     0.01297414    0.00702462    0.00506657
     atom   26 type  1   force =    -0.00368622    0.01276321   -0.01350775
     atom   27 type  4   force =     0.03496098   -0.00953340   -0.02304257
     atom   28 type  1   force =    -0.01137049    0.00708991   -0.01213374
     atom   29 type  3   force =    -0.06710135   -0.15536655    0.15250099
     atom   30 type  3   force =     0.19744683    0.09914014    0.06291493
     atom   31 type  2   force =    -0.11974168    0.05876274   -0.20829110
     atom   32 type  4   force =     0.04561395   -0.02775349    0.01836622
     atom   33 type  3   force =     0.05230534   -0.20174733   -0.09203986
     atom   34 type  3   force =     0.15428844    0.06630045    0.15734285
     atom   35 type  2   force =    -0.19640777    0.12639726   -0.05895164
     atom   36 type  4   force =     0.01086998   -0.02331500   -0.04614586
     atom   37 type  1   force =    -0.01637625   -0.01035532    0.01489524
     atom   38 type  4   force =    -0.00378962    0.03907013   -0.04216075
     atom   39 type  1   force =    -0.01297414    0.00702462   -0.00506657
     atom   40 type  1   force =     0.00368622    0.01276321    0.01350775
     atom   41 type  4   force =    -0.03496098   -0.00953340    0.02304257
     atom   42 type  1   force =     0.01137049    0.00708991    0.01213374
     atom   43 type  3   force =    -0.06710135    0.15536655    0.15250099
     atom   44 type  3   force =     0.19744683   -0.09914014    0.06291493
     atom   45 type  2   force =    -0.11974168   -0.05876274   -0.20829110
     atom   46 type  4   force =     0.04561395    0.02775349    0.01836622
     atom   47 type  3   force =     0.05230534    0.20174733   -0.09203986
     atom   48 type  3   force =     0.15428844   -0.06630045    0.15734285
     atom   49 type  2   force =    -0.19640777   -0.12639726   -0.05895164
     atom   50 type  4   force =     0.01086998    0.02331500   -0.04614586
     atom   51 type  1   force =    -0.01637625    0.01035532    0.01489524
     atom   52 type  4   force =    -0.00378962   -0.03907013   -0.04216075
     atom   53 type  1   force =    -0.01297414   -0.00702462   -0.00506657
     atom   54 type  1   force =     0.00368622   -0.01276321    0.01350775
     atom   55 type  4   force =    -0.03496098    0.00953340    0.02304257
     atom   56 type  1   force =     0.01137049   -0.00708991    0.01213374
     The non-local contrib.  to forces
     atom    1 type  1   force =     0.16237949    0.38319535    0.10793497
     atom    2 type  4   force =    -2.40892073   -0.47658847    1.54146800
     atom    3 type  1   force =     0.04610992   -0.03426991    0.05332106
     atom    4 type  1   force =    -0.56786590   -0.40764749   -0.11095416
     atom    5 type  4   force =     0.14525535    1.88399277   -2.23700132
     atom    6 type  1   force =    -0.00558599    0.06346901    0.05484514
     atom    7 type  4   force =     0.54764317   -1.16450875   -2.63093020
     atom    8 type  2   force =     0.65337153   -0.44620788    0.18137313
     atom    9 type  3   force =     0.08161744    0.02756078    0.07198851
     atom   10 type  3   force =     0.02976631   -0.10118888   -0.04142309
     atom   11 type  4   force =     2.27189371   -1.50092497    0.81637796
     atom   12 type  2   force =     0.37916319   -0.19464225    0.69466145
     atom   13 type  3   force =     0.09369787    0.04871176    0.03922662
     atom   14 type  3   force =    -0.02941458   -0.07509303    0.07999318
     atom   15 type  3   force =    -0.02941458    0.07509303    0.07999318
     atom   16 type  3   force =     0.09369787   -0.04871176    0.03922662
     atom   17 type  2   force =     0.37916319    0.19464225    0.69466145
     atom   18 type  4   force =     2.27189371    1.50092497    0.81637796
     atom   19 type  3   force =     0.02976631    0.10118888   -0.04142309
     atom   20 type  3   force =     0.08161744   -0.02756078    0.07198851
     atom   21 type  2   force =     0.65337153    0.44620788    0.18137313
     atom   22 type  4   force =     0.54764317    1.16450875   -2.63093020
     atom   23 type  1   force =    -0.00558599   -0.06346901    0.05484514
     atom   24 type  4   force =     0.14525535   -1.88399277   -2.23700132
     atom   25 type  1   force =    -0.56786590    0.40764749   -0.11095416
     atom   26 type  1   force =     0.04610992    0.03426991    0.05332106
     atom   27 type  4   force =    -2.40892073    0.47658847    1.54146800
     atom   28 type  1   force =     0.16237949   -0.38319535    0.10793497
     atom   29 type  3   force =     0.02941458    0.07509303   -0.07999318
     atom   30 type  3   force =    -0.09369787   -0.04871176   -0.03922662
     atom   31 type  2   force =    -0.37916319    0.19464225   -0.69466145
     atom   32 type  4   force =    -2.27189371    1.50092497   -0.81637796
     atom   33 type  3   force =    -0.02976631    0.10118888    0.04142309
     atom   34 type  3   force =    -0.08161744   -0.02756078   -0.07198851
     atom   35 type  2   force =    -0.65337153    0.44620788   -0.18137313
     atom   36 type  4   force =    -0.54764317    1.16450875    2.63093020
     atom   37 type  1   force =     0.00558599   -0.06346901   -0.05484514
     atom   38 type  4   force =    -0.14525535   -1.88399277    2.23700132
     atom   39 type  1   force =     0.56786590    0.40764749    0.11095416
     atom   40 type  1   force =    -0.04610992    0.03426991   -0.05332106
     atom   41 type  4   force =     2.40892073    0.47658847   -1.54146800
     atom   42 type  1   force =    -0.16237949   -0.38319535   -0.10793497
     atom   43 type  3   force =     0.02941458   -0.07509303   -0.07999318
     atom   44 type  3   force =    -0.09369787    0.04871176   -0.03922662
     atom   45 type  2   force =    -0.37916319   -0.19464225   -0.69466145
     atom   46 type  4   force =    -2.27189371   -1.50092497   -0.81637796
     atom   47 type  3   force =    -0.02976631   -0.10118888    0.04142309
     atom   48 type  3   force =    -0.08161744    0.02756078   -0.07198851
     atom   49 type  2   force =    -0.65337153   -0.44620788   -0.18137313
     atom   50 type  4   force =    -0.54764317   -1.16450875    2.63093020
     atom   51 type  1   force =     0.00558599    0.06346901   -0.05484514
     atom   52 type  4   force =    -0.14525535    1.88399277    2.23700132
     atom   53 type  1   force =     0.56786590   -0.40764749    0.11095416
     atom   54 type  1   force =    -0.04610992   -0.03426991   -0.05332106
     atom   55 type  4   force =     2.40892073   -0.47658847   -1.54146800
     atom   56 type  1   force =    -0.16237949    0.38319535   -0.10793497
     The ionic contribution  to forces
     atom    1 type  1   force =    -2.98574241    0.28768524   -1.98995955
     atom    2 type  4   force =    12.32605624    4.46897253   -6.05307582
     atom    3 type  1   force =    -0.22198844    1.74709182    0.03104347
     atom    4 type  1   force =     2.72398529    2.76015808    2.00356854
     atom    5 type  4   force =    -1.38510603   -8.79391461   11.50298923
     atom    6 type  1   force =    -0.41177865    0.08160974    1.10576084
     atom    7 type  4   force =    -2.11153922    6.39162145   12.56330285
     atom    8 type  2   force =    -4.06343486    3.26529007   -1.16466039
     atom    9 type  3   force =    -2.33212389   -0.14105590   -2.07121141
     atom   10 type  3   force =    -1.27980373    2.89156196    0.78930334
     atom   11 type  4   force =   -11.29512376    6.38826800   -2.14928522
     atom   12 type  2   force =    -2.89324934    1.04598259   -4.77600606
     atom   13 type  3   force =    -2.63719007   -1.06735352   -1.62107703
     atom   14 type  3   force =     0.24455193    2.08108242   -2.54111395
     atom   15 type  3   force =     0.24455193   -2.08108242   -2.54111395
     atom   16 type  3   force =    -2.63719007    1.06735352   -1.62107703
     atom   17 type  2   force =    -2.89324934   -1.04598259   -4.77600606
     atom   18 type  4   force =   -11.29512376   -6.38826800   -2.14928522
     atom   19 type  3   force =    -1.27980373   -2.89156196    0.78930334
     atom   20 type  3   force =    -2.33212389    0.14105590   -2.07121141
     atom   21 type  2   force =    -4.06343486   -3.26529007   -1.16466039
     atom   22 type  4   force =    -2.11153922   -6.39162145   12.56330285
     atom   23 type  1   force =    -0.41177865   -0.08160974    1.10576084
     atom   24 type  4   force =    -1.38510603    8.79391461   11.50298923
     atom   25 type  1   force =     2.72398529   -2.76015808    2.00356854
     atom   26 type  1   force =    -0.22198844   -1.74709182    0.03104347
     atom   27 type  4   force =    12.32605624   -4.46897253   -6.05307582
     atom   28 type  1   force =    -2.98574241   -0.28768524   -1.98995955
     atom   29 type  3   force =    -0.24455193   -2.08108242    2.54111395
     atom   30 type  3   force =     2.63719007    1.06735352    1.62107703
     atom   31 type  2   force =     2.89324934   -1.04598259    4.77600606
     atom   32 type  4   force =    11.29512376   -6.38826800    2.14928522
     atom   33 type  3   force =     1.27980373   -2.89156196   -0.78930334
     atom   34 type  3   force =     2.33212389    0.14105590    2.07121141
     atom   35 type  2   force =     4.06343486   -3.26529007    1.16466039
     atom   36 type  4   force =     2.11153922   -6.39162145  -12.56330285
     atom   37 type  1   force =     0.41177865   -0.08160974   -1.10576084
     atom   38 type  4   force =     1.38510603    8.79391461  -11.50298923
     atom   39 type  1   force =    -2.72398529   -2.76015808   -2.00356854
     atom   40 type  1   force =     0.22198844   -1.74709182   -0.03104347
     atom   41 type  4   force =   -12.32605624   -4.46897253    6.05307582
     atom   42 type  1   force =     2.98574241   -0.28768524    1.98995955
     atom   43 type  3   force =    -0.24455193    2.08108242    2.54111395
     atom   44 type  3   force =     2.63719007   -1.06735352    1.62107703
     atom   45 type  2   force =     2.89324934    1.04598259    4.77600606
     atom   46 type  4   force =    11.29512376    6.38826800    2.14928522
     atom   47 type  3   force =     1.27980373    2.89156196   -0.78930334
     atom   48 type  3   force =     2.33212389   -0.14105590    2.07121141
     atom   49 type  2   force =     4.06343486    3.26529007    1.16466039
     atom   50 type  4   force =     2.11153922    6.39162145  -12.56330285
     atom   51 type  1   force =     0.41177865    0.08160974   -1.10576084
     atom   52 type  4   force =     1.38510603   -8.79391461  -11.50298923
     atom   53 type  1   force =    -2.72398529    2.76015808   -2.00356854
     atom   54 type  1   force =     0.22198844    1.74709182   -0.03104347
     atom   55 type  4   force =   -12.32605624    4.46897253    6.05307582
     atom   56 type  1   force =     2.98574241    0.28768524    1.98995955
     The local contribution  to forces
     atom    1 type  1   force =     2.81496222   -0.67161357    1.87154486
     atom    2 type  4   force =    -9.90059114   -3.98642567    4.50041419
     atom    3 type  1   force =     0.17234902   -1.72732662   -0.09838264
     atom    4 type  1   force =    -2.15236385   -2.36576649   -1.88896709
     atom    5 type  4   force =     1.24489660    6.88528982   -9.24121654
     atom    6 type  1   force =     0.43494208   -0.13303923   -1.17548177
     atom    7 type  4   force =     1.55734271   -5.21260741   -9.90654382
     atom    8 type  2   force =     3.62055855   -2.95571502    1.04719894
     atom    9 type  3   force =     2.09619135    0.04718326    1.84189458
     atom   10 type  3   force =     1.19769685   -2.58863241   -0.65582168
     atom   11 type  4   force =     8.99524307   -4.87119272    1.32085259
     atom   12 type  2   force =     2.64264410   -0.91408518    4.30528108
     atom   13 type  3   force =     2.34605164    0.91950402    1.51893414
     atom   14 type  3   force =    -0.14802157   -1.85061328    2.30861984
     atom   15 type  3   force =    -0.14802157    1.85061328    2.30861984
[...]
     atom   38 type  4   force =    -1.24489660   -6.88528982    9.24121654
     atom   39 type  1   force =     2.15236385    2.36576649    1.88896709
     atom   40 type  1   force =    -0.17234902    1.72732662    0.09838264
     atom   41 type  4   force =     9.90059114    3.98642567   -4.50041419
     atom   42 type  1   force =    -2.81496222    0.67161357   -1.87154486
     atom   43 type  3   force =     0.14802157   -1.85061328   -2.30861984
     atom   44 type  3   force =    -2.34605164    0.91950402   -1.51893414
     atom   45 type  2   force =    -2.64264410   -0.91408518   -4.30528108
     atom   46 type  4   force =    -8.99524307   -4.87119272   -1.32085259
     atom   47 type  3   force =    -1.19769685   -2.58863241    0.65582168
     atom   48 type  3   force =    -2.09619135    0.04718326   -1.84189458
     atom   49 type  2   force =    -3.62055855   -2.95571502   -1.04719894
     atom   50 type  4   force =    -1.55734271   -5.21260741    9.90654382
     atom   51 type  1   force =    -0.43494208   -0.13303923    1.17548177
     atom   52 type  4   force =    -1.24489660    6.88528982    9.24121654
     atom   53 type  1   force =     2.15236385   -2.36576649    1.88896709
     atom   54 type  1   force =    -0.17234902   -1.72732662    0.09838264
     atom   55 type  4   force =     9.90059114   -3.98642567   -4.50041419
     atom   56 type  1   force =    -2.81496222   -0.67161357   -1.87154486
     The core correction contribution to forces
     atom    1 type  1   force =    -0.00288277   -0.00641364   -0.00175945
     atom    2 type  4   force =     0.01868287    0.00360523   -0.01197108
     atom    3 type  1   force =     0.00036041    0.00171966    0.00001770
     atom    4 type  1   force =     0.00911476    0.00619105    0.00143114
     atom    5 type  4   force =    -0.00117954   -0.01437080    0.01728057
     atom    6 type  1   force =    -0.00119889   -0.00160703   -0.00012035
     atom    7 type  4   force =    -0.00420517    0.00883165    0.02023879
     atom    8 type  2   force =    -0.01421895    0.01018986   -0.00491096
     atom    9 type  3   force =     0.00000000    0.00000000    0.00000000
     atom   10 type  3   force =     0.00000000    0.00000000    0.00000000
     atom   11 type  4   force =    -0.01753727    0.01166528   -0.00641154
     atom   12 type  2   force =    -0.00873480    0.00400402   -0.01567205
     atom   13 type  3   force =     0.00000000    0.00000000    0.00000000
     atom   14 type  3   force =     0.00000000    0.00000000    0.00000000
     atom   15 type  3   force =     0.00000000    0.00000000    0.00000000
     atom   16 type  3   force =     0.00000000    0.00000000    0.00000000
     atom   17 type  2   force =    -0.00873480   -0.00400402   -0.01567205
     atom   18 type  4   force =    -0.01753727   -0.01166528   -0.00641154
     atom   19 type  3   force =     0.00000000    0.00000000    0.00000000
     atom   20 type  3   force =     0.00000000    0.00000000    0.00000000
     atom   21 type  2   force =    -0.01421895   -0.01018986   -0.00491096
     atom   22 type  4   force =    -0.00420517   -0.00883165    0.02023879
     atom   23 type  1   force =    -0.00119889    0.00160703   -0.00012035
     atom   24 type  4   force =    -0.00117954    0.01437080    0.01728057
     atom   25 type  1   force =     0.00911476   -0.00619105    0.00143114
     atom   26 type  1   force =     0.00036041   -0.00171966    0.00001770
     atom   27 type  4   force =     0.01868287   -0.00360523   -0.01197108
     atom   28 type  1   force =    -0.00288277    0.00641364   -0.00175945
     atom   29 type  3   force =     0.00000000    0.00000000    0.00000000
     atom   30 type  3   force =     0.00000000    0.00000000    0.00000000
     atom   31 type  2   force =     0.00873480   -0.00400402    0.01567205
     atom   32 type  4   force =     0.01753727   -0.01166528    0.00641154
     atom   33 type  3   force =     0.00000000    0.00000000    0.00000000
     atom   34 type  3   force =     0.00000000    0.00000000    0.00000000
     atom   35 type  2   force =     0.01421895   -0.01018986    0.00491096
     atom   36 type  4   force =     0.00420517   -0.00883165   -0.02023879
     atom   37 type  1   force =     0.00119889    0.00160703    0.00012035
     atom   38 type  4   force =     0.00117954    0.01437080   -0.01728057
     atom   39 type  1   force =    -0.00911476   -0.00619105   -0.00143114
     atom   40 type  1   force =    -0.00036041   -0.00171966   -0.00001770
     atom   41 type  4   force =    -0.01868287   -0.00360523    0.01197108
     atom   42 type  1   force =     0.00288277    0.00641364    0.00175945
     atom   43 type  3   force =     0.00000000    0.00000000    0.00000000
     atom   44 type  3   force =     0.00000000    0.00000000    0.00000000
     atom   45 type  2   force =     0.00873480    0.00400402    0.01567205
     atom   46 type  4   force =     0.01753727    0.01166528    0.00641154
     atom   47 type  3   force =     0.00000000    0.00000000    0.00000000
     atom   48 type  3   force =     0.00000000    0.00000000    0.00000000
     atom   49 type  2   force =     0.01421895    0.01018986    0.00491096
     atom   50 type  4   force =     0.00420517    0.00883165   -0.02023879
     atom   51 type  1   force =     0.00119889   -0.00160703    0.00012035
     atom   52 type  4   force =     0.00117954   -0.01437080   -0.01728057
     atom   53 type  1   force =    -0.00911476    0.00619105   -0.00143114
     atom   54 type  1   force =    -0.00036041    0.00171966   -0.00001770
     atom   55 type  4   force =    -0.01868287    0.00360523    0.01197108
     atom   56 type  1   force =     0.00288277   -0.00641364    0.00175945
     The Hubbard contrib.    to forces
     atom    1 type  1   force =     0.00000000    0.00000000    0.00000000
     atom    2 type  4   force =     0.00000000    0.00000000    0.00000000
     atom    3 type  1   force =     0.00000000    0.00000000    0.00000000
     atom    4 type  1   force =     0.00000000    0.00000000    0.00000000
     atom    5 type  4   force =     0.00000000    0.00000000    0.00000000
     atom    6 type  1   force =     0.00000000    0.00000000    0.00000000
     atom    7 type  4   force =     0.00000000    0.00000000    0.00000000
     atom    8 type  2   force =     0.00000000    0.00000000    0.00000000
     atom    9 type  3   force =     0.00000000    0.00000000    0.00000000
     atom   10 type  3   force =     0.00000000    0.00000000    0.00000000
     atom   11 type  4   force =     0.00000000    0.00000000    0.00000000
     atom   12 type  2   force =     0.00000000    0.00000000    0.00000000
     atom   13 type  3   force =     0.00000000    0.00000000    0.00000000
     atom   14 type  3   force =     0.00000000    0.00000000    0.00000000
     atom   15 type  3   force =     0.00000000    0.00000000    0.00000000
     atom   16 type  3   force =     0.00000000    0.00000000    0.00000000
     atom   17 type  2   force =     0.00000000    0.00000000    0.00000000
     atom   18 type  4   force =     0.00000000    0.00000000    0.00000000
     atom   19 type  3   force =     0.00000000    0.00000000    0.00000000
     atom   20 type  3   force =     0.00000000    0.00000000    0.00000000
     atom   21 type  2   force =     0.00000000    0.00000000    0.00000000
     atom   22 type  4   force =     0.00000000    0.00000000    0.00000000
     atom   23 type  1   force =     0.00000000    0.00000000    0.00000000
     atom   24 type  4   force =     0.00000000    0.00000000    0.00000000
     atom   25 type  1   force =     0.00000000    0.00000000    0.00000000
     atom   26 type  1   force =     0.00000000    0.00000000    0.00000000
     atom   27 type  4   force =     0.00000000    0.00000000    0.00000000
     atom   28 type  1   force =     0.00000000    0.00000000    0.00000000
     atom   29 type  3   force =     0.00000000    0.00000000    0.00000000
     atom   30 type  3   force =     0.00000000    0.00000000    0.00000000
     atom   31 type  2   force =     0.00000000    0.00000000    0.00000000
     atom   32 type  4   force =     0.00000000    0.00000000    0.00000000
     atom   33 type  3   force =     0.00000000    0.00000000    0.00000000
     atom   34 type  3   force =     0.00000000    0.00000000    0.00000000
     atom   35 type  2   force =     0.00000000    0.00000000    0.00000000
     atom   36 type  4   force =     0.00000000    0.00000000    0.00000000
     atom   37 type  1   force =     0.00000000    0.00000000    0.00000000
     atom   38 type  4   force =     0.00000000    0.00000000    0.00000000
     atom   39 type  1   force =     0.00000000    0.00000000    0.00000000
     atom   40 type  1   force =     0.00000000    0.00000000    0.00000000
     atom   41 type  4   force =     0.00000000    0.00000000    0.00000000
     atom   42 type  1   force =     0.00000000    0.00000000    0.00000000
     atom   43 type  3   force =     0.00000000    0.00000000    0.00000000
     atom   44 type  3   force =     0.00000000    0.00000000    0.00000000
     atom   45 type  2   force =     0.00000000    0.00000000    0.00000000
     atom   46 type  4   force =     0.00000000    0.00000000    0.00000000
     atom   47 type  3   force =     0.00000000    0.00000000    0.00000000
     atom   48 type  3   force =     0.00000000    0.00000000    0.00000000
     atom   49 type  2   force =     0.00000000    0.00000000    0.00000000
     atom   50 type  4   force =     0.00000000    0.00000000    0.00000000
     atom   51 type  1   force =     0.00000000    0.00000000    0.00000000
     atom   52 type  4   force =     0.00000000    0.00000000    0.00000000
     atom   53 type  1   force =     0.00000000    0.00000000    0.00000000
     atom   54 type  1   force =     0.00000000    0.00000000    0.00000000
     atom   55 type  4   force =     0.00000000    0.00000000    0.00000000
     atom   56 type  1   force =     0.00000000    0.00000000    0.00000000
     The SCF correction term to forces
     atom    1 type  1   force =    -0.00008703    0.00005671    0.00010543
     atom    2 type  4   force =    -0.00026626   -0.00003022    0.00012214
     atom    3 type  1   force =    -0.00051712    0.00002184    0.00049266
     atom    4 type  1   force =     0.00010384    0.00004022   -0.00001186
     atom    5 type  4   force =    -0.00007676   -0.00006730    0.00010881
     atom    6 type  1   force =    -0.00000229   -0.00007716    0.00010090
     atom    7 type  4   force =    -0.00011147   -0.00002194    0.00007823
     atom    8 type  2   force =     0.00013150    0.00004570   -0.00004906
     atom    9 type  3   force =     0.00002666    0.00001141   -0.00001453
     atom   10 type  3   force =     0.00003523    0.00000665   -0.00001871
     atom   11 type  4   force =    -0.00008969   -0.00006211    0.00009999
     atom   12 type  2   force =    -0.00008147   -0.00002192    0.00002669
     atom   13 type  3   force =    -0.00000628   -0.00000240    0.00000134
     atom   14 type  3   force =    -0.00001444   -0.00000956   -0.00000006
     atom   15 type  3   force =    -0.00001444    0.00000956   -0.00000006
     atom   16 type  3   force =    -0.00000628    0.00000240    0.00000134
     atom   17 type  2   force =    -0.00008147    0.00002192    0.00002669
     atom   18 type  4   force =    -0.00008969    0.00006211    0.00009999
     atom   19 type  3   force =     0.00003523   -0.00000665   -0.00001871
     atom   20 type  3   force =     0.00002666   -0.00001141   -0.00001453
     atom   21 type  2   force =     0.00013150   -0.00004570   -0.00004906
     atom   22 type  4   force =    -0.00011147    0.00002194    0.00007823
     atom   23 type  1   force =    -0.00000229    0.00007716    0.00010090
     atom   24 type  4   force =    -0.00007676    0.00006730    0.00010881
     atom   25 type  1   force =     0.00010384   -0.00004022   -0.00001186
     atom   26 type  1   force =    -0.00051712   -0.00002184    0.00049266
     atom   27 type  4   force =    -0.00026626    0.00003022    0.00012214
     atom   28 type  1   force =    -0.00008703   -0.00005671    0.00010543
     atom   29 type  3   force =     0.00001444    0.00000956    0.00000006
     atom   30 type  3   force =     0.00000628    0.00000240   -0.00000134
     atom   31 type  2   force =     0.00008147    0.00002192   -0.00002669
     atom   32 type  4   force =     0.00008969    0.00006211   -0.00009999
     atom   33 type  3   force =    -0.00003523   -0.00000665    0.00001871
     atom   34 type  3   force =    -0.00002666   -0.00001141    0.00001453
     atom   35 type  2   force =    -0.00013150   -0.00004570    0.00004906
     atom   36 type  4   force =     0.00011147    0.00002194   -0.00007823
     atom   37 type  1   force =     0.00000229    0.00007716   -0.00010090
     atom   38 type  4   force =     0.00007676    0.00006730   -0.00010881
     atom   39 type  1   force =    -0.00010384   -0.00004022    0.00001186
     atom   40 type  1   force =     0.00051712   -0.00002184   -0.00049266
     atom   41 type  4   force =     0.00026626    0.00003022   -0.00012214
     atom   42 type  1   force =     0.00008703   -0.00005671   -0.00010543
     atom   43 type  3   force =     0.00001444   -0.00000956    0.00000006
     atom   44 type  3   force =     0.00000628   -0.00000240   -0.00000134
     atom   45 type  2   force =     0.00008147   -0.00002192   -0.00002669
     atom   46 type  4   force =     0.00008969   -0.00006211   -0.00009999
     atom   47 type  3   force =    -0.00003523    0.00000665    0.00001871
     atom   48 type  3   force =    -0.00002666    0.00001141    0.00001453
     atom   49 type  2   force =    -0.00013150    0.00004570    0.00004906
     atom   50 type  4   force =     0.00011147   -0.00002194   -0.00007823
     atom   51 type  1   force =     0.00000229   -0.00007716   -0.00010090
     atom   52 type  4   force =     0.00007676   -0.00006730   -0.00010881
     atom   53 type  1   force =    -0.00010384    0.00004022    0.00001186
     atom   54 type  1   force =     0.00051712    0.00002184   -0.00049266
     atom   55 type  4   force =     0.00026626   -0.00003022   -0.00012214
     atom   56 type  1   force =     0.00008703    0.00005671   -0.00010543

     Total force =     1.168604     Total SCF correction =     0.001725


     entering subroutine stress ...

          total   stress  (Ry/bohr**3)                   (kbar)     P=  150.03
   0.00106389   0.00000000   0.00013617        156.50      0.00     20.03
   0.00000000   0.00102341   0.00000000          0.00    150.55      0.00
   0.00013617   0.00000000   0.00097240         20.03      0.00    143.05

     kinetic stress (kbar)  15111.12      0.00    336.62
                                0.00  15507.48      0.00
                              336.62      0.00  15065.25

     local   stress (kbar) -15844.52      0.00   8035.31
                                0.00  -8941.23      0.00
                             8035.31      0.00 -11983.24

     nonloc. stress (kbar)   1018.88      0.00     11.43
                                0.00   1029.43      0.00
                               11.43      0.00    990.42

     hartree stress (kbar)   7142.33      0.00  -2935.76
                                0.00   5093.14      0.00
                            -2935.76      0.00   5663.64

     exc-cor stress (kbar)  -2178.33     -0.00    -11.15
                               -0.00  -2198.20      0.00
                              -11.15      0.00  -2183.97

     corecor stress (kbar)  -1130.97     -0.00     -2.82
                               -0.00  -1132.87     -0.00
                               -2.82     -0.00  -1130.70

     ewald   stress (kbar)  -3962.00      0.00  -5413.60
                                0.00  -9207.19      0.00
                            -5413.60      0.00  -6278.35

     hubbard stress (kbar)      0.00      0.00      0.00
                                0.00      0.00      0.00
                                0.00      0.00      0.00

     london  stress (kbar)      0.00      0.00      0.00
                                0.00      0.00      0.00
                                0.00      0.00      0.00

     XDM     stress (kbar)      0.00      0.00      0.00
                                0.00      0.00      0.00
                                0.00      0.00      0.00

     dft-nl  stress (kbar)      0.00      0.00      0.00
                                0.00      0.00      0.00
                                0.00      0.00      0.00

     TS-vdW  stress (kbar)      0.00      0.00      0.00
                                0.00      0.00      0.00
                                0.00      0.00      0.00



     Writing output data file scf.pbe.ec-180.kp-444.HMX-792930.np-8.300K.save

     init_run     :    779.36s CPU    723.59s WALL (       1 calls)
     electrons    :  25251.25s CPU  21689.56s WALL (       1 calls)
     forces       :    433.82s CPU    396.75s WALL (       1 calls)
     stress       :   1133.61s CPU   1112.15s WALL (       1 calls)

     Called by init_run:
     wfcinit      :    417.97s CPU    347.68s WALL (       1 calls)
     potinit      :    126.54s CPU    128.61s WALL (       1 calls)

     Called by electrons:
     c_bands      :  21544.76s CPU  17962.24s WALL (      26 calls)
     sum_band     :   3299.45s CPU   3274.05s WALL (      26 calls)
     v_of_rho     :    114.39s CPU    125.45s WALL (      27 calls)
     v_h          :      8.40s CPU      9.09s WALL (      27 calls)
     v_xc         :    113.71s CPU    125.57s WALL (      29 calls)
     newd         :    231.13s CPU    263.49s WALL (      27 calls)
     PAW_pot      :     24.24s CPU     24.71s WALL (      27 calls)
     mix_rho      :     31.68s CPU     32.79s WALL (      26 calls)

     Called by c_bands:
     init_us_2    :    153.46s CPU    153.99s WALL (     880 calls)
     cegterg      :  21096.48s CPU  17485.38s WALL (     416 calls)

     Called by sum_band:
     sum_band:bec :      0.65s CPU      0.63s WALL (     416 calls)
     addusdens    :    254.22s CPU    380.22s WALL (      26 calls)

     Called by *egterg:
     h_psi        :  12916.69s CPU  11641.29s WALL (    1806 calls)
     s_psi        :   2406.15s CPU   1279.82s WALL (    1806 calls)
     g_psi        :     38.38s CPU     38.54s WALL (    1374 calls)
     cdiaghg      :    506.89s CPU    459.87s WALL (    1790 calls)
     cegterg:over :   2210.08s CPU   1603.07s WALL (    1374 calls)
     cegterg:upda :   1630.10s CPU    847.75s WALL (    1374 calls)
     cegterg:last :    825.80s CPU    439.93s WALL (     416 calls)

     Called by h_psi:
     h_psi:vloc   :   7762.12s CPU   8315.34s WALL (    1806 calls)
     h_psi:vnl    :   5032.09s CPU   3201.22s WALL (    1806 calls)
     add_vuspsi   :   2440.58s CPU   1294.77s WALL (    1806 calls)

     General routines
     calbec       :   3635.58s CPU   2614.70s WALL (    2302 calls)
     fft          :    103.32s CPU    118.98s WALL (     453 calls)
     ffts         :      3.49s CPU      3.73s WALL (      53 calls)
     fftw         :   6770.37s CPU   7451.31s WALL (  288776 calls)
     interpolate  :     29.01s CPU     29.99s WALL (      53 calls)
     davcio       :      1.20s CPU     66.50s WALL (      16 calls)

     Parallel routines
     fft_scatter  :   1734.31s CPU   2422.17s WALL (  289282 calls)

     PAW routines
     PAW_pot      :     24.24s CPU     24.71s WALL (      27 calls)
     PAW_symme    :      0.07s CPU      0.07s WALL (      53 calls)

     PWSCF        :     7h40m CPU        6h40m WALL


   This run was terminated on:  22:38: 9  25Jun2016            

=------------------------------------------------------------------------------=
   JOB DONE.
=------------------------------------------------------------------------------=
