
     Program PWSCF v.5.3.0 (svn rev. 11974) starts on 25Jun2016 at  8:14:45 

     This program is part of the open-source Quantum ESPRESSO suite
     for quantum simulation of materials; please cite
         "P. Giannozzi et al., J. Phys.:Condens. Matter 21 395502 (2009);
          URL http://www.quantum-espresso.org", 
     in publications or presentations arising from this work. More details at
     http://www.quantum-espresso.org/quote

     Parallel version (MPI), running on     8 processors
     R & G space division:  proc/nbgrp/npool/nimage =       8
     Waiting for input...
     Reading input from standard input
Warning: card    &IONS ignored
Warning: card TRUST_RADIUS_MAX=0.2 ignored
Warning: card / ignored
Warning: card     &CELL ignored
Warning: card CELL_DYNAMICS='BFGS' ignored
Warning: card / ignored

     Current dimensions of program PWSCF are:
     Max number of different atomic species (ntypx) = 10
     Max number of k-points (npk) =  40000
     Max angular momentum in pseudopotentials (lmaxx) =  3
               file N.pbe-n-kjpaw_psl.1.0.0.UPF: wavefunction(s)  2S renormalized
               file C.pbe-n-kjpaw_psl.1.0.0.UPF: wavefunction(s)  2S 2P renormalized
               file H.pbe-kjpaw_psl.1.0.0.UPF: wavefunction(s)  1S renormalized
               file O.pbe-n-kjpaw_psl.1.0.0.UPF: wavefunction(s)  2S 2P renormalized

     Subspace diagonalization in iterative solution of the eigenvalue problem:
     a serial algorithm will be used


     Parallelization info
     --------------------
     sticks:   dense  smooth     PW     G-vecs:    dense   smooth      PW
     Min        2555    1024    272               233062    58956    8071
     Max        2556    1025    273               233064    58991    8073
     Sum       20445    8195   2177              1864503   471741   64575


     Title: 
     HMX-scf--kp-444-ec-100-300K                                                


     bravais-lattice index     =            0
     lattice parameter (alat)  =       1.8897  a.u.
     unit-cell volume          =    3491.9260 (a.u.)^3
     number of atoms/cell      =           56
     number of atomic types    =            4
     number of electrons       =       224.00
     number of Kohn-Sham states=          112
     kinetic-energy cutoff     =     100.0000  Ry
     charge density cutoff     =    1000.0000  Ry
     convergence threshold     =      1.0E-06
     mixing beta               =       0.7000
     number of iterations used =            8  plain     mixing
     Exchange-correlation      =  SLA  PW   PBX  PBC ( 1  4  3  4 0 0)

     celldm(1)=   1.889726  celldm(2)=   0.000000  celldm(3)=   0.000000
     celldm(4)=   0.000000  celldm(5)=   0.000000  celldm(6)=   0.000000

     crystal axes: (cart. coord. in units of alat)
               a(1) = (   6.525500   0.000000   0.000000 )  
               a(2) = (   0.000000  11.036900   0.000000 )  
               a(3) = (  -1.615186   0.000000   7.184683 )  

     reciprocal axes: (cart. coord. in units 2 pi/alat)
               b(1) = (  0.153245 -0.000000  0.034451 )  
               b(2) = (  0.000000  0.090605 -0.000000 )  
               b(3) = (  0.000000  0.000000  0.139185 )  


     PseudoPot. # 1 for  N read from file:
     /users/majewski/.data/PSEUDOPOTENTIALS/N.pbe-n-kjpaw_psl.1.0.0.UPF
     MD5 check sum: c21df8f53e59d08c3548513d559cdda6
     Pseudo is Projector augmented-wave + core cor, Zval =  5.0
     Generated using "atomic" code by A. Dal Corso  v.5.3.0 svn rev. 11974
     Shape of augmentation charge: PSQ
     Using radial grid of 1085 points,  4 beta functions with: 
                l(1) =   0
                l(2) =   0
                l(3) =   1
                l(4) =   1
     Q(r) pseudized with 0 coefficients 


     PseudoPot. # 2 for  C read from file:
     /users/majewski/.data/PSEUDOPOTENTIALS/C.pbe-n-kjpaw_psl.1.0.0.UPF
     MD5 check sum: 2ba8448e293caca687844dde9a1b88a8
     Pseudo is Projector augmented-wave + core cor, Zval =  4.0
     Generated using "atomic" code by A. Dal Corso  v.5.3.0 svn rev. 11974
     Shape of augmentation charge: PSQ
     Using radial grid of 1073 points,  4 beta functions with: 
                l(1) =   0
                l(2) =   0
                l(3) =   1
                l(4) =   1
     Q(r) pseudized with 0 coefficients 


     PseudoPot. # 3 for  H read from file:
     /users/majewski/.data/PSEUDOPOTENTIALS/H.pbe-kjpaw_psl.1.0.0.UPF
     MD5 check sum: bc0feb48a24907a0b97fa6ee2d589a29
     Pseudo is Projector augmented-wave, Zval =  1.0
     Generated using "atomic" code by A. Dal Corso  v.5.3.0 svn rev. 11974
     Shape of augmentation charge: PSQ
     Using radial grid of  929 points,  2 beta functions with: 
                l(1) =   0
                l(2) =   0
     Q(r) pseudized with 0 coefficients 


     PseudoPot. # 4 for  O read from file:
     /users/majewski/.data/PSEUDOPOTENTIALS/O.pbe-n-kjpaw_psl.1.0.0.UPF
     MD5 check sum: 9c0ade6c043cf4a781bde3908a3a8206
     Pseudo is Projector augmented-wave + core cor, Zval =  6.0
     Generated using "atomic" code by A. Dal Corso  v.5.3.0 svn rev. 11974
     Shape of augmentation charge: PSQ
     Using radial grid of 1095 points,  4 beta functions with: 
                l(1) =   0
                l(2) =   0
                l(3) =   1
                l(4) =   1
     Q(r) pseudized with 0 coefficients 


     atomic species   valence    mass     pseudopotential
        N              5.00    14.00670      N( 1.00)
        C              4.00    12.01100      C( 1.00)
        H              1.00     1.00790      H( 1.00)
        O              6.00    15.99940      O( 1.00)

      2 Sym. Ops., with inversion, found
          (note:  2 additional sym.ops. were found but ignored
           their fractional translations are incommensurate with FFT grid)

                                    s                        frac. trans.

      isym =  1     identity                                     

 cryst.   s( 1) = (     1          0          0      )
                  (     0          1          0      )
                  (     0          0          1      )

 cart.    s( 1) = (  1.0000000  0.0000000  0.0000000 )
                  (  0.0000000  1.0000000  0.0000000 )
                  (  0.0000000  0.0000000  1.0000000 )


      isym =  2     inversion                                    

 cryst.   s( 2) = (    -1          0          0      )
                  (     0         -1          0      )
                  (     0          0         -1      )

 cart.    s( 2) = ( -1.0000000  0.0000000 -0.0000000 )
                  (  0.0000000 -1.0000000  0.0000000 )
                  (  0.0000000  0.0000000 -1.0000000 )


   Cartesian axes

     site n.     atom                  positions (alat units)
         1           N   tau(   1) = (  -0.8668413   6.8692562   3.3186051  )
         2           O   tau(   2) = (   1.0599706   7.9401666   3.1425804  )
         3           N   tau(   3) = (   0.0533091   7.7556296   3.8208145  )
         4           N   tau(   4) = (  -2.0680987   5.7890748   5.0659200  )
         5           O   tau(   5) = (  -3.2533088   4.7280976   6.6225535  )
         6           N   tau(   6) = (  -3.2451729   5.5281625   5.7010460  )
         7           O   tau(   7) = (  -0.1871403   8.2413636   4.9136048  )
         8           C   tau(   8) = (  -2.1362925   6.7804091   3.9788775  )
         9           H   tau(   9) = (  -2.8191539   6.5194968   3.3415961  )
        10           H   tau(  10) = (  -2.3765906   7.6474680   4.3424225  )
        11           O   tau(  11) = (  -4.2135894   6.1790085   5.3101993  )
        12           C   tau(  12) = (  -0.5998445   6.2495343   2.0325468  )
        13           H   tau(  13) = (  -1.4176786   5.8230684   1.7315086  )
        14           H   tau(  14) = (  -0.3318567   6.8947514   1.3600605  )
        15           H   tau(  15) = (   2.1233004  -1.3763014   4.9524020  )
        16           H   tau(  16) = (   1.0374785  -0.3046184   5.3238502  )
        17           C   tau(  17) = (   1.8553126  -0.7310843   5.6248884  )
        18           O   tau(  18) = (  -1.7584323  -0.6605585   8.9025408  )
        19           H   tau(  19) = (   0.0785665  -2.1290180   7.9347640  )
        20           H   tau(  20) = (  -0.3639967  -1.0010468   6.9339376  )
        21           C   tau(  21) = (   0.3188646  -1.2619591   7.5712190  )
        22           O   tau(  22) = (   2.2680169  -2.7229136   8.5059463  )
        23           N   tau(  23) = (  -0.7900158  -0.0097125   9.2933876  )
        24           O   tau(  24) = (  -0.7981517   0.7903524  10.2148950  )
        25           N   tau(  25) = (   0.3870584  -0.2706248   8.6582616  )
        26           N   tau(  26) = (   2.5084662  -2.2371796   7.4131560  )
        27           O   tau(  27) = (   3.5151277  -2.4217166   6.7349219  )
        28           N   tau(  28) = (   1.5883158  -1.3508062   6.9109467  )
        29           H   tau(  29) = (  -1.2833291   4.1421486   5.8246226  )
        30           H   tau(  30) = (  -0.1975072   5.2138316   5.4531745  )
        31           C   tau(  31) = (  -1.0153413   4.7873657   5.1521362  )
        32           O   tau(  32) = (   2.5984037   4.8578915   1.8744838  )
        33           H   tau(  33) = (   0.7614048   3.3894320   2.8422606  )
        34           H   tau(  34) = (   1.2039681   4.5174032   3.8430870  )
        35           C   tau(  35) = (   0.5211068   4.2564909   3.2058056  )
        36           O   tau(  36) = (  -1.4280455   2.7955364   2.2710783  )
        37           N   tau(  37) = (   1.6299871   5.5087375   1.4836371  )
        38           O   tau(  38) = (   1.6381231   6.3088024   0.5621296  )
        39           N   tau(  39) = (   0.4529129   5.2478252   2.1187630  )
        40           N   tau(  40) = (  -1.6684949   3.2812704   3.3638686  )
        41           O   tau(  41) = (  -2.6751564   3.0967334   4.0421027  )
        42           N   tau(  42) = (  -0.7483445   4.1676438   3.8660780  )
        43           H   tau(  43) = (   1.1718280   1.3763014   9.4169641  )
        44           H   tau(  44) = (   2.2576499   0.3046184   9.0455160  )
        45           C   tau(  45) = (   1.4398158   0.7310843   8.7444778  )
        46           O   tau(  46) = (   5.0535608   0.6605585   5.4668254  )
        47           H   tau(  47) = (   3.2165619   2.1290180   6.4346022  )
        48           H   tau(  48) = (   3.6591252   1.0010468   7.4354285  )
        49           C   tau(  49) = (   2.9762639   1.2619591   6.7981471  )
        50           O   tau(  50) = (   1.0271116   2.7229136   5.8634199  )
        51           N   tau(  51) = (   4.0851442   0.0097125   5.0759786  )
        52           O   tau(  52) = (   4.0932802  -0.7903524   4.1544711  )
        53           N   tau(  53) = (   2.9080700   0.2706248   5.7111046  )
        54           N   tau(  54) = (   0.7866622   2.2371796   6.9562102  )
        55           O   tau(  55) = (  -0.2199993   2.4217166   7.6344442  )
        56           N   tau(  56) = (   1.7068126   1.3508062   7.4584195  )

   Crystallographic axes

     site n.     atom                  positions (cryst. coord.)
         1           N   tau(   1) = ( -0.0185100  0.6223900  0.4619000  )
         2           O   tau(   2) = (  0.2707000  0.7194200  0.4374000  )
         3           N   tau(   3) = (  0.1398000  0.7027000  0.5318000  )
         4           N   tau(   4) = ( -0.1424000  0.5245200  0.7051000  )
         5           O   tau(   5) = ( -0.2704000  0.4283900  0.9217600  )
         6           N   tau(   6) = ( -0.3009000  0.5008800  0.7935000  )
         7           O   tau(   7) = (  0.1406000  0.7467100  0.6839000  )
         8           C   tau(   8) = ( -0.1903000  0.6143400  0.5538000  )
         9           H   tau(   9) = ( -0.3169000  0.5907000  0.4651000  )
        10           H   tau(  10) = ( -0.2146000  0.6929000  0.6044000  )
        11           O   tau(  11) = ( -0.4627700  0.5598500  0.7391000  )
        12           C   tau(  12) = ( -0.0219000  0.5662400  0.2829000  )
        13           H   tau(  13) = ( -0.1576000  0.5276000  0.2410000  )
        14           H   tau(  14) = ( -0.0040000  0.6247000  0.1893000  )
        15           H   tau(  15) = (  0.4960000 -0.1247000  0.6893000  )
        16           H   tau(  16) = (  0.3424000 -0.0276000  0.7410000  )
        17           C   tau(  17) = (  0.4781000 -0.0662400  0.7829000  )
        18           O   tau(  18) = (  0.0372300 -0.0598500  1.2391000  )
        19           H   tau(  19) = (  0.2854000 -0.1929000  1.1044000  )
        20           H   tau(  20) = (  0.1831000 -0.0907000  0.9651000  )
        21           C   tau(  21) = (  0.3097000 -0.1143400  1.0538000  )
        22           O   tau(  22) = (  0.6406000 -0.2467100  1.1839000  )
        23           N   tau(  23) = (  0.1991000 -0.0008800  1.2935000  )
        24           O   tau(  24) = (  0.2296000  0.0716100  1.4217600  )
        25           N   tau(  25) = (  0.3576000 -0.0245200  1.2051000  )
        26           N   tau(  26) = (  0.6398000 -0.2027000  1.0318000  )
        27           O   tau(  27) = (  0.7707000 -0.2194200  0.9374000  )
        28           N   tau(  28) = (  0.4814900 -0.1223900  0.9619000  )
        29           H   tau(  29) = (  0.0040000  0.3753000  0.8107000  )
        30           H   tau(  30) = (  0.1576000  0.4724000  0.7590000  )
        31           C   tau(  31) = (  0.0219000  0.4337600  0.7171000  )
        32           O   tau(  32) = (  0.4627700  0.4401500  0.2609000  )
        33           H   tau(  33) = (  0.2146000  0.3071000  0.3956000  )
        34           H   tau(  34) = (  0.3169000  0.4093000  0.5349000  )
        35           C   tau(  35) = (  0.1903000  0.3856600  0.4462000  )
        36           O   tau(  36) = ( -0.1406000  0.2532900  0.3161000  )
        37           N   tau(  37) = (  0.3009000  0.4991200  0.2065000  )
        38           O   tau(  38) = (  0.2704000  0.5716100  0.0782400  )
        39           N   tau(  39) = (  0.1424000  0.4754800  0.2949000  )
        40           N   tau(  40) = ( -0.1398000  0.2973000  0.4682000  )
        41           O   tau(  41) = ( -0.2707000  0.2805800  0.5626000  )
        42           N   tau(  42) = (  0.0185100  0.3776100  0.5381000  )
        43           H   tau(  43) = (  0.5040000  0.1247000  1.3107000  )
        44           H   tau(  44) = (  0.6576000  0.0276000  1.2590000  )
        45           C   tau(  45) = (  0.5219000  0.0662400  1.2171000  )
        46           O   tau(  46) = (  0.9627700  0.0598500  0.7609000  )
        47           H   tau(  47) = (  0.7146000  0.1929000  0.8956000  )
        48           H   tau(  48) = (  0.8169000  0.0907000  1.0349000  )
        49           C   tau(  49) = (  0.6903000  0.1143400  0.9462000  )
        50           O   tau(  50) = (  0.3594000  0.2467100  0.8161000  )
        51           N   tau(  51) = (  0.8009000  0.0008800  0.7065000  )
        52           O   tau(  52) = (  0.7704000 -0.0716100  0.5782400  )
        53           N   tau(  53) = (  0.6424000  0.0245200  0.7949000  )
        54           N   tau(  54) = (  0.3602000  0.2027000  0.9682000  )
        55           O   tau(  55) = (  0.2293000  0.2194200  1.0626000  )
        56           N   tau(  56) = (  0.5185100  0.1223900  1.0381000  )

     number of k points=    32
                       cart. coord. in units 2pi/alat
        k(    1) = (   0.0191556   0.0113256   0.0217045), wk =   0.0625000
        k(    2) = (   0.0191556   0.0113256   0.0565007), wk =   0.0625000
        k(    3) = (   0.0191556   0.0113256  -0.0478880), wk =   0.0625000
        k(    4) = (   0.0191556   0.0113256  -0.0130918), wk =   0.0625000
        k(    5) = (   0.0191556   0.0339769   0.0217045), wk =   0.0625000
        k(    6) = (   0.0191556   0.0339769   0.0565007), wk =   0.0625000
        k(    7) = (   0.0191556   0.0339769  -0.0478880), wk =   0.0625000
        k(    8) = (   0.0191556   0.0339769  -0.0130918), wk =   0.0625000
        k(    9) = (   0.0574669   0.0113256   0.0303172), wk =   0.0625000
        k(   10) = (   0.0574669   0.0113256   0.0651135), wk =   0.0625000
        k(   11) = (   0.0574669   0.0113256  -0.0392753), wk =   0.0625000
        k(   12) = (   0.0574669   0.0113256  -0.0044790), wk =   0.0625000
        k(   13) = (   0.0574669   0.0339769   0.0303172), wk =   0.0625000
        k(   14) = (   0.0574669   0.0339769   0.0651135), wk =   0.0625000
        k(   15) = (   0.0574669   0.0339769  -0.0392753), wk =   0.0625000
        k(   16) = (   0.0574669   0.0339769  -0.0044790), wk =   0.0625000
        k(   17) = (  -0.0191556   0.0113256  -0.0217045), wk =   0.0625000
        k(   18) = (  -0.0191556   0.0113256  -0.0565007), wk =   0.0625000
        k(   19) = (  -0.0191556   0.0113256   0.0478880), wk =   0.0625000
        k(   20) = (  -0.0191556   0.0113256   0.0130918), wk =   0.0625000
        k(   21) = (  -0.0191556   0.0339769  -0.0217045), wk =   0.0625000
        k(   22) = (  -0.0191556   0.0339769  -0.0565007), wk =   0.0625000
        k(   23) = (  -0.0191556   0.0339769   0.0478880), wk =   0.0625000
        k(   24) = (  -0.0191556   0.0339769   0.0130918), wk =   0.0625000
        k(   25) = (  -0.0574669   0.0113256  -0.0303172), wk =   0.0625000
        k(   26) = (  -0.0574669   0.0113256  -0.0651135), wk =   0.0625000
        k(   27) = (  -0.0574669   0.0113256   0.0392753), wk =   0.0625000
        k(   28) = (  -0.0574669   0.0113256   0.0044790), wk =   0.0625000
        k(   29) = (  -0.0574669   0.0339769  -0.0303172), wk =   0.0625000
        k(   30) = (  -0.0574669   0.0339769  -0.0651135), wk =   0.0625000
        k(   31) = (  -0.0574669   0.0339769   0.0392753), wk =   0.0625000
        k(   32) = (  -0.0574669   0.0339769   0.0044790), wk =   0.0625000

                       cryst. coord.
        k(    1) = (   0.1250000   0.1250000   0.1250000), wk =   0.0625000
        k(    2) = (   0.1250000   0.1250000   0.3750000), wk =   0.0625000
        k(    3) = (   0.1250000   0.1250000  -0.3750000), wk =   0.0625000
        k(    4) = (   0.1250000   0.1250000  -0.1250000), wk =   0.0625000
        k(    5) = (   0.1250000   0.3750000   0.1250000), wk =   0.0625000
        k(    6) = (   0.1250000   0.3750000   0.3750000), wk =   0.0625000
        k(    7) = (   0.1250000   0.3750000  -0.3750000), wk =   0.0625000
        k(    8) = (   0.1250000   0.3750000  -0.1250000), wk =   0.0625000
        k(    9) = (   0.3750000   0.1250000   0.1250000), wk =   0.0625000
        k(   10) = (   0.3750000   0.1250000   0.3750000), wk =   0.0625000
        k(   11) = (   0.3750000   0.1250000  -0.3750000), wk =   0.0625000
        k(   12) = (   0.3750000   0.1250000  -0.1250000), wk =   0.0625000
        k(   13) = (   0.3750000   0.3750000   0.1250000), wk =   0.0625000
        k(   14) = (   0.3750000   0.3750000   0.3750000), wk =   0.0625000
        k(   15) = (   0.3750000   0.3750000  -0.3750000), wk =   0.0625000
        k(   16) = (   0.3750000   0.3750000  -0.1250000), wk =   0.0625000
        k(   17) = (  -0.1250000   0.1250000  -0.1250000), wk =   0.0625000
        k(   18) = (  -0.1250000   0.1250000  -0.3750000), wk =   0.0625000
        k(   19) = (  -0.1250000   0.1250000   0.3750000), wk =   0.0625000
        k(   20) = (  -0.1250000   0.1250000   0.1250000), wk =   0.0625000
        k(   21) = (  -0.1250000   0.3750000  -0.1250000), wk =   0.0625000
        k(   22) = (  -0.1250000   0.3750000  -0.3750000), wk =   0.0625000
        k(   23) = (  -0.1250000   0.3750000   0.3750000), wk =   0.0625000
        k(   24) = (  -0.1250000   0.3750000   0.1250000), wk =   0.0625000
        k(   25) = (  -0.3750000   0.1250000  -0.1250000), wk =   0.0625000
        k(   26) = (  -0.3750000   0.1250000  -0.3750000), wk =   0.0625000
        k(   27) = (  -0.3750000   0.1250000   0.3750000), wk =   0.0625000
        k(   28) = (  -0.3750000   0.1250000   0.1250000), wk =   0.0625000
        k(   29) = (  -0.3750000   0.3750000  -0.1250000), wk =   0.0625000
        k(   30) = (  -0.3750000   0.3750000  -0.3750000), wk =   0.0625000
        k(   31) = (  -0.3750000   0.3750000   0.3750000), wk =   0.0625000
        k(   32) = (  -0.3750000   0.3750000   0.1250000), wk =   0.0625000

     Dense  grid:  1864503 G-vectors     FFT dimensions: ( 125, 216, 144)

     Smooth grid:   471741 G-vectors     FFT dimensions: (  80, 135,  90)

     Largest allocated arrays     est. size (Mb)     dimensions
        Kohn-Sham Wavefunctions        12.65 Mb     (    7401,  112)
        NL pseudopotentials            39.75 Mb     (    7401,  352)
        Each V/rho on FFT grid          7.42 Mb     (  486000)
        Each G-vector array             1.78 Mb     (  233062)
        G-vector shells                 1.65 Mb     (  216801)
     Largest temporary arrays     est. size (Mb)     dimensions
        Auxiliary wavefunctions        50.59 Mb     (    7401,  448)
        Each subspace H/S matrix        3.06 Mb     (     448,  448)
        Each <psi_i|beta_j> matrix      0.60 Mb     (     352,  112)
        Arrays for rho mixing          59.33 Mb     (  486000,    8)

     Initial potential from superposition of free atoms

     starting charge  223.99937, renormalised to  224.00000
     Starting wfc are  176 randomized atomic wfcs
     Checking if some PAW data can be deallocated... 
       node    0, deallocated PAW data for type:  2
       node    0, deallocated PAW data for type:  3
       node    1, deallocated PAW data for type:  1
       node    2, deallocated PAW data for type:  1
       node    3, deallocated PAW data for type:  2
       node    3, deallocated PAW data for type:  3
       node    4, deallocated PAW data for type:  1
       node    5, deallocated PAW data for type:  2
       node    5, deallocated PAW data for type:  3
       node    6, deallocated PAW data for type:  1
       node    7, deallocated PAW data for type:  2
       node    7, deallocated PAW data for type:  3

     total cpu time spent up to now is      435.6 secs

     per-process dynamical memory:   608.3 Mb

     Self-consistent Calculation

     iteration #  1     ecut=   100.00 Ry     beta=0.70
     Davidson diagonalization with overlap
     ethr =  1.00E-02,  avg # of iterations =  3.0

     total cpu time spent up to now is     1266.2 secs

     total energy              =   -1279.60060919 Ry
     Harris-Foulkes estimate   =   -1283.96753386 Ry
     estimated scf accuracy    <       6.72908358 Ry

     iteration #  2     ecut=   100.00 Ry     beta=0.70
     Davidson diagonalization with overlap
     ethr =  3.00E-03,  avg # of iterations =  4.0

     total cpu time spent up to now is     2234.1 secs

     total energy              =   -1280.28769574 Ry
     Harris-Foulkes estimate   =   -1283.75830195 Ry
     estimated scf accuracy    <       6.97435731 Ry

     iteration #  3     ecut=   100.00 Ry     beta=0.70
     Davidson diagonalization with overlap
     ethr =  3.00E-03,  avg # of iterations =  4.6

     total cpu time spent up to now is     2953.2 secs

     total energy              =   -1281.78784338 Ry
     Harris-Foulkes estimate   =   -1282.01341168 Ry
     estimated scf accuracy    <       0.41744562 Ry

     iteration #  4     ecut=   100.00 Ry     beta=0.70
     Davidson diagonalization with overlap
     ethr =  1.86E-04,  avg # of iterations =  4.9

     total cpu time spent up to now is     3867.7 secs

     total energy              =   -1281.93825774 Ry
     Harris-Foulkes estimate   =   -1282.02274784 Ry
     estimated scf accuracy    <       0.18463738 Ry

     iteration #  5     ecut=   100.00 Ry     beta=0.70
     Davidson diagonalization with overlap
     ethr =  8.24E-05,  avg # of iterations =  4.0

     total cpu time spent up to now is     4595.2 secs

     total energy              =   -1281.97619827 Ry
     Harris-Foulkes estimate   =   -1281.98557649 Ry
     estimated scf accuracy    <       0.02347133 Ry

     iteration #  6     ecut=   100.00 Ry     beta=0.70
     Davidson diagonalization with overlap
     ethr =  1.05E-05,  avg # of iterations =  5.2

     total cpu time spent up to now is     5196.8 secs

     total energy              =   -1281.97786604 Ry
     Harris-Foulkes estimate   =   -1281.97938630 Ry
     estimated scf accuracy    <       0.00418839 Ry

     iteration #  7     ecut=   100.00 Ry     beta=0.70
     Davidson diagonalization with overlap
     ethr =  1.87E-06,  avg # of iterations =  4.9

     total cpu time spent up to now is     6169.0 secs

     total energy              =   -1281.98092841 Ry
     Harris-Foulkes estimate   =   -1281.98208652 Ry
     estimated scf accuracy    <       0.00446627 Ry

     iteration #  8     ecut=   100.00 Ry     beta=0.70
     Davidson diagonalization with overlap
     ethr =  1.87E-06,  avg # of iterations =  1.0

     total cpu time spent up to now is     6672.5 secs

     total energy              =   -1281.97965540 Ry
     Harris-Foulkes estimate   =   -1281.98099624 Ry
     estimated scf accuracy    <       0.00262209 Ry

     iteration #  9     ecut=   100.00 Ry     beta=0.70
     Davidson diagonalization with overlap
     ethr =  1.17E-06,  avg # of iterations =  5.0

     total cpu time spent up to now is     7538.9 secs

     total energy              =   -1281.98118404 Ry
     Harris-Foulkes estimate   =   -1281.98236488 Ry
     estimated scf accuracy    <       0.00596740 Ry

     iteration # 10     ecut=   100.00 Ry     beta=0.70
     Davidson diagonalization with overlap
     ethr =  1.17E-06,  avg # of iterations =  1.0

     total cpu time spent up to now is     8039.7 secs

     total energy              =   -1281.97966557 Ry
     Harris-Foulkes estimate   =   -1281.98122132 Ry
     estimated scf accuracy    <       0.00406744 Ry

     iteration # 11     ecut=   100.00 Ry     beta=0.70
     Davidson diagonalization with overlap
     ethr =  1.17E-06,  avg # of iterations =  5.0

     total cpu time spent up to now is     8822.1 secs

     total energy              =   -1281.98112655 Ry
     Harris-Foulkes estimate   =   -1281.98149268 Ry
     estimated scf accuracy    <       0.00141669 Ry

     iteration # 12     ecut=   100.00 Ry     beta=0.70
     Davidson diagonalization with overlap
     ethr =  6.32E-07,  avg # of iterations =  1.0

     total cpu time spent up to now is     9335.1 secs

     total energy              =   -1281.98081000 Ry
     Harris-Foulkes estimate   =   -1281.98114370 Ry
     estimated scf accuracy    <       0.00083341 Ry

     iteration # 13     ecut=   100.00 Ry     beta=0.70
     Davidson diagonalization with overlap
     ethr =  3.72E-07,  avg # of iterations =  5.0

     total cpu time spent up to now is    10120.5 secs

     total energy              =   -1281.98122666 Ry
     Harris-Foulkes estimate   =   -1281.98133700 Ry
     estimated scf accuracy    <       0.00059465 Ry

     iteration # 14     ecut=   100.00 Ry     beta=0.70
     Davidson diagonalization with overlap
     ethr =  2.65E-07,  avg # of iterations =  1.0

     total cpu time spent up to now is    10624.4 secs

     total energy              =   -1281.98106587 Ry
     Harris-Foulkes estimate   =   -1281.98123013 Ry
     estimated scf accuracy    <       0.00041810 Ry

     iteration # 15     ecut=   100.00 Ry     beta=0.70
     Davidson diagonalization with overlap
     ethr =  1.87E-07,  avg # of iterations =  5.0

     total cpu time spent up to now is    11358.7 secs

     total energy              =   -1281.98125879 Ry
     Harris-Foulkes estimate   =   -1281.98124849 Ry
     estimated scf accuracy    <       0.00013740 Ry

     iteration # 16     ecut=   100.00 Ry     beta=0.70
     Davidson diagonalization with overlap
     ethr =  6.13E-08,  avg # of iterations =  1.0

     total cpu time spent up to now is    11861.2 secs

     total energy              =   -1281.98122621 Ry
     Harris-Foulkes estimate   =   -1281.98125988 Ry
     estimated scf accuracy    <       0.00015770 Ry

     iteration # 17     ecut=   100.00 Ry     beta=0.70
     Davidson diagonalization with overlap
     ethr =  6.13E-08,  avg # of iterations =  1.0

     total cpu time spent up to now is    12363.1 secs

     total energy              =   -1281.98120637 Ry
     Harris-Foulkes estimate   =   -1281.98122742 Ry
     estimated scf accuracy    <       0.00010505 Ry

     iteration # 18     ecut=   100.00 Ry     beta=0.70
     Davidson diagonalization with overlap
     ethr =  4.69E-08,  avg # of iterations =  5.7

     total cpu time spent up to now is    13000.9 secs

     total energy              =   -1281.98122090 Ry
     Harris-Foulkes estimate   =   -1281.98122127 Ry
     estimated scf accuracy    <       0.00000412 Ry

     iteration # 19     ecut=   100.00 Ry     beta=0.70
     Davidson diagonalization with overlap
     ethr =  1.84E-09,  avg # of iterations =  4.8

     total cpu time spent up to now is    13785.9 secs

     End of self-consistent calculation

          k = 0.0192 0.0113 0.0217 ( 58957 PWs)   bands (ev):

   -24.0427 -24.0207 -24.0087 -23.9993 -23.7607 -23.7524 -23.7515 -23.7479
   -19.2681 -19.2626 -19.2563 -19.2442 -18.9532 -18.9528 -18.9495 -18.9482
   -18.3365 -18.3120 -17.3125 -17.2645 -17.1479 -17.1465 -16.1270 -16.1135
   -12.2003 -12.1978 -12.1563 -12.0422 -11.9895 -11.9192 -11.8741 -11.8548
    -8.9538  -8.9154  -8.3719  -8.3372  -7.6459  -7.6095  -7.5345  -7.5324
    -6.9362  -6.8349  -6.6779  -6.6135  -6.5977  -6.4848  -6.4218  -6.3465
    -6.2127  -6.1863  -6.1556  -6.0390  -5.9777  -5.9000  -5.8433  -5.8026
    -5.7460  -5.7248  -5.6282  -5.5931  -5.2037  -5.0929  -5.0164  -4.9993
    -4.5527  -4.5343  -4.5032  -4.4561  -4.3246  -4.2361  -3.9381  -3.9319
    -3.7833  -3.6842  -3.6397  -3.6046  -3.2485  -3.2058  -3.1472  -3.1256
    -0.8630  -0.8598  -0.3826  -0.3813  -0.2827  -0.2302  -0.1683  -0.1486
    -0.0953  -0.0735   0.1031   0.1344   0.1454   0.1741   0.3014   0.3222
     0.3748   0.3937   0.5633   0.6156   0.6997   0.7465   0.7917   0.8218
     0.8413   0.9550   0.9886   1.0524   1.1445   1.2720   1.2995   1.3228

     occupation numbers 
     1.0000   1.0000   1.0000   1.0000   1.0000   1.0000   1.0000   1.0000
     1.0000   1.0000   1.0000   1.0000   1.0000   1.0000   1.0000   1.0000
     1.0000   1.0000   1.0000   1.0000   1.0000   1.0000   1.0000   1.0000
     1.0000   1.0000   1.0000   1.0000   1.0000   1.0000   1.0000   1.0000
     1.0000   1.0000   1.0000   1.0000   1.0000   1.0000   1.0000   1.0000
     1.0000   1.0000   1.0000   1.0000   1.0000   1.0000   1.0000   1.0000
     1.0000   1.0000   1.0000   1.0000   1.0000   1.0000   1.0000   1.0000
     1.0000   1.0000   1.0000   1.0000   1.0000   1.0000   1.0000   1.0000
     1.0000   1.0000   1.0000   1.0000   1.0000   1.0000   1.0000   1.0000
     1.0000   1.0000   1.0000   1.0000   1.0000   1.0000   1.0000   1.0000
     1.0000   1.0000   1.0000   1.0000   1.0000   1.0000   1.0000   1.0000
     1.0000   1.0000   1.0000   1.0000   1.0000   1.0000   1.0000   1.0000
     1.0000   1.0000   1.0000   1.0000   1.0000   1.0000   1.0000   1.0000
     1.0000   1.0000   1.0000   1.0000   1.0000   1.0000   1.0000   1.0000

          k = 0.0192 0.0113 0.0565 ( 58999 PWs)   bands (ev):

   -24.0349 -24.0261 -24.0050 -24.0039 -23.7625 -23.7596 -23.7482 -23.7438
   -19.2664 -19.2617 -19.2569 -19.2475 -18.9586 -18.9579 -18.9450 -18.9431
   -18.3253 -18.3253 -17.2896 -17.2873 -17.1436 -17.1413 -16.1223 -16.1211
   -12.2093 -12.2084 -12.1025 -12.0838 -11.9482 -11.9410 -11.8817 -11.8746
    -8.9344  -8.9002  -8.3541  -8.3308  -7.6591  -7.6135  -7.5165  -7.4454
    -6.9818  -6.8606  -6.6686  -6.6422  -6.6254  -6.5058  -6.4447  -6.4186
    -6.2731  -6.2448  -6.0442  -5.9980  -5.9762  -5.9047  -5.8795  -5.8429
    -5.8050  -5.7502  -5.5521  -5.5117  -5.2074  -5.1298  -5.0111  -4.9750
    -4.5046  -4.4966  -4.4633  -4.3743  -4.2505  -4.2296  -4.0495  -4.0428
    -3.7717  -3.7284  -3.5787  -3.5692  -3.2684  -3.2622  -3.1306  -3.1061
    -0.8300  -0.7986  -0.3955  -0.3869  -0.2895  -0.2514  -0.2045  -0.1778
    -0.1463  -0.1103   0.0029   0.0604   0.1690   0.2148   0.2704   0.2828
     0.4836   0.5392   0.5848   0.6239   0.7044   0.7246   0.7532   0.8035
     0.9142   0.9530   1.0219   1.0462   1.1566   1.2232   1.3045   1.3268

     occupation numbers 
     1.0000   1.0000   1.0000   1.0000   1.0000   1.0000   1.0000   1.0000
     1.0000   1.0000   1.0000   1.0000   1.0000   1.0000   1.0000   1.0000
     1.0000   1.0000   1.0000   1.0000   1.0000   1.0000   1.0000   1.0000
     1.0000   1.0000   1.0000   1.0000   1.0000   1.0000   1.0000   1.0000
     1.0000   1.0000   1.0000   1.0000   1.0000   1.0000   1.0000   1.0000
     1.0000   1.0000   1.0000   1.0000   1.0000   1.0000   1.0000   1.0000
     1.0000   1.0000   1.0000   1.0000   1.0000   1.0000   1.0000   1.0000
     1.0000   1.0000   1.0000   1.0000   1.0000   1.0000   1.0000   1.0000
     1.0000   1.0000   1.0000   1.0000   1.0000   1.0000   1.0000   1.0000
     1.0000   1.0000   1.0000   1.0000   1.0000   1.0000   1.0000   1.0000
     1.0000   1.0000   1.0000   1.0000   1.0000   1.0000   1.0000   1.0000
     1.0000   1.0000   1.0000   1.0000   1.0000   1.0000   1.0000   1.0000
     1.0000   1.0000   1.0000   1.0000   1.0000   1.0000   1.0000   1.0000
     1.0000   1.0000   1.0000   1.0000   1.0000   1.0000   1.0000   1.0000

          k = 0.0192 0.0113-0.0479 ( 58971 PWs)   bands (ev):

   -24.0358 -24.0255 -24.0086 -24.0000 -23.7640 -23.7611 -23.7451 -23.7438
   -19.2641 -19.2626 -19.2535 -19.2526 -18.9601 -18.9597 -18.9432 -18.9416
   -18.3368 -18.3125 -17.3106 -17.2661 -17.1462 -17.1440 -16.1263 -16.1110
   -12.2151 -12.2082 -12.1381 -12.0505 -11.9806 -11.9049 -11.8870 -11.8715
    -8.9439  -8.8629  -8.3422  -8.3395  -7.6547  -7.6398  -7.5296  -7.4193
    -6.9906  -6.8858  -6.6689  -6.6404  -6.5804  -6.5582  -6.4610  -6.4268
    -6.2923  -6.2652  -6.0508  -6.0225  -5.9015  -5.8720  -5.8672  -5.8575
    -5.8065  -5.7397  -5.5538  -5.5064  -5.2008  -5.1294  -4.9979  -4.9706
    -4.5375  -4.4710  -4.4363  -4.3764  -4.2924  -4.2314  -4.0516  -4.0085
    -3.7809  -3.7272  -3.6309  -3.5537  -3.2732  -3.2526  -3.1215  -3.1158
    -0.7679  -0.7099  -0.3860  -0.3781  -0.3358  -0.3084  -0.2401  -0.2168
    -0.1609  -0.1550  -0.0372   0.0450   0.1836   0.2182   0.2300   0.2776
     0.5186   0.6064   0.6248   0.6379   0.6703   0.7633   0.7734   0.7874
     0.9068   0.9603   1.0360   1.0866   1.1635   1.1897   1.2919   1.3108

     occupation numbers 
     1.0000   1.0000   1.0000   1.0000   1.0000   1.0000   1.0000   1.0000
     1.0000   1.0000   1.0000   1.0000   1.0000   1.0000   1.0000   1.0000
     1.0000   1.0000   1.0000   1.0000   1.0000   1.0000   1.0000   1.0000
     1.0000   1.0000   1.0000   1.0000   1.0000   1.0000   1.0000   1.0000
     1.0000   1.0000   1.0000   1.0000   1.0000   1.0000   1.0000   1.0000
     1.0000   1.0000   1.0000   1.0000   1.0000   1.0000   1.0000   1.0000
     1.0000   1.0000   1.0000   1.0000   1.0000   1.0000   1.0000   1.0000
     1.0000   1.0000   1.0000   1.0000   1.0000   1.0000   1.0000   1.0000
     1.0000   1.0000   1.0000   1.0000   1.0000   1.0000   1.0000   1.0000
     1.0000   1.0000   1.0000   1.0000   1.0000   1.0000   1.0000   1.0000
     1.0000   1.0000   1.0000   1.0000   1.0000   1.0000   1.0000   1.0000
     1.0000   1.0000   1.0000   1.0000   1.0000   1.0000   1.0000   1.0000
     1.0000   1.0000   1.0000   1.0000   1.0000   1.0000   1.0000   1.0000
     1.0000   1.0000   1.0000   1.0000   1.0000   1.0000   1.0000   1.0000

          k = 0.0192 0.0113-0.0131 ( 58980 PWs)   bands (ev):

   -24.0431 -24.0208 -24.0098 -23.9976 -23.7631 -23.7553 -23.7479 -23.7462
   -19.2670 -19.2614 -19.2565 -19.2465 -18.9566 -18.9565 -18.9453 -18.9452
   -18.3410 -18.3063 -17.3211 -17.2557 -17.1501 -17.1498 -16.1274 -16.1071
   -12.2072 -12.1988 -12.1671 -12.0430 -11.9887 -11.9106 -11.8706 -11.8547
    -8.9648  -8.8768  -8.3659  -8.3401  -7.6504  -7.6318  -7.5673  -7.4837
    -6.9053  -6.8926  -6.6792  -6.5995  -6.5877  -6.5307  -6.4311  -6.3620
    -6.2583  -6.2203  -6.0909  -6.0446  -5.9405  -5.8925  -5.8254  -5.8003
    -5.7583  -5.7159  -5.6064  -5.5963  -5.1706  -5.1276  -5.0155  -4.9695
    -4.5516  -4.5263  -4.4973  -4.4780  -4.3283  -4.2467  -3.9419  -3.8853
    -3.8227  -3.6910  -3.6535  -3.6052  -3.2527  -3.2035  -3.1409  -3.1300
    -0.8180  -0.7943  -0.3744  -0.3689  -0.2826  -0.2488  -0.1745  -0.1626
    -0.1500  -0.1141  -0.0088   0.0534   0.1189   0.1911   0.2484   0.3133
     0.4943   0.5339   0.5548   0.6419   0.6883   0.7517   0.8047   0.8189
     0.8512   0.9348   1.0150   1.0806   1.1438   1.2556   1.2863   1.3068

     occupation numbers 
     1.0000   1.0000   1.0000   1.0000   1.0000   1.0000   1.0000   1.0000
     1.0000   1.0000   1.0000   1.0000   1.0000   1.0000   1.0000   1.0000
     1.0000   1.0000   1.0000   1.0000   1.0000   1.0000   1.0000   1.0000
     1.0000   1.0000   1.0000   1.0000   1.0000   1.0000   1.0000   1.0000
     1.0000   1.0000   1.0000   1.0000   1.0000   1.0000   1.0000   1.0000
     1.0000   1.0000   1.0000   1.0000   1.0000   1.0000   1.0000   1.0000
     1.0000   1.0000   1.0000   1.0000   1.0000   1.0000   1.0000   1.0000
     1.0000   1.0000   1.0000   1.0000   1.0000   1.0000   1.0000   1.0000
     1.0000   1.0000   1.0000   1.0000   1.0000   1.0000   1.0000   1.0000
     1.0000   1.0000   1.0000   1.0000   1.0000   1.0000   1.0000   1.0000
     1.0000   1.0000   1.0000   1.0000   1.0000   1.0000   1.0000   1.0000
     1.0000   1.0000   1.0000   1.0000   1.0000   1.0000   1.0000   1.0000
     1.0000   1.0000   1.0000   1.0000   1.0000   1.0000   1.0000   1.0000
     1.0000   1.0000   1.0000   1.0000   1.0000   1.0000   1.0000   1.0000

          k = 0.0192 0.0340 0.0217 ( 58956 PWs)   bands (ev):

   -24.0375 -24.0290 -24.0042 -24.0009 -23.7572 -23.7534 -23.7514 -23.7503
   -19.2677 -19.2661 -19.2509 -19.2465 -18.9531 -18.9529 -18.9491 -18.9485
   -18.3296 -18.3194 -17.2984 -17.2785 -17.1475 -17.1468 -16.1230 -16.1174
   -12.1999 -12.1989 -12.1328 -12.0914 -11.9524 -11.9288 -11.8690 -11.8608
    -8.9434  -8.9275  -8.3624  -8.3480  -7.6385  -7.6229  -7.5276  -7.5266
    -6.9130  -6.8679  -6.6325  -6.6082  -6.6009  -6.5355  -6.3998  -6.3753
    -6.2224  -6.2057  -6.0867  -6.0487  -5.9800  -5.9445  -5.8438  -5.8301
    -5.7134  -5.7015  -5.6101  -5.5928  -5.1624  -5.0997  -5.0518  -5.0306
    -4.5572  -4.5490  -4.4644  -4.4440  -4.3139  -4.2689  -3.9314  -3.9266
    -3.7584  -3.7137  -3.6302  -3.6119  -3.2398  -3.2231  -3.1366  -3.1288
    -0.8591  -0.8573  -0.3748  -0.3693  -0.2934  -0.2588  -0.1896  -0.1827
    -0.0642  -0.0569   0.1259   0.1361   0.1656   0.1724   0.3245   0.3291
     0.3526   0.3708   0.5779   0.6040   0.6856   0.7025   0.8088   0.8286
     0.8809   0.9270   1.0156   1.0403   1.1784   1.2298   1.3102   1.3179

     occupation numbers 
     1.0000   1.0000   1.0000   1.0000   1.0000   1.0000   1.0000   1.0000
     1.0000   1.0000   1.0000   1.0000   1.0000   1.0000   1.0000   1.0000
     1.0000   1.0000   1.0000   1.0000   1.0000   1.0000   1.0000   1.0000
     1.0000   1.0000   1.0000   1.0000   1.0000   1.0000   1.0000   1.0000
     1.0000   1.0000   1.0000   1.0000   1.0000   1.0000   1.0000   1.0000
     1.0000   1.0000   1.0000   1.0000   1.0000   1.0000   1.0000   1.0000
     1.0000   1.0000   1.0000   1.0000   1.0000   1.0000   1.0000   1.0000
     1.0000   1.0000   1.0000   1.0000   1.0000   1.0000   1.0000   1.0000
     1.0000   1.0000   1.0000   1.0000   1.0000   1.0000   1.0000   1.0000
     1.0000   1.0000   1.0000   1.0000   1.0000   1.0000   1.0000   1.0000
     1.0000   1.0000   1.0000   1.0000   1.0000   1.0000   1.0000   1.0000
     1.0000   1.0000   1.0000   1.0000   1.0000   1.0000   1.0000   1.0000
     1.0000   1.0000   1.0000   1.0000   1.0000   1.0000   1.0000   1.0000
     1.0000   1.0000   1.0000   1.0000   1.0000   1.0000   1.0000   1.0000

          k = 0.0192 0.0340 0.0565 ( 58996 PWs)   bands (ev):

   -24.0320 -24.0283 -24.0051 -24.0046 -23.7610 -23.7599 -23.7474 -23.7455
   -19.2662 -19.2648 -19.2524 -19.2491 -18.9584 -18.9581 -18.9445 -18.9437
   -18.3253 -18.3253 -17.2892 -17.2882 -17.1426 -17.1417 -16.1220 -16.1215
   -12.2087 -12.2082 -12.0995 -12.0917 -11.9421 -11.9383 -11.8821 -11.8789
    -8.9246  -8.9104  -8.3478  -8.3380  -7.6443  -7.6257  -7.4957  -7.4670
    -6.9618  -6.9167  -6.6591  -6.6504  -6.5701  -6.5212  -6.4572  -6.4387
    -6.2291  -6.2033  -6.0678  -6.0247  -5.9522  -5.9206  -5.8792  -5.8631
    -5.7898  -5.7574  -5.5558  -5.5369  -5.1468  -5.0956  -5.0573  -5.0224
    -4.4851  -4.4713  -4.4461  -4.4046  -4.2537  -4.2433  -4.0461  -4.0436
    -3.7532  -3.7341  -3.5795  -3.5742  -3.2630  -3.2593  -3.1294  -3.1180
    -0.8199  -0.8070  -0.3889  -0.3815  -0.2988  -0.2712  -0.2146  -0.1979
    -0.1221  -0.1062   0.0477   0.0674   0.1725   0.1946   0.2640   0.2753
     0.4986   0.5237   0.5952   0.6138   0.7114   0.7222   0.7580   0.7892
     0.9190   0.9389   1.0331   1.0428   1.1785   1.2056   1.3103   1.3195

     occupation numbers 
     1.0000   1.0000   1.0000   1.0000   1.0000   1.0000   1.0000   1.0000
     1.0000   1.0000   1.0000   1.0000   1.0000   1.0000   1.0000   1.0000
     1.0000   1.0000   1.0000   1.0000   1.0000   1.0000   1.0000   1.0000
     1.0000   1.0000   1.0000   1.0000   1.0000   1.0000   1.0000   1.0000
     1.0000   1.0000   1.0000   1.0000   1.0000   1.0000   1.0000   1.0000
     1.0000   1.0000   1.0000   1.0000   1.0000   1.0000   1.0000   1.0000
     1.0000   1.0000   1.0000   1.0000   1.0000   1.0000   1.0000   1.0000
     1.0000   1.0000   1.0000   1.0000   1.0000   1.0000   1.0000   1.0000
     1.0000   1.0000   1.0000   1.0000   1.0000   1.0000   1.0000   1.0000
     1.0000   1.0000   1.0000   1.0000   1.0000   1.0000   1.0000   1.0000
     1.0000   1.0000   1.0000   1.0000   1.0000   1.0000   1.0000   1.0000
     1.0000   1.0000   1.0000   1.0000   1.0000   1.0000   1.0000   1.0000
     1.0000   1.0000   1.0000   1.0000   1.0000   1.0000   1.0000   1.0000
     1.0000   1.0000   1.0000   1.0000   1.0000   1.0000   1.0000   1.0000

          k = 0.0192 0.0340-0.0479 ( 58998 PWs)   bands (ev):

   -24.0329 -24.0287 -24.0060 -24.0025 -23.7627 -23.7615 -23.7451 -23.7445
   -19.2645 -19.2640 -19.2523 -19.2519 -18.9600 -18.9598 -18.9427 -18.9420
   -18.3299 -18.3198 -17.2975 -17.2791 -17.1455 -17.1446 -16.1217 -16.1154
   -12.2131 -12.2101 -12.1204 -12.0878 -11.9470 -11.9195 -11.8821 -11.8756
    -8.9211  -8.8876  -8.3426  -8.3412  -7.6471  -7.6419  -7.5000  -7.4534
    -6.9589  -6.9150  -6.6714  -6.6494  -6.5692  -6.5578  -6.4879  -6.4680
    -6.2100  -6.1953  -6.0839  -6.0600  -5.8979  -5.8865  -5.8713  -5.8529
    -5.7900  -5.7580  -5.5458  -5.5209  -5.1770  -5.1268  -5.0206  -4.9877
    -4.5241  -4.4962  -4.3989  -4.3757  -4.2830  -4.2565  -4.0387  -4.0207
    -3.7581  -3.7353  -3.6098  -3.5775  -3.2629  -3.2527  -3.1270  -3.1254
    -0.7517  -0.7280  -0.3854  -0.3814  -0.3086  -0.2926  -0.2645  -0.2399
    -0.1747  -0.1658   0.0137   0.0451   0.1843   0.2000   0.2419   0.2668
     0.5446   0.5792   0.6417   0.6549   0.6705   0.7164   0.7815   0.7878
     0.9217   0.9396   1.0586   1.0776   1.1692   1.1806   1.2972   1.3053

     occupation numbers 
     1.0000   1.0000   1.0000   1.0000   1.0000   1.0000   1.0000   1.0000
     1.0000   1.0000   1.0000   1.0000   1.0000   1.0000   1.0000   1.0000
     1.0000   1.0000   1.0000   1.0000   1.0000   1.0000   1.0000   1.0000
     1.0000   1.0000   1.0000   1.0000   1.0000   1.0000   1.0000   1.0000
     1.0000   1.0000   1.0000   1.0000   1.0000   1.0000   1.0000   1.0000
     1.0000   1.0000   1.0000   1.0000   1.0000   1.0000   1.0000   1.0000
     1.0000   1.0000   1.0000   1.0000   1.0000   1.0000   1.0000   1.0000
     1.0000   1.0000   1.0000   1.0000   1.0000   1.0000   1.0000   1.0000
     1.0000   1.0000   1.0000   1.0000   1.0000   1.0000   1.0000   1.0000
     1.0000   1.0000   1.0000   1.0000   1.0000   1.0000   1.0000   1.0000
     1.0000   1.0000   1.0000   1.0000   1.0000   1.0000   1.0000   1.0000
     1.0000   1.0000   1.0000   1.0000   1.0000   1.0000   1.0000   1.0000
     1.0000   1.0000   1.0000   1.0000   1.0000   1.0000   1.0000   1.0000
     1.0000   1.0000   1.0000   1.0000   1.0000   1.0000   1.0000   1.0000

          k = 0.0192 0.0340-0.0131 ( 58977 PWs)   bands (ev):

   -24.0380 -24.0296 -24.0041 -23.9998 -23.7603 -23.7569 -23.7478 -23.7472
   -19.2667 -19.2650 -19.2516 -19.2481 -18.9566 -18.9565 -18.9452 -18.9452
   -18.3312 -18.3169 -17.3016 -17.2744 -17.1502 -17.1501 -16.1212 -16.1128
   -12.2049 -12.2018 -12.1416 -12.0969 -11.9478 -11.9218 -11.8662 -11.8594
    -8.9406  -8.9042  -8.3598  -8.3492  -7.6457  -7.6370  -7.5395  -7.5061
    -6.8826  -6.8696  -6.6664  -6.6239  -6.5917  -6.5602  -6.4473  -6.4162
    -6.2017  -6.1832  -6.0970  -6.0686  -5.9376  -5.9136  -5.8270  -5.8222
    -5.7169  -5.7041  -5.5968  -5.5888  -5.1691  -5.1422  -5.0158  -4.9918
    -4.5620  -4.5539  -4.4652  -4.4451  -4.3217  -4.2785  -3.9234  -3.9002
    -3.7760  -3.7200  -3.6424  -3.6211  -3.2423  -3.2226  -3.1350  -3.1310
    -0.8081  -0.7982  -0.3662  -0.3606  -0.2932  -0.2604  -0.1912  -0.1822
    -0.1466  -0.1261   0.0234   0.0523   0.1395   0.1724   0.2815   0.3095
     0.5044   0.5272   0.5715   0.6226   0.6705   0.7045   0.8209   0.8229
     0.8866   0.9181   1.0440   1.0704   1.1683   1.2151   1.2959   1.3022

     occupation numbers 
     1.0000   1.0000   1.0000   1.0000   1.0000   1.0000   1.0000   1.0000
     1.0000   1.0000   1.0000   1.0000   1.0000   1.0000   1.0000   1.0000
     1.0000   1.0000   1.0000   1.0000   1.0000   1.0000   1.0000   1.0000
     1.0000   1.0000   1.0000   1.0000   1.0000   1.0000   1.0000   1.0000
     1.0000   1.0000   1.0000   1.0000   1.0000   1.0000   1.0000   1.0000
     1.0000   1.0000   1.0000   1.0000   1.0000   1.0000   1.0000   1.0000
     1.0000   1.0000   1.0000   1.0000   1.0000   1.0000   1.0000   1.0000
     1.0000   1.0000   1.0000   1.0000   1.0000   1.0000   1.0000   1.0000
     1.0000   1.0000   1.0000   1.0000   1.0000   1.0000   1.0000   1.0000
     1.0000   1.0000   1.0000   1.0000   1.0000   1.0000   1.0000   1.0000
     1.0000   1.0000   1.0000   1.0000   1.0000   1.0000   1.0000   1.0000
     1.0000   1.0000   1.0000   1.0000   1.0000   1.0000   1.0000   1.0000
     1.0000   1.0000   1.0000   1.0000   1.0000   1.0000   1.0000   1.0000
     1.0000   1.0000   1.0000   1.0000   1.0000   1.0000   1.0000   1.0000

          k = 0.0575 0.0113 0.0303 ( 58940 PWs)   bands (ev):

   -24.0323 -24.0230 -24.0057 -24.0051 -23.7593 -23.7568 -23.7527 -23.7479
   -19.2662 -19.2620 -19.2577 -19.2483 -18.9560 -18.9550 -18.9475 -18.9459
   -18.3312 -18.3311 -17.2868 -17.2847 -17.1490 -17.1472 -16.1227 -16.1212
   -12.1985 -12.1973 -12.0768 -12.0575 -11.9213 -11.9110 -11.8799 -11.8680
    -8.9531  -8.9213  -8.3716  -8.3503  -7.6396  -7.6195  -7.5965  -7.5461
    -7.0560  -6.9840  -6.7379  -6.6177  -6.5612  -6.5212  -6.3408  -6.3044
    -6.2796  -6.2318  -6.1029  -6.0348  -5.9744  -5.9243  -5.8502  -5.8304
    -5.7398  -5.6931  -5.6261  -5.6132  -5.2228  -5.1150  -4.9992  -4.9898
    -4.5321  -4.5128  -4.4659  -4.4085  -4.1478  -4.0954  -3.8905  -3.8726
    -3.8223  -3.7425  -3.6854  -3.6784  -3.2428  -3.2348  -3.1476  -3.1190
    -0.8209  -0.8083  -0.3642  -0.3624  -0.2724  -0.2544  -0.1901  -0.1618
    -0.1373  -0.1080   0.0430   0.0574   0.1391   0.1524   0.2781   0.3021
     0.5134   0.5197   0.5824   0.6346   0.7139   0.7219   0.7899   0.8063
     0.8619   0.9117   0.9423   0.9878   1.2184   1.2461   1.2875   1.3232

     occupation numbers 
     1.0000   1.0000   1.0000   1.0000   1.0000   1.0000   1.0000   1.0000
     1.0000   1.0000   1.0000   1.0000   1.0000   1.0000   1.0000   1.0000
     1.0000   1.0000   1.0000   1.0000   1.0000   1.0000   1.0000   1.0000
     1.0000   1.0000   1.0000   1.0000   1.0000   1.0000   1.0000   1.0000
     1.0000   1.0000   1.0000   1.0000   1.0000   1.0000   1.0000   1.0000
     1.0000   1.0000   1.0000   1.0000   1.0000   1.0000   1.0000   1.0000
     1.0000   1.0000   1.0000   1.0000   1.0000   1.0000   1.0000   1.0000
     1.0000   1.0000   1.0000   1.0000   1.0000   1.0000   1.0000   1.0000
     1.0000   1.0000   1.0000   1.0000   1.0000   1.0000   1.0000   1.0000
     1.0000   1.0000   1.0000   1.0000   1.0000   1.0000   1.0000   1.0000
     1.0000   1.0000   1.0000   1.0000   1.0000   1.0000   1.0000   1.0000
     1.0000   1.0000   1.0000   1.0000   1.0000   1.0000   1.0000   1.0000
     1.0000   1.0000   1.0000   1.0000   1.0000   1.0000   1.0000   1.0000
     1.0000   1.0000   1.0000   1.0000   1.0000   1.0000   1.0000   1.0000

          k = 0.0575 0.0113 0.0651 ( 59011 PWs)   bands (ev):

   -24.0283 -24.0257 -24.0094 -24.0015 -23.7589 -23.7586 -23.7547 -23.7456
   -19.2667 -19.2634 -19.2581 -19.2472 -18.9654 -18.9635 -18.9404 -18.9367
   -18.3458 -18.3215 -17.3062 -17.2639 -17.1395 -17.1358 -16.1378 -16.1203
   -12.2089 -12.2070 -12.1048 -12.0287 -11.9272 -11.8859 -11.8784 -11.8723
    -8.9957  -8.8776  -8.3666  -8.3321  -7.6465  -7.6225  -7.5597  -7.4373
    -7.1530  -6.9335  -6.7445  -6.5883  -6.5781  -6.5075  -6.4829  -6.3929
    -6.3339  -6.2566  -6.0675  -6.0437  -5.9967  -5.9503  -5.8815  -5.8288
    -5.7202  -5.6633  -5.5804  -5.5138  -5.2324  -5.0737  -5.0606  -5.0054
    -4.4822  -4.4673  -4.4117  -4.3621  -4.1054  -4.0571  -3.9883  -3.9472
    -3.8538  -3.7700  -3.6979  -3.6125  -3.2790  -3.2571  -3.1416  -3.0887
    -0.8940  -0.8540  -0.3703  -0.3395  -0.2765  -0.2454  -0.1864  -0.1478
    -0.1025  -0.0676   0.1076   0.1396   0.1575   0.1793   0.2459   0.3362
     0.4291   0.4519   0.4918   0.6063   0.7023   0.7321   0.7722   0.8023
     0.8973   0.9386   0.9530   0.9806   1.2328   1.2676   1.2900   1.3321

     occupation numbers 
     1.0000   1.0000   1.0000   1.0000   1.0000   1.0000   1.0000   1.0000
     1.0000   1.0000   1.0000   1.0000   1.0000   1.0000   1.0000   1.0000
     1.0000   1.0000   1.0000   1.0000   1.0000   1.0000   1.0000   1.0000
     1.0000   1.0000   1.0000   1.0000   1.0000   1.0000   1.0000   1.0000
     1.0000   1.0000   1.0000   1.0000   1.0000   1.0000   1.0000   1.0000
     1.0000   1.0000   1.0000   1.0000   1.0000   1.0000   1.0000   1.0000
     1.0000   1.0000   1.0000   1.0000   1.0000   1.0000   1.0000   1.0000
     1.0000   1.0000   1.0000   1.0000   1.0000   1.0000   1.0000   1.0000
     1.0000   1.0000   1.0000   1.0000   1.0000   1.0000   1.0000   1.0000
     1.0000   1.0000   1.0000   1.0000   1.0000   1.0000   1.0000   1.0000
     1.0000   1.0000   1.0000   1.0000   1.0000   1.0000   1.0000   1.0000
     1.0000   1.0000   1.0000   1.0000   1.0000   1.0000   1.0000   1.0000
     1.0000   1.0000   1.0000   1.0000   1.0000   1.0000   1.0000   1.0000
     1.0000   1.0000   1.0000   1.0000   1.0000   1.0000   1.0000   1.0000

          k = 0.0575 0.0113-0.0393 ( 58923 PWs)   bands (ev):

   -24.0301 -24.0245 -24.0109 -23.9994 -23.7619 -23.7608 -23.7507 -23.7445
   -19.2649 -19.2626 -19.2583 -19.2498 -18.9663 -18.9645 -18.9393 -18.9357
   -18.3502 -18.3159 -17.3158 -17.2539 -17.1422 -17.1388 -16.1376 -16.1143
   -12.2106 -12.2088 -12.1289 -12.0084 -11.9427 -11.8878 -11.8805 -11.8521
    -8.9913  -8.8543  -8.3610  -8.3337  -7.6422  -7.6311  -7.5797  -7.4248
    -7.1698  -6.9367  -6.7309  -6.6045  -6.5766  -6.5505  -6.4759  -6.4149
    -6.3396  -6.2719  -6.0559  -5.9968  -5.9764  -5.9538  -5.8829  -5.8441
    -5.6962  -5.6600  -5.5874  -5.5118  -5.2226  -5.0962  -5.0347  -4.9941
    -4.4870  -4.4466  -4.4057  -4.3826  -4.1207  -4.0862  -3.9410  -3.9357
    -3.8028  -3.7940  -3.7611  -3.6217  -3.2835  -3.2522  -3.1365  -3.0942
    -0.8527  -0.7920  -0.3640  -0.3177  -0.2872  -0.2644  -0.1910  -0.1644
    -0.1587  -0.1219   0.0390   0.1174   0.1546   0.1990   0.2151   0.2381
     0.4731   0.5534   0.5780   0.5926   0.7000   0.7259   0.7908   0.8157
     0.8897   0.9188   0.9736   1.0341   1.2507   1.2652   1.2698   1.2941

     occupation numbers 
     1.0000   1.0000   1.0000   1.0000   1.0000   1.0000   1.0000   1.0000
     1.0000   1.0000   1.0000   1.0000   1.0000   1.0000   1.0000   1.0000
     1.0000   1.0000   1.0000   1.0000   1.0000   1.0000   1.0000   1.0000
     1.0000   1.0000   1.0000   1.0000   1.0000   1.0000   1.0000   1.0000
     1.0000   1.0000   1.0000   1.0000   1.0000   1.0000   1.0000   1.0000
     1.0000   1.0000   1.0000   1.0000   1.0000   1.0000   1.0000   1.0000
     1.0000   1.0000   1.0000   1.0000   1.0000   1.0000   1.0000   1.0000
     1.0000   1.0000   1.0000   1.0000   1.0000   1.0000   1.0000   1.0000
     1.0000   1.0000   1.0000   1.0000   1.0000   1.0000   1.0000   1.0000
     1.0000   1.0000   1.0000   1.0000   1.0000   1.0000   1.0000   1.0000
     1.0000   1.0000   1.0000   1.0000   1.0000   1.0000   1.0000   1.0000
     1.0000   1.0000   1.0000   1.0000   1.0000   1.0000   1.0000   1.0000
     1.0000   1.0000   1.0000   1.0000   1.0000   1.0000   1.0000   1.0000
     1.0000   1.0000   1.0000   1.0000   1.0000   1.0000   1.0000   1.0000

          k = 0.0575 0.0113-0.0045 ( 58929 PWs)   bands (ev):

   -24.0331 -24.0226 -24.0094 -24.0009 -23.7622 -23.7589 -23.7487 -23.7470
   -19.2639 -19.2625 -19.2544 -19.2536 -18.9583 -18.9577 -18.9449 -18.9435
   -18.3427 -18.3183 -17.3082 -17.2627 -17.1513 -17.1506 -16.1266 -16.1111
   -12.2003 -12.1989 -12.1175 -12.0192 -11.9497 -11.8977 -11.8706 -11.8630
    -8.9629  -8.8835  -8.3606  -8.3577  -7.6395  -7.6294  -7.6238  -7.5233
    -7.0700  -6.9837  -6.6936  -6.6709  -6.5555  -6.5532  -6.3739  -6.3407
    -6.2637  -6.2586  -6.0440  -6.0147  -5.9383  -5.9048  -5.8666  -5.8562
    -5.7122  -5.7027  -5.6248  -5.6120  -5.1824  -5.1644  -4.9814  -4.9698
    -4.5339  -4.5103  -4.4515  -4.4254  -4.1460  -4.1205  -3.8599  -3.8546
    -3.7964  -3.7770  -3.7265  -3.6855  -3.2555  -3.2238  -3.1401  -3.1258
    -0.7695  -0.7230  -0.3663  -0.3561  -0.2790  -0.2781  -0.2446  -0.2381
    -0.1503  -0.1238  -0.0023   0.0578   0.1210   0.1585   0.2524   0.2871
     0.4952   0.5644   0.6424   0.6843   0.6963   0.7414   0.8050   0.8302
     0.8622   0.8778   0.9553   1.0371   1.2348   1.2403   1.2682   1.2855

     occupation numbers 
     1.0000   1.0000   1.0000   1.0000   1.0000   1.0000   1.0000   1.0000
     1.0000   1.0000   1.0000   1.0000   1.0000   1.0000   1.0000   1.0000
     1.0000   1.0000   1.0000   1.0000   1.0000   1.0000   1.0000   1.0000
     1.0000   1.0000   1.0000   1.0000   1.0000   1.0000   1.0000   1.0000
     1.0000   1.0000   1.0000   1.0000   1.0000   1.0000   1.0000   1.0000
     1.0000   1.0000   1.0000   1.0000   1.0000   1.0000   1.0000   1.0000
     1.0000   1.0000   1.0000   1.0000   1.0000   1.0000   1.0000   1.0000
     1.0000   1.0000   1.0000   1.0000   1.0000   1.0000   1.0000   1.0000
     1.0000   1.0000   1.0000   1.0000   1.0000   1.0000   1.0000   1.0000
     1.0000   1.0000   1.0000   1.0000   1.0000   1.0000   1.0000   1.0000
     1.0000   1.0000   1.0000   1.0000   1.0000   1.0000   1.0000   1.0000
     1.0000   1.0000   1.0000   1.0000   1.0000   1.0000   1.0000   1.0000
     1.0000   1.0000   1.0000   1.0000   1.0000   1.0000   1.0000   1.0000
     1.0000   1.0000   1.0000   1.0000   1.0000   1.0000   1.0000   1.0000

          k = 0.0575 0.0340 0.0303 ( 58983 PWs)   bands (ev):

   -24.0294 -24.0255 -24.0059 -24.0055 -23.7576 -23.7567 -23.7522 -23.7501
   -19.2661 -19.2649 -19.2532 -19.2499 -18.9557 -18.9553 -18.9471 -18.9464
   -18.3311 -18.3311 -17.2863 -17.2855 -17.1483 -17.1475 -16.1223 -16.1216
   -12.1981 -12.1976 -12.0700 -12.0618 -11.9198 -11.9153 -11.8766 -11.8715
    -8.9437  -8.9306  -8.3626  -8.3537  -7.6326  -7.6245  -7.5855  -7.5639
    -7.0565  -7.0314  -6.6661  -6.6258  -6.5430  -6.5172  -6.3676  -6.3326
    -6.2694  -6.2422  -6.0739  -6.0457  -5.9662  -5.9403  -5.8474  -5.8289
    -5.7209  -5.7060  -5.6226  -5.6154  -5.1934  -5.1488  -5.0011  -4.9964
    -4.5260  -4.5152  -4.4520  -4.4291  -4.1258  -4.1018  -3.8806  -3.8677
    -3.8105  -3.7724  -3.6848  -3.6786  -3.2401  -3.2365  -3.1423  -3.1300
    -0.8138  -0.8087  -0.3546  -0.3493  -0.3055  -0.2895  -0.1709  -0.1507
    -0.1310  -0.1159   0.0552   0.0700   0.1432   0.1556   0.2779   0.2891
     0.5333   0.5417   0.5657   0.5949   0.7130   0.7193   0.7983   0.8185
     0.8754   0.9061   0.9450   0.9662   1.2271   1.2385   1.2985   1.3131

     occupation numbers 
     1.0000   1.0000   1.0000   1.0000   1.0000   1.0000   1.0000   1.0000
     1.0000   1.0000   1.0000   1.0000   1.0000   1.0000   1.0000   1.0000
     1.0000   1.0000   1.0000   1.0000   1.0000   1.0000   1.0000   1.0000
     1.0000   1.0000   1.0000   1.0000   1.0000   1.0000   1.0000   1.0000
     1.0000   1.0000   1.0000   1.0000   1.0000   1.0000   1.0000   1.0000
     1.0000   1.0000   1.0000   1.0000   1.0000   1.0000   1.0000   1.0000
     1.0000   1.0000   1.0000   1.0000   1.0000   1.0000   1.0000   1.0000
     1.0000   1.0000   1.0000   1.0000   1.0000   1.0000   1.0000   1.0000
     1.0000   1.0000   1.0000   1.0000   1.0000   1.0000   1.0000   1.0000
     1.0000   1.0000   1.0000   1.0000   1.0000   1.0000   1.0000   1.0000
     1.0000   1.0000   1.0000   1.0000   1.0000   1.0000   1.0000   1.0000
     1.0000   1.0000   1.0000   1.0000   1.0000   1.0000   1.0000   1.0000
     1.0000   1.0000   1.0000   1.0000   1.0000   1.0000   1.0000   1.0000
     1.0000   1.0000   1.0000   1.0000   1.0000   1.0000   1.0000   1.0000

          k = 0.0575 0.0340 0.0651 ( 58958 PWs)   bands (ev):

   -24.0272 -24.0261 -24.0075 -24.0042 -23.7588 -23.7585 -23.7521 -23.7483
   -19.2669 -19.2661 -19.2532 -19.2492 -18.9648 -18.9640 -18.9393 -18.9378
   -18.3389 -18.3288 -17.2938 -17.2762 -17.1384 -17.1369 -16.1326 -16.1253
   -12.2099 -12.2084 -12.0838 -12.0532 -11.9092 -11.8897 -11.8822 -11.8772
    -8.9623  -8.9136  -8.3551  -8.3407  -7.6215  -7.6106  -7.5518  -7.4948
    -7.1114  -7.0331  -6.6512  -6.6021  -6.5656  -6.5402  -6.4432  -6.3916
    -6.3233  -6.2737  -6.0478  -6.0309  -5.9961  -5.9781  -5.8916  -5.8582
    -5.7084  -5.6859  -5.5535  -5.5263  -5.1956  -5.1291  -5.0419  -5.0180
    -4.4696  -4.4504  -4.4032  -4.3698  -4.0910  -4.0719  -3.9786  -3.9618
    -3.8328  -3.8033  -3.6681  -3.6349  -3.2727  -3.2638  -3.1270  -3.1050
    -0.8792  -0.8629  -0.3593  -0.3455  -0.3007  -0.2909  -0.1614  -0.1489
    -0.0737  -0.0613   0.1236   0.1346   0.1712   0.1831   0.2677   0.3099
     0.4167   0.4278   0.5439   0.5995   0.6822   0.7137   0.7862   0.8016
     0.8904   0.9153   0.9718   0.9874   1.2418   1.2558   1.3027   1.3198

     occupation numbers 
     1.0000   1.0000   1.0000   1.0000   1.0000   1.0000   1.0000   1.0000
     1.0000   1.0000   1.0000   1.0000   1.0000   1.0000   1.0000   1.0000
     1.0000   1.0000   1.0000   1.0000   1.0000   1.0000   1.0000   1.0000
     1.0000   1.0000   1.0000   1.0000   1.0000   1.0000   1.0000   1.0000
     1.0000   1.0000   1.0000   1.0000   1.0000   1.0000   1.0000   1.0000
     1.0000   1.0000   1.0000   1.0000   1.0000   1.0000   1.0000   1.0000
     1.0000   1.0000   1.0000   1.0000   1.0000   1.0000   1.0000   1.0000
     1.0000   1.0000   1.0000   1.0000   1.0000   1.0000   1.0000   1.0000
     1.0000   1.0000   1.0000   1.0000   1.0000   1.0000   1.0000   1.0000
     1.0000   1.0000   1.0000   1.0000   1.0000   1.0000   1.0000   1.0000
     1.0000   1.0000   1.0000   1.0000   1.0000   1.0000   1.0000   1.0000
     1.0000   1.0000   1.0000   1.0000   1.0000   1.0000   1.0000   1.0000
     1.0000   1.0000   1.0000   1.0000   1.0000   1.0000   1.0000   1.0000
     1.0000   1.0000   1.0000   1.0000   1.0000   1.0000   1.0000   1.0000

          k = 0.0575 0.0340-0.0393 ( 58962 PWs)   bands (ev):

   -24.0286 -24.0263 -24.0074 -24.0027 -23.7614 -23.7608 -23.7491 -23.7465
   -19.2654 -19.2650 -19.2540 -19.2511 -18.9658 -18.9650 -18.9383 -18.9367
   -18.3405 -18.3263 -17.2974 -17.2717 -17.1414 -17.1400 -16.1306 -16.1209
   -12.2124 -12.2110 -12.0993 -12.0541 -11.9121 -11.8941 -11.8747 -11.8625
    -8.9532  -8.8967  -8.3526  -8.3412  -7.6256  -7.6100  -7.5645  -7.4887
    -7.1172  -7.0317  -6.6513  -6.6142  -6.5728  -6.5518  -6.4942  -6.4402
    -6.2878  -6.2475  -6.0542  -6.0191  -5.9740  -5.9649  -5.8892  -5.8643
    -5.6918  -5.6770  -5.5525  -5.5214  -5.2080  -5.1563  -5.0113  -4.9928
    -4.4867  -4.4695  -4.3782  -4.3620  -4.1086  -4.0952  -3.9419  -3.9395
    -3.8133  -3.8061  -3.7112  -3.6570  -3.2727  -3.2589  -3.1276  -3.1097
    -0.8326  -0.8072  -0.3556  -0.3384  -0.3074  -0.2925  -0.1721  -0.1650
    -0.1291  -0.1077   0.0650   0.0946   0.1631   0.1803   0.2183   0.2399
     0.5010   0.5304   0.6014   0.6050   0.6979   0.7092   0.7793   0.7883
     0.8980   0.9159   0.9981   1.0213   1.2539   1.2612   1.2747   1.2860

     occupation numbers 
     1.0000   1.0000   1.0000   1.0000   1.0000   1.0000   1.0000   1.0000
     1.0000   1.0000   1.0000   1.0000   1.0000   1.0000   1.0000   1.0000
     1.0000   1.0000   1.0000   1.0000   1.0000   1.0000   1.0000   1.0000
     1.0000   1.0000   1.0000   1.0000   1.0000   1.0000   1.0000   1.0000
     1.0000   1.0000   1.0000   1.0000   1.0000   1.0000   1.0000   1.0000
     1.0000   1.0000   1.0000   1.0000   1.0000   1.0000   1.0000   1.0000
     1.0000   1.0000   1.0000   1.0000   1.0000   1.0000   1.0000   1.0000
     1.0000   1.0000   1.0000   1.0000   1.0000   1.0000   1.0000   1.0000
     1.0000   1.0000   1.0000   1.0000   1.0000   1.0000   1.0000   1.0000
     1.0000   1.0000   1.0000   1.0000   1.0000   1.0000   1.0000   1.0000
     1.0000   1.0000   1.0000   1.0000   1.0000   1.0000   1.0000   1.0000
     1.0000   1.0000   1.0000   1.0000   1.0000   1.0000   1.0000   1.0000
     1.0000   1.0000   1.0000   1.0000   1.0000   1.0000   1.0000   1.0000
     1.0000   1.0000   1.0000   1.0000   1.0000   1.0000   1.0000   1.0000

          k = 0.0575 0.0340-0.0045 ( 58939 PWs)   bands (ev):

   -24.0303 -24.0260 -24.0067 -24.0032 -23.7608 -23.7593 -23.7486 -23.7478
   -19.2643 -19.2638 -19.2532 -19.2529 -18.9581 -18.9579 -18.9445 -18.9439
   -18.3358 -18.3256 -17.2948 -17.2760 -17.1511 -17.1508 -16.1220 -16.1156
   -12.2006 -12.2002 -12.0937 -12.0559 -11.9245 -11.9055 -11.8700 -11.8668
    -8.9402  -8.9074  -8.3587  -8.3562  -7.6362  -7.6320  -7.5971  -7.5554
    -7.0577  -7.0229  -6.6597  -6.6489  -6.5406  -6.5375  -6.4277  -6.4140
    -6.2189  -6.2122  -6.0548  -6.0364  -5.9297  -5.9152  -5.8499  -5.8434
    -5.7160  -5.7053  -5.6214  -5.6168  -5.1866  -5.1768  -4.9755  -4.9718
    -4.5345  -4.5190  -4.4506  -4.4284  -4.1277  -4.1160  -3.8609  -3.8588
    -3.7751  -3.7573  -3.7387  -3.7116  -3.2456  -3.2315  -3.1404  -3.1351
    -0.7541  -0.7348  -0.3516  -0.3463  -0.2985  -0.2767  -0.2622  -0.2435
    -0.1485  -0.1285   0.0190   0.0449   0.1373   0.1558   0.2614   0.2800
     0.5270   0.5621   0.6273   0.6504   0.7071   0.7351   0.8101   0.8165
     0.8808   0.8903   0.9706   1.0080   1.2372   1.2388   1.2727   1.2802

     occupation numbers 
     1.0000   1.0000   1.0000   1.0000   1.0000   1.0000   1.0000   1.0000
     1.0000   1.0000   1.0000   1.0000   1.0000   1.0000   1.0000   1.0000
     1.0000   1.0000   1.0000   1.0000   1.0000   1.0000   1.0000   1.0000
     1.0000   1.0000   1.0000   1.0000   1.0000   1.0000   1.0000   1.0000
     1.0000   1.0000   1.0000   1.0000   1.0000   1.0000   1.0000   1.0000
     1.0000   1.0000   1.0000   1.0000   1.0000   1.0000   1.0000   1.0000
     1.0000   1.0000   1.0000   1.0000   1.0000   1.0000   1.0000   1.0000
     1.0000   1.0000   1.0000   1.0000   1.0000   1.0000   1.0000   1.0000
     1.0000   1.0000   1.0000   1.0000   1.0000   1.0000   1.0000   1.0000
     1.0000   1.0000   1.0000   1.0000   1.0000   1.0000   1.0000   1.0000
     1.0000   1.0000   1.0000   1.0000   1.0000   1.0000   1.0000   1.0000
     1.0000   1.0000   1.0000   1.0000   1.0000   1.0000   1.0000   1.0000
     1.0000   1.0000   1.0000   1.0000   1.0000   1.0000   1.0000   1.0000
     1.0000   1.0000   1.0000   1.0000   1.0000   1.0000   1.0000   1.0000

          k =-0.0192 0.0113-0.0217 ( 58957 PWs)   bands (ev):

   -24.0427 -24.0207 -24.0087 -23.9993 -23.7607 -23.7524 -23.7515 -23.7479
   -19.2681 -19.2626 -19.2563 -19.2442 -18.9532 -18.9528 -18.9495 -18.9482
   -18.3365 -18.3120 -17.3125 -17.2645 -17.1479 -17.1465 -16.1270 -16.1135
   -12.2003 -12.1978 -12.1563 -12.0422 -11.9895 -11.9192 -11.8741 -11.8548
    -8.9538  -8.9154  -8.3719  -8.3372  -7.6459  -7.6095  -7.5345  -7.5324
    -6.9362  -6.8349  -6.6779  -6.6135  -6.5977  -6.4848  -6.4218  -6.3465
    -6.2127  -6.1863  -6.1556  -6.0390  -5.9777  -5.9000  -5.8433  -5.8026
    -5.7460  -5.7248  -5.6282  -5.5931  -5.2037  -5.0929  -5.0164  -4.9993
    -4.5527  -4.5343  -4.5031  -4.4561  -4.3246  -4.2361  -3.9381  -3.9319
    -3.7833  -3.6842  -3.6397  -3.6046  -3.2485  -3.2058  -3.1473  -3.1256
    -0.8630  -0.8598  -0.3826  -0.3813  -0.2827  -0.2302  -0.1683  -0.1486
    -0.0953  -0.0735   0.1031   0.1344   0.1454   0.1741   0.3015   0.3222
     0.3748   0.3938   0.5633   0.6156   0.6997   0.7465   0.7917   0.8218
     0.8413   0.9550   0.9886   1.0524   1.1445   1.2720   1.2995   1.3228

     occupation numbers 
     1.0000   1.0000   1.0000   1.0000   1.0000   1.0000   1.0000   1.0000
     1.0000   1.0000   1.0000   1.0000   1.0000   1.0000   1.0000   1.0000
     1.0000   1.0000   1.0000   1.0000   1.0000   1.0000   1.0000   1.0000
     1.0000   1.0000   1.0000   1.0000   1.0000   1.0000   1.0000   1.0000
     1.0000   1.0000   1.0000   1.0000   1.0000   1.0000   1.0000   1.0000
     1.0000   1.0000   1.0000   1.0000   1.0000   1.0000   1.0000   1.0000
     1.0000   1.0000   1.0000   1.0000   1.0000   1.0000   1.0000   1.0000
     1.0000   1.0000   1.0000   1.0000   1.0000   1.0000   1.0000   1.0000
     1.0000   1.0000   1.0000   1.0000   1.0000   1.0000   1.0000   1.0000
     1.0000   1.0000   1.0000   1.0000   1.0000   1.0000   1.0000   1.0000
     1.0000   1.0000   1.0000   1.0000   1.0000   1.0000   1.0000   1.0000
     1.0000   1.0000   1.0000   1.0000   1.0000   1.0000   1.0000   1.0000
     1.0000   1.0000   1.0000   1.0000   1.0000   1.0000   1.0000   1.0000
     1.0000   1.0000   1.0000   1.0000   1.0000   1.0000   1.0000   1.0000

          k =-0.0192 0.0113-0.0565 ( 58999 PWs)   bands (ev):

   -24.0349 -24.0261 -24.0050 -24.0039 -23.7625 -23.7596 -23.7482 -23.7438
   -19.2664 -19.2617 -19.2569 -19.2475 -18.9586 -18.9579 -18.9450 -18.9431
   -18.3253 -18.3253 -17.2896 -17.2873 -17.1436 -17.1413 -16.1223 -16.1211
   -12.2093 -12.2084 -12.1025 -12.0838 -11.9482 -11.9410 -11.8817 -11.8746
    -8.9344  -8.9002  -8.3541  -8.3308  -7.6591  -7.6135  -7.5165  -7.4454
    -6.9818  -6.8606  -6.6686  -6.6422  -6.6254  -6.5058  -6.4447  -6.4186
    -6.2731  -6.2448  -6.0442  -5.9980  -5.9762  -5.9047  -5.8795  -5.8429
    -5.8050  -5.7502  -5.5521  -5.5117  -5.2074  -5.1298  -5.0111  -4.9750
    -4.5046  -4.4966  -4.4633  -4.3743  -4.2505  -4.2296  -4.0495  -4.0428
    -3.7717  -3.7284  -3.5787  -3.5692  -3.2684  -3.2622  -3.1306  -3.1061
    -0.8300  -0.7986  -0.3955  -0.3869  -0.2895  -0.2514  -0.2045  -0.1778
    -0.1463  -0.1103   0.0029   0.0604   0.1690   0.2148   0.2705   0.2827
     0.4836   0.5392   0.5848   0.6239   0.7044   0.7246   0.7531   0.8036
     0.9142   0.9530   1.0219   1.0462   1.1566   1.2232   1.3045   1.3268

     occupation numbers 
     1.0000   1.0000   1.0000   1.0000   1.0000   1.0000   1.0000   1.0000
     1.0000   1.0000   1.0000   1.0000   1.0000   1.0000   1.0000   1.0000
     1.0000   1.0000   1.0000   1.0000   1.0000   1.0000   1.0000   1.0000
     1.0000   1.0000   1.0000   1.0000   1.0000   1.0000   1.0000   1.0000
     1.0000   1.0000   1.0000   1.0000   1.0000   1.0000   1.0000   1.0000
     1.0000   1.0000   1.0000   1.0000   1.0000   1.0000   1.0000   1.0000
     1.0000   1.0000   1.0000   1.0000   1.0000   1.0000   1.0000   1.0000
     1.0000   1.0000   1.0000   1.0000   1.0000   1.0000   1.0000   1.0000
     1.0000   1.0000   1.0000   1.0000   1.0000   1.0000   1.0000   1.0000
     1.0000   1.0000   1.0000   1.0000   1.0000   1.0000   1.0000   1.0000
     1.0000   1.0000   1.0000   1.0000   1.0000   1.0000   1.0000   1.0000
     1.0000   1.0000   1.0000   1.0000   1.0000   1.0000   1.0000   1.0000
     1.0000   1.0000   1.0000   1.0000   1.0000   1.0000   1.0000   1.0000
     1.0000   1.0000   1.0000   1.0000   1.0000   1.0000   1.0000   1.0000

          k =-0.0192 0.0113 0.0479 ( 58971 PWs)   bands (ev):

   -24.0358 -24.0255 -24.0086 -24.0000 -23.7640 -23.7611 -23.7451 -23.7438
   -19.2641 -19.2626 -19.2535 -19.2526 -18.9601 -18.9597 -18.9432 -18.9416
   -18.3368 -18.3125 -17.3106 -17.2661 -17.1462 -17.1440 -16.1263 -16.1110
   -12.2151 -12.2082 -12.1381 -12.0505 -11.9806 -11.9049 -11.8870 -11.8715
    -8.9439  -8.8629  -8.3422  -8.3395  -7.6547  -7.6398  -7.5296  -7.4193
    -6.9906  -6.8858  -6.6689  -6.6405  -6.5804  -6.5582  -6.4610  -6.4268
    -6.2923  -6.2652  -6.0508  -6.0225  -5.9015  -5.8720  -5.8672  -5.8575
    -5.8065  -5.7397  -5.5538  -5.5064  -5.2008  -5.1294  -4.9979  -4.9706
    -4.5375  -4.4710  -4.4363  -4.3764  -4.2924  -4.2314  -4.0516  -4.0085
    -3.7809  -3.7272  -3.6309  -3.5537  -3.2732  -3.2526  -3.1215  -3.1158
    -0.7679  -0.7099  -0.3860  -0.3781  -0.3358  -0.3084  -0.2401  -0.2168
    -0.1609  -0.1550  -0.0372   0.0450   0.1836   0.2182   0.2300   0.2776
     0.5186   0.6063   0.6248   0.6379   0.6703   0.7633   0.7734   0.7874
     0.9068   0.9603   1.0360   1.0866   1.1635   1.1897   1.2919   1.3108

     occupation numbers 
     1.0000   1.0000   1.0000   1.0000   1.0000   1.0000   1.0000   1.0000
     1.0000   1.0000   1.0000   1.0000   1.0000   1.0000   1.0000   1.0000
     1.0000   1.0000   1.0000   1.0000   1.0000   1.0000   1.0000   1.0000
     1.0000   1.0000   1.0000   1.0000   1.0000   1.0000   1.0000   1.0000
     1.0000   1.0000   1.0000   1.0000   1.0000   1.0000   1.0000   1.0000
     1.0000   1.0000   1.0000   1.0000   1.0000   1.0000   1.0000   1.0000
     1.0000   1.0000   1.0000   1.0000   1.0000   1.0000   1.0000   1.0000
     1.0000   1.0000   1.0000   1.0000   1.0000   1.0000   1.0000   1.0000
     1.0000   1.0000   1.0000   1.0000   1.0000   1.0000   1.0000   1.0000
     1.0000   1.0000   1.0000   1.0000   1.0000   1.0000   1.0000   1.0000
     1.0000   1.0000   1.0000   1.0000   1.0000   1.0000   1.0000   1.0000
     1.0000   1.0000   1.0000   1.0000   1.0000   1.0000   1.0000   1.0000
     1.0000   1.0000   1.0000   1.0000   1.0000   1.0000   1.0000   1.0000
     1.0000   1.0000   1.0000   1.0000   1.0000   1.0000   1.0000   1.0000

          k =-0.0192 0.0113 0.0131 ( 58980 PWs)   bands (ev):

   -24.0431 -24.0208 -24.0098 -23.9976 -23.7631 -23.7553 -23.7479 -23.7462
   -19.2670 -19.2614 -19.2565 -19.2465 -18.9566 -18.9565 -18.9453 -18.9452
   -18.3410 -18.3063 -17.3211 -17.2557 -17.1501 -17.1498 -16.1274 -16.1071
   -12.2072 -12.1988 -12.1671 -12.0430 -11.9887 -11.9106 -11.8706 -11.8547
    -8.9648  -8.8768  -8.3659  -8.3401  -7.6504  -7.6318  -7.5673  -7.4837
    -6.9052  -6.8926  -6.6792  -6.5995  -6.5877  -6.5307  -6.4311  -6.3620
    -6.2583  -6.2203  -6.0909  -6.0446  -5.9405  -5.8925  -5.8253  -5.8003
    -5.7583  -5.7159  -5.6063  -5.5963  -5.1705  -5.1276  -5.0155  -4.9695
    -4.5516  -4.5263  -4.4973  -4.4780  -4.3283  -4.2467  -3.9419  -3.8853
    -3.8227  -3.6910  -3.6535  -3.6052  -3.2527  -3.2035  -3.1409  -3.1300
    -0.8180  -0.7943  -0.3744  -0.3689  -0.2826  -0.2488  -0.1745  -0.1626
    -0.1500  -0.1141  -0.0088   0.0534   0.1189   0.1911   0.2484   0.3133
     0.4943   0.5339   0.5548   0.6419   0.6883   0.7517   0.8047   0.8189
     0.8512   0.9348   1.0150   1.0806   1.1438   1.2556   1.2863   1.3068

     occupation numbers 
     1.0000   1.0000   1.0000   1.0000   1.0000   1.0000   1.0000   1.0000
     1.0000   1.0000   1.0000   1.0000   1.0000   1.0000   1.0000   1.0000
     1.0000   1.0000   1.0000   1.0000   1.0000   1.0000   1.0000   1.0000
     1.0000   1.0000   1.0000   1.0000   1.0000   1.0000   1.0000   1.0000
     1.0000   1.0000   1.0000   1.0000   1.0000   1.0000   1.0000   1.0000
     1.0000   1.0000   1.0000   1.0000   1.0000   1.0000   1.0000   1.0000
     1.0000   1.0000   1.0000   1.0000   1.0000   1.0000   1.0000   1.0000
     1.0000   1.0000   1.0000   1.0000   1.0000   1.0000   1.0000   1.0000
     1.0000   1.0000   1.0000   1.0000   1.0000   1.0000   1.0000   1.0000
     1.0000   1.0000   1.0000   1.0000   1.0000   1.0000   1.0000   1.0000
     1.0000   1.0000   1.0000   1.0000   1.0000   1.0000   1.0000   1.0000
     1.0000   1.0000   1.0000   1.0000   1.0000   1.0000   1.0000   1.0000
     1.0000   1.0000   1.0000   1.0000   1.0000   1.0000   1.0000   1.0000
     1.0000   1.0000   1.0000   1.0000   1.0000   1.0000   1.0000   1.0000

          k =-0.0192 0.0340-0.0217 ( 58956 PWs)   bands (ev):

   -24.0375 -24.0290 -24.0042 -24.0009 -23.7572 -23.7534 -23.7514 -23.7503
   -19.2677 -19.2661 -19.2509 -19.2465 -18.9531 -18.9529 -18.9491 -18.9485
   -18.3296 -18.3194 -17.2984 -17.2785 -17.1475 -17.1468 -16.1230 -16.1174
   -12.1998 -12.1989 -12.1328 -12.0914 -11.9524 -11.9288 -11.8690 -11.8608
    -8.9434  -8.9275  -8.3624  -8.3480  -7.6385  -7.6229  -7.5276  -7.5266
    -6.9130  -6.8679  -6.6325  -6.6082  -6.6009  -6.5355  -6.3998  -6.3753
    -6.2224  -6.2057  -6.0867  -6.0487  -5.9800  -5.9445  -5.8439  -5.8301
    -5.7134  -5.7015  -5.6101  -5.5928  -5.1624  -5.0997  -5.0518  -5.0306
    -4.5572  -4.5490  -4.4644  -4.4440  -4.3139  -4.2689  -3.9314  -3.9266
    -3.7584  -3.7137  -3.6302  -3.6119  -3.2398  -3.2231  -3.1366  -3.1288
    -0.8591  -0.8573  -0.3748  -0.3693  -0.2934  -0.2588  -0.1895  -0.1827
    -0.0642  -0.0569   0.1259   0.1361   0.1656   0.1724   0.3245   0.3291
     0.3526   0.3708   0.5779   0.6040   0.6856   0.7025   0.8088   0.8286
     0.8809   0.9270   1.0156   1.0403   1.1784   1.2298   1.3102   1.3179

     occupation numbers 
     1.0000   1.0000   1.0000   1.0000   1.0000   1.0000   1.0000   1.0000
     1.0000   1.0000   1.0000   1.0000   1.0000   1.0000   1.0000   1.0000
     1.0000   1.0000   1.0000   1.0000   1.0000   1.0000   1.0000   1.0000
     1.0000   1.0000   1.0000   1.0000   1.0000   1.0000   1.0000   1.0000
     1.0000   1.0000   1.0000   1.0000   1.0000   1.0000   1.0000   1.0000
     1.0000   1.0000   1.0000   1.0000   1.0000   1.0000   1.0000   1.0000
     1.0000   1.0000   1.0000   1.0000   1.0000   1.0000   1.0000   1.0000
     1.0000   1.0000   1.0000   1.0000   1.0000   1.0000   1.0000   1.0000
     1.0000   1.0000   1.0000   1.0000   1.0000   1.0000   1.0000   1.0000
     1.0000   1.0000   1.0000   1.0000   1.0000   1.0000   1.0000   1.0000
     1.0000   1.0000   1.0000   1.0000   1.0000   1.0000   1.0000   1.0000
     1.0000   1.0000   1.0000   1.0000   1.0000   1.0000   1.0000   1.0000
     1.0000   1.0000   1.0000   1.0000   1.0000   1.0000   1.0000   1.0000
     1.0000   1.0000   1.0000   1.0000   1.0000   1.0000   1.0000   1.0000

          k =-0.0192 0.0340-0.0565 ( 58996 PWs)   bands (ev):

   -24.0320 -24.0283 -24.0051 -24.0046 -23.7610 -23.7599 -23.7474 -23.7455
   -19.2662 -19.2648 -19.2524 -19.2491 -18.9584 -18.9581 -18.9445 -18.9437
   -18.3253 -18.3253 -17.2892 -17.2882 -17.1426 -17.1417 -16.1220 -16.1215
   -12.2087 -12.2082 -12.0995 -12.0917 -11.9421 -11.9383 -11.8821 -11.8789
    -8.9246  -8.9104  -8.3478  -8.3380  -7.6443  -7.6257  -7.4957  -7.4670
    -6.9618  -6.9167  -6.6591  -6.6504  -6.5701  -6.5212  -6.4572  -6.4387
    -6.2291  -6.2033  -6.0678  -6.0247  -5.9522  -5.9205  -5.8792  -5.8631
    -5.7898  -5.7574  -5.5558  -5.5369  -5.1468  -5.0956  -5.0573  -5.0224
    -4.4852  -4.4713  -4.4460  -4.4046  -4.2537  -4.2433  -4.0461  -4.0436
    -3.7532  -3.7341  -3.5795  -3.5742  -3.2631  -3.2593  -3.1294  -3.1180
    -0.8199  -0.8070  -0.3889  -0.3815  -0.2988  -0.2711  -0.2146  -0.1979
    -0.1221  -0.1062   0.0477   0.0674   0.1725   0.1946   0.2641   0.2753
     0.4986   0.5237   0.5951   0.6138   0.7114   0.7222   0.7580   0.7892
     0.9190   0.9388   1.0332   1.0428   1.1785   1.2056   1.3104   1.3195

     occupation numbers 
     1.0000   1.0000   1.0000   1.0000   1.0000   1.0000   1.0000   1.0000
     1.0000   1.0000   1.0000   1.0000   1.0000   1.0000   1.0000   1.0000
     1.0000   1.0000   1.0000   1.0000   1.0000   1.0000   1.0000   1.0000
     1.0000   1.0000   1.0000   1.0000   1.0000   1.0000   1.0000   1.0000
     1.0000   1.0000   1.0000   1.0000   1.0000   1.0000   1.0000   1.0000
     1.0000   1.0000   1.0000   1.0000   1.0000   1.0000   1.0000   1.0000
     1.0000   1.0000   1.0000   1.0000   1.0000   1.0000   1.0000   1.0000
     1.0000   1.0000   1.0000   1.0000   1.0000   1.0000   1.0000   1.0000
     1.0000   1.0000   1.0000   1.0000   1.0000   1.0000   1.0000   1.0000
     1.0000   1.0000   1.0000   1.0000   1.0000   1.0000   1.0000   1.0000
     1.0000   1.0000   1.0000   1.0000   1.0000   1.0000   1.0000   1.0000
     1.0000   1.0000   1.0000   1.0000   1.0000   1.0000   1.0000   1.0000
     1.0000   1.0000   1.0000   1.0000   1.0000   1.0000   1.0000   1.0000
     1.0000   1.0000   1.0000   1.0000   1.0000   1.0000   1.0000   1.0000

          k =-0.0192 0.0340 0.0479 ( 58998 PWs)   bands (ev):

   -24.0329 -24.0287 -24.0060 -24.0025 -23.7627 -23.7615 -23.7451 -23.7445
   -19.2645 -19.2640 -19.2523 -19.2519 -18.9600 -18.9598 -18.9427 -18.9420
   -18.3299 -18.3198 -17.2975 -17.2791 -17.1455 -17.1446 -16.1217 -16.1154
   -12.2131 -12.2101 -12.1204 -12.0878 -11.9470 -11.9195 -11.8821 -11.8756
    -8.9211  -8.8876  -8.3426  -8.3412  -7.6471  -7.6419  -7.5000  -7.4534
    -6.9589  -6.9150  -6.6714  -6.6494  -6.5692  -6.5578  -6.4879  -6.4680
    -6.2100  -6.1953  -6.0839  -6.0600  -5.8979  -5.8865  -5.8713  -5.8529
    -5.7900  -5.7580  -5.5459  -5.5209  -5.1770  -5.1269  -5.0206  -4.9877
    -4.5241  -4.4962  -4.3989  -4.3757  -4.2830  -4.2565  -4.0387  -4.0207
    -3.7581  -3.7353  -3.6098  -3.5775  -3.2629  -3.2527  -3.1270  -3.1254
    -0.7517  -0.7280  -0.3853  -0.3814  -0.3086  -0.2926  -0.2645  -0.2399
    -0.1747  -0.1658   0.0137   0.0451   0.1843   0.2000   0.2419   0.2668
     0.5446   0.5791   0.6417   0.6549   0.6705   0.7164   0.7815   0.7878
     0.9217   0.9396   1.0586   1.0776   1.1692   1.1806   1.2972   1.3053

     occupation numbers 
     1.0000   1.0000   1.0000   1.0000   1.0000   1.0000   1.0000   1.0000
     1.0000   1.0000   1.0000   1.0000   1.0000   1.0000   1.0000   1.0000
     1.0000   1.0000   1.0000   1.0000   1.0000   1.0000   1.0000   1.0000
     1.0000   1.0000   1.0000   1.0000   1.0000   1.0000   1.0000   1.0000
     1.0000   1.0000   1.0000   1.0000   1.0000   1.0000   1.0000   1.0000
     1.0000   1.0000   1.0000   1.0000   1.0000   1.0000   1.0000   1.0000
     1.0000   1.0000   1.0000   1.0000   1.0000   1.0000   1.0000   1.0000
     1.0000   1.0000   1.0000   1.0000   1.0000   1.0000   1.0000   1.0000
     1.0000   1.0000   1.0000   1.0000   1.0000   1.0000   1.0000   1.0000
     1.0000   1.0000   1.0000   1.0000   1.0000   1.0000   1.0000   1.0000
     1.0000   1.0000   1.0000   1.0000   1.0000   1.0000   1.0000   1.0000
     1.0000   1.0000   1.0000   1.0000   1.0000   1.0000   1.0000   1.0000
     1.0000   1.0000   1.0000   1.0000   1.0000   1.0000   1.0000   1.0000
     1.0000   1.0000   1.0000   1.0000   1.0000   1.0000   1.0000   1.0000

          k =-0.0192 0.0340 0.0131 ( 58977 PWs)   bands (ev):

   -24.0380 -24.0296 -24.0041 -23.9998 -23.7603 -23.7569 -23.7478 -23.7472
   -19.2667 -19.2650 -19.2516 -19.2481 -18.9566 -18.9565 -18.9452 -18.9452
   -18.3312 -18.3169 -17.3016 -17.2744 -17.1502 -17.1500 -16.1212 -16.1128
   -12.2049 -12.2018 -12.1416 -12.0969 -11.9478 -11.9218 -11.8662 -11.8594
    -8.9406  -8.9042  -8.3598  -8.3492  -7.6457  -7.6370  -7.5395  -7.5061
[...]
     atom   38 type  4   force =    -1.24488449   -6.88508492    9.24097671
     atom   39 type  1   force =     2.15221588    2.36583464    1.88888283
     atom   40 type  1   force =    -0.17219447    1.72731993    0.09832207
     atom   41 type  4   force =     9.90091170    3.98651686   -4.50046082
     atom   42 type  1   force =    -2.81499350    0.67151050   -1.87160251
     atom   43 type  3   force =     0.14800069   -1.85060383   -2.30858780
     atom   44 type  3   force =    -2.34603914    0.91949344   -1.51890603
     atom   45 type  2   force =    -2.64265456   -0.91409132   -4.30526984
     atom   46 type  4   force =    -8.99525822   -4.87137144   -1.32104489
     atom   47 type  3   force =    -1.19771625   -2.58857962    0.65582811
     atom   48 type  3   force =    -2.09620659    0.04720068   -1.84186487
     atom   49 type  2   force =    -3.62070538   -2.95565286   -1.04713168
     atom   50 type  4   force =    -1.55731127   -5.21268549    9.90672008
     atom   51 type  1   force =    -0.43505553   -0.13339681    1.17512373
     atom   52 type  4   force =    -1.24488576    6.88508299    9.24099965
     atom   53 type  1   force =     2.15222235   -2.36585595    1.88887556
     atom   54 type  1   force =    -0.17222024   -1.72732764    0.09837264
     atom   55 type  4   force =     9.90087327   -3.98651079   -4.50042484
     atom   56 type  1   force =    -2.81499845   -0.67151146   -1.87158219
     The core correction contribution to forces
     atom    1 type  1   force =    -0.00288143   -0.00641178   -0.00175825
     atom    2 type  4   force =     0.01870332    0.00360923   -0.01198506
     atom    3 type  1   force =     0.00034565    0.00170516    0.00000622
     atom    4 type  1   force =     0.00911421    0.00619253    0.00143384
     atom    5 type  4   force =    -0.00118050   -0.01438739    0.01729902
     atom    6 type  1   force =    -0.00118005   -0.00160074   -0.00013533
     atom    7 type  4   force =    -0.00420998    0.00884128    0.02026095
     atom    8 type  2   force =    -0.01423278    0.01020452   -0.00492190
     atom    9 type  3   force =     0.00000000    0.00000000    0.00000000
     atom   10 type  3   force =     0.00000000    0.00000000    0.00000000
     atom   11 type  4   force =    -0.01755751    0.01167898   -0.00641967
     atom   12 type  2   force =    -0.00874514    0.00400585   -0.01568854
     atom   13 type  3   force =     0.00000000    0.00000000    0.00000000
     atom   14 type  3   force =     0.00000000    0.00000000    0.00000000
     atom   15 type  3   force =     0.00000000    0.00000000    0.00000000
     atom   16 type  3   force =     0.00000000    0.00000000    0.00000000
     atom   17 type  2   force =    -0.00874321   -0.00400578   -0.01568805
     atom   18 type  4   force =    -0.01755758   -0.01167905   -0.00641975
     atom   19 type  3   force =     0.00000000    0.00000000    0.00000000
     atom   20 type  3   force =     0.00000000    0.00000000    0.00000000
     atom   21 type  2   force =    -0.01422948   -0.01020447   -0.00492130
     atom   22 type  4   force =    -0.00421007   -0.00884133    0.02026115
     atom   23 type  1   force =    -0.00118036    0.00160048   -0.00013546
     atom   24 type  4   force =    -0.00118054    0.01438737    0.01729901
     atom   25 type  1   force =     0.00911415   -0.00619255    0.00143386
     atom   26 type  1   force =     0.00034525   -0.00170521    0.00000672
     atom   27 type  4   force =     0.01870333   -0.00360925   -0.01198494
     atom   28 type  1   force =    -0.00288141    0.00641181   -0.00175822
     atom   29 type  3   force =     0.00000000    0.00000000    0.00000000
     atom   30 type  3   force =     0.00000000    0.00000000    0.00000000
     atom   31 type  2   force =     0.00874514   -0.00400585    0.01568854
     atom   32 type  4   force =     0.01755751   -0.01167898    0.00641967
     atom   33 type  3   force =     0.00000000    0.00000000    0.00000000
     atom   34 type  3   force =     0.00000000    0.00000000    0.00000000
     atom   35 type  2   force =     0.01423278   -0.01020452    0.00492190
     atom   36 type  4   force =     0.00420998   -0.00884128   -0.02026095
     atom   37 type  1   force =     0.00118005    0.00160074    0.00013533
     atom   38 type  4   force =     0.00118050    0.01438739   -0.01729902
     atom   39 type  1   force =    -0.00911421   -0.00619253   -0.00143384
     atom   40 type  1   force =    -0.00034565   -0.00170516   -0.00000622
     atom   41 type  4   force =    -0.01870332   -0.00360923    0.01198506
     atom   42 type  1   force =     0.00288143    0.00641178    0.00175825
     atom   43 type  3   force =     0.00000000    0.00000000    0.00000000
     atom   44 type  3   force =     0.00000000    0.00000000    0.00000000
     atom   45 type  2   force =     0.00874321    0.00400578    0.01568805
     atom   46 type  4   force =     0.01755758    0.01167905    0.00641975
     atom   47 type  3   force =     0.00000000    0.00000000    0.00000000
     atom   48 type  3   force =     0.00000000    0.00000000    0.00000000
     atom   49 type  2   force =     0.01422948    0.01020447    0.00492130
     atom   50 type  4   force =     0.00421007    0.00884133   -0.02026115
     atom   51 type  1   force =     0.00118036   -0.00160048    0.00013546
     atom   52 type  4   force =     0.00118054   -0.01438737   -0.01729901
     atom   53 type  1   force =    -0.00911415    0.00619255   -0.00143386
     atom   54 type  1   force =    -0.00034525    0.00170521   -0.00000672
     atom   55 type  4   force =    -0.01870333    0.00360925    0.01198494
     atom   56 type  1   force =     0.00288141   -0.00641181    0.00175822
     The Hubbard contrib.    to forces
     atom    1 type  1   force =     0.00000000    0.00000000    0.00000000
     atom    2 type  4   force =     0.00000000    0.00000000    0.00000000
     atom    3 type  1   force =     0.00000000    0.00000000    0.00000000
     atom    4 type  1   force =     0.00000000    0.00000000    0.00000000
     atom    5 type  4   force =     0.00000000    0.00000000    0.00000000
     atom    6 type  1   force =     0.00000000    0.00000000    0.00000000
     atom    7 type  4   force =     0.00000000    0.00000000    0.00000000
     atom    8 type  2   force =     0.00000000    0.00000000    0.00000000
     atom    9 type  3   force =     0.00000000    0.00000000    0.00000000
     atom   10 type  3   force =     0.00000000    0.00000000    0.00000000
     atom   11 type  4   force =     0.00000000    0.00000000    0.00000000
     atom   12 type  2   force =     0.00000000    0.00000000    0.00000000
     atom   13 type  3   force =     0.00000000    0.00000000    0.00000000
     atom   14 type  3   force =     0.00000000    0.00000000    0.00000000
     atom   15 type  3   force =     0.00000000    0.00000000    0.00000000
     atom   16 type  3   force =     0.00000000    0.00000000    0.00000000
     atom   17 type  2   force =     0.00000000    0.00000000    0.00000000
     atom   18 type  4   force =     0.00000000    0.00000000    0.00000000
     atom   19 type  3   force =     0.00000000    0.00000000    0.00000000
     atom   20 type  3   force =     0.00000000    0.00000000    0.00000000
     atom   21 type  2   force =     0.00000000    0.00000000    0.00000000
     atom   22 type  4   force =     0.00000000    0.00000000    0.00000000
     atom   23 type  1   force =     0.00000000    0.00000000    0.00000000
     atom   24 type  4   force =     0.00000000    0.00000000    0.00000000
     atom   25 type  1   force =     0.00000000    0.00000000    0.00000000
     atom   26 type  1   force =     0.00000000    0.00000000    0.00000000
     atom   27 type  4   force =     0.00000000    0.00000000    0.00000000
     atom   28 type  1   force =     0.00000000    0.00000000    0.00000000
     atom   29 type  3   force =     0.00000000    0.00000000    0.00000000
     atom   30 type  3   force =     0.00000000    0.00000000    0.00000000
     atom   31 type  2   force =     0.00000000    0.00000000    0.00000000
     atom   32 type  4   force =     0.00000000    0.00000000    0.00000000
     atom   33 type  3   force =     0.00000000    0.00000000    0.00000000
     atom   34 type  3   force =     0.00000000    0.00000000    0.00000000
     atom   35 type  2   force =     0.00000000    0.00000000    0.00000000
     atom   36 type  4   force =     0.00000000    0.00000000    0.00000000
     atom   37 type  1   force =     0.00000000    0.00000000    0.00000000
     atom   38 type  4   force =     0.00000000    0.00000000    0.00000000
     atom   39 type  1   force =     0.00000000    0.00000000    0.00000000
     atom   40 type  1   force =     0.00000000    0.00000000    0.00000000
     atom   41 type  4   force =     0.00000000    0.00000000    0.00000000
     atom   42 type  1   force =     0.00000000    0.00000000    0.00000000
     atom   43 type  3   force =     0.00000000    0.00000000    0.00000000
     atom   44 type  3   force =     0.00000000    0.00000000    0.00000000
     atom   45 type  2   force =     0.00000000    0.00000000    0.00000000
     atom   46 type  4   force =     0.00000000    0.00000000    0.00000000
     atom   47 type  3   force =     0.00000000    0.00000000    0.00000000
     atom   48 type  3   force =     0.00000000    0.00000000    0.00000000
     atom   49 type  2   force =     0.00000000    0.00000000    0.00000000
     atom   50 type  4   force =     0.00000000    0.00000000    0.00000000
     atom   51 type  1   force =     0.00000000    0.00000000    0.00000000
     atom   52 type  4   force =     0.00000000    0.00000000    0.00000000
     atom   53 type  1   force =     0.00000000    0.00000000    0.00000000
     atom   54 type  1   force =     0.00000000    0.00000000    0.00000000
     atom   55 type  4   force =     0.00000000    0.00000000    0.00000000
     atom   56 type  1   force =     0.00000000    0.00000000    0.00000000
     The SCF correction term to forces
     atom    1 type  1   force =    -0.00013652   -0.00006734    0.00003139
     atom    2 type  4   force =     0.00007393    0.00006110    0.00005466
     atom    3 type  1   force =    -0.00024636    0.00003380    0.00034960
     atom    4 type  1   force =    -0.00000791    0.00010689   -0.00012055
     atom    5 type  4   force =    -0.00007631    0.00010832   -0.00010880
     atom    6 type  1   force =    -0.00020300    0.00038510   -0.00038885
     atom    7 type  4   force =    -0.00004579    0.00007319    0.00025490
     atom    8 type  2   force =    -0.00002409   -0.00004277   -0.00000278
     atom    9 type  3   force =    -0.00000426   -0.00000947   -0.00000155
     atom   10 type  3   force =     0.00000572   -0.00002896   -0.00000909
     atom   11 type  4   force =    -0.00010880    0.00011372   -0.00015648
     atom   12 type  2   force =    -0.00005903   -0.00004240    0.00005964
     atom   13 type  3   force =    -0.00001341    0.00000304    0.00002354
     atom   14 type  3   force =    -0.00002704    0.00000047    0.00001576
     atom   15 type  3   force =    -0.00002884   -0.00000017    0.00001338
     atom   16 type  3   force =    -0.00001396    0.00000006    0.00002427
     atom   17 type  2   force =    -0.00006445    0.00005094    0.00006203
     atom   18 type  4   force =    -0.00013156   -0.00015500   -0.00015870
     atom   19 type  3   force =     0.00000760    0.00002616   -0.00000327
     atom   20 type  3   force =    -0.00000354    0.00001099    0.00000137
     atom   21 type  2   force =    -0.00002081    0.00003397    0.00001078
     atom   22 type  4   force =    -0.00006158   -0.00008499    0.00028660
     atom   23 type  1   force =    -0.00022587   -0.00043186   -0.00040735
     atom   24 type  4   force =    -0.00007756   -0.00010830   -0.00008006
     atom   25 type  1   force =    -0.00000153   -0.00013058   -0.00012614
     atom   26 type  1   force =    -0.00029142   -0.00004520    0.00042618
     atom   27 type  4   force =     0.00003781   -0.00005695    0.00009556
     atom   28 type  1   force =    -0.00014228    0.00006690    0.00005179
     atom   29 type  3   force =     0.00002704   -0.00000047   -0.00001576
     atom   30 type  3   force =     0.00001341   -0.00000304   -0.00002354
     atom   31 type  2   force =     0.00005903    0.00004240   -0.00005964
     atom   32 type  4   force =     0.00010880   -0.00011372    0.00015648
     atom   33 type  3   force =    -0.00000572    0.00002896    0.00000909
     atom   34 type  3   force =     0.00000426    0.00000947    0.00000155
     atom   35 type  2   force =     0.00002409    0.00004277    0.00000278
     atom   36 type  4   force =     0.00004579   -0.00007319   -0.00025490
     atom   37 type  1   force =     0.00020300   -0.00038510    0.00038885
     atom   38 type  4   force =     0.00007631   -0.00010832    0.00010880
     atom   39 type  1   force =     0.00000791   -0.00010689    0.00012055
     atom   40 type  1   force =     0.00024636   -0.00003380   -0.00034960
     atom   41 type  4   force =    -0.00007393   -0.00006110   -0.00005466
     atom   42 type  1   force =     0.00013652    0.00006734   -0.00003139
     atom   43 type  3   force =     0.00002884    0.00000017   -0.00001338
     atom   44 type  3   force =     0.00001396   -0.00000006   -0.00002427
     atom   45 type  2   force =     0.00006445   -0.00005094   -0.00006203
     atom   46 type  4   force =     0.00013156    0.00015500    0.00015870
     atom   47 type  3   force =    -0.00000760   -0.00002616    0.00000327
     atom   48 type  3   force =     0.00000354   -0.00001099   -0.00000137
     atom   49 type  2   force =     0.00002081   -0.00003397   -0.00001078
     atom   50 type  4   force =     0.00006158    0.00008499   -0.00028660
     atom   51 type  1   force =     0.00022587    0.00043186    0.00040735
     atom   52 type  4   force =     0.00007756    0.00010830    0.00008006
     atom   53 type  1   force =     0.00000153    0.00013058    0.00012614
     atom   54 type  1   force =     0.00029142    0.00004520   -0.00042618
     atom   55 type  4   force =    -0.00003781    0.00005695   -0.00009556
     atom   56 type  1   force =     0.00014228   -0.00006690   -0.00005179

     Total force =     1.168654     Total SCF correction =     0.001842


     entering subroutine stress ...

          total   stress  (Ry/bohr**3)                   (kbar)     P=  149.87
   0.00106338   0.00000002   0.00013629        156.43      0.00     20.05
   0.00000002   0.00102222  -0.00000003          0.00    150.37     -0.00
   0.00013629  -0.00000003   0.00097084         20.05     -0.00    142.81

     kinetic stress (kbar)  15110.74      0.00    336.64
                                0.00  15507.13     -0.00
                              336.64     -0.00  15064.91

     local   stress (kbar) -15844.52      0.01   8035.38
                                0.01  -8941.45     -0.01
                             8035.38     -0.01 -11983.60

     nonloc. stress (kbar)   1019.46      0.00     11.42
                                0.00   1029.92     -0.00
                               11.42     -0.00    990.89

     hartree stress (kbar)   7142.18     -0.00  -2935.81
                               -0.00   5093.15      0.01
                            -2935.81      0.01   5663.75

     exc-cor stress (kbar)  -2178.38      0.00    -11.15
                                0.00  -2198.25      0.00
                              -11.15      0.00  -2184.02

     corecor stress (kbar)  -1131.04     -0.00     -2.82
                               -0.00  -1132.94      0.00
                               -2.82      0.00  -1130.76

     ewald   stress (kbar)  -3962.00     -0.00  -5413.60
                               -0.00  -9207.19     -0.00
                            -5413.60     -0.00  -6278.35

     hubbard stress (kbar)      0.00      0.00      0.00
                                0.00      0.00      0.00
                                0.00      0.00      0.00

     london  stress (kbar)      0.00      0.00      0.00
                                0.00      0.00      0.00
                                0.00      0.00      0.00

     XDM     stress (kbar)      0.00      0.00      0.00
                                0.00      0.00      0.00
                                0.00      0.00      0.00

     dft-nl  stress (kbar)      0.00      0.00      0.00
                                0.00      0.00      0.00
                                0.00      0.00      0.00

     TS-vdW  stress (kbar)      0.00      0.00      0.00
                                0.00      0.00      0.00
                                0.00      0.00      0.00



     Writing output data file scf.pbe.ec-100.kp-444.HMX-792930.np-8.300K.save

     init_run     :    500.67s CPU    434.12s WALL (       1 calls)
     electrons    :  16352.81s CPU  13353.06s WALL (       1 calls)
     forces       :    255.04s CPU    209.91s WALL (       1 calls)
     stress       :    681.29s CPU    669.88s WALL (       1 calls)

     Called by init_run:
     wfcinit      :    355.76s CPU    285.76s WALL (       1 calls)
     potinit      :     51.35s CPU     51.79s WALL (       1 calls)

     Called by electrons:
     c_bands      :  14340.49s CPU  11458.18s WALL (      19 calls)
     sum_band     :   1889.69s CPU   1762.31s WALL (      19 calls)
     v_of_rho     :     31.16s CPU     32.35s WALL (      20 calls)
     v_h          :      2.14s CPU      2.23s WALL (      20 calls)
     v_xc         :     32.02s CPU     33.20s WALL (      22 calls)
     newd         :     66.16s CPU     72.38s WALL (      20 calls)
     PAW_pot      :     17.58s CPU     17.86s WALL (      20 calls)
     mix_rho      :      8.28s CPU      9.09s WALL (      19 calls)

     Called by c_bands:
     init_us_2    :     76.93s CPU     77.22s WALL (    1312 calls)
     cegterg      :  14118.27s CPU  11211.60s WALL (     608 calls)

     Called by sum_band:
     sum_band:bec :      0.88s CPU      0.99s WALL (     608 calls)
     addusdens    :     78.11s CPU    105.87s WALL (      19 calls)

     Called by *egterg:
     h_psi        :   8167.99s CPU   7114.72s WALL (    2787 calls)
     s_psi        :   1564.50s CPU    834.70s WALL (    2787 calls)
     g_psi        :     30.09s CPU     30.11s WALL (    2147 calls)
     cdiaghg      :    867.58s CPU    783.58s WALL (    2755 calls)
     cegterg:over :   1638.47s CPU   1085.05s WALL (    2147 calls)
     cegterg:upda :   1047.39s CPU    550.31s WALL (    2147 calls)
     cegterg:last :    512.51s CPU    279.76s WALL (     608 calls)

     Called by h_psi:
     h_psi:vloc   :   4736.22s CPU   5089.86s WALL (    2787 calls)
     h_psi:vnl    :   3375.17s CPU   1967.52s WALL (    2787 calls)
     add_vuspsi   :   1576.67s CPU    851.15s WALL (    2787 calls)

     General routines
     calbec       :   2590.30s CPU   1615.70s WALL (    3555 calls)
     fft          :     28.44s CPU     31.82s WALL (     341 calls)
     ffts         :      0.91s CPU      1.00s WALL (      39 calls)
     fftw         :   4231.77s CPU   4643.26s WALL (  453408 calls)
     interpolate  :      6.88s CPU      7.26s WALL (      39 calls)
     davcio       :      1.23s CPU     56.53s WALL (      32 calls)

     Parallel routines
     fft_scatter  :   1115.49s CPU   1493.12s WALL (  453788 calls)

     PAW routines
     PAW_pot      :     17.58s CPU     17.86s WALL (      20 calls)
     PAW_symme    :      0.03s CPU      0.04s WALL (      39 calls)

     PWSCF        :     4h56m CPU        4h 5m WALL


   This run was terminated on:  12:20:17  25Jun2016            

=------------------------------------------------------------------------------=
   JOB DONE.
=------------------------------------------------------------------------------=
