
     Program PWSCF v.5.3.0 (svn rev. 11974) starts on 25Jun2016 at 12:20:20 

     This program is part of the open-source Quantum ESPRESSO suite
     for quantum simulation of materials; please cite
         "P. Giannozzi et al., J. Phys.:Condens. Matter 21 395502 (2009);
          URL http://www.quantum-espresso.org", 
     in publications or presentations arising from this work. More details at
     http://www.quantum-espresso.org/quote

     Parallel version (MPI), running on     8 processors
     R & G space division:  proc/nbgrp/npool/nimage =       8
     Waiting for input...
     Reading input from standard input
Warning: card    &IONS ignored
Warning: card TRUST_RADIUS_MAX=0.2 ignored
Warning: card / ignored
Warning: card     &CELL ignored
Warning: card CELL_DYNAMICS='BFGS' ignored
Warning: card / ignored

     Current dimensions of program PWSCF are:
     Max number of different atomic species (ntypx) = 10
     Max number of k-points (npk) =  40000
     Max angular momentum in pseudopotentials (lmaxx) =  3
               file N.pbe-n-kjpaw_psl.1.0.0.UPF: wavefunction(s)  2S renormalized
               file C.pbe-n-kjpaw_psl.1.0.0.UPF: wavefunction(s)  2S 2P renormalized
               file H.pbe-kjpaw_psl.1.0.0.UPF: wavefunction(s)  1S renormalized
               file O.pbe-n-kjpaw_psl.1.0.0.UPF: wavefunction(s)  2S 2P renormalized

     Subspace diagonalization in iterative solution of the eigenvalue problem:
     a serial algorithm will be used


     Parallelization info
     --------------------
     sticks:   dense  smooth     PW     G-vecs:    dense   smooth      PW
     Min        3582    1433    375               386088    97670   13189
     Max        3583    1434    376               386091    97699   13192
     Sum       28659   11465   3007              3088717   781495  105525


     Title: 
     HMX-scf--kp-444-ec-140-300K                                                


     bravais-lattice index     =            0
     lattice parameter (alat)  =       1.8897  a.u.
     unit-cell volume          =    3491.9260 (a.u.)^3
     number of atoms/cell      =           56
     number of atomic types    =            4
     number of electrons       =       224.00
     number of Kohn-Sham states=          112
     kinetic-energy cutoff     =     140.0000  Ry
     charge density cutoff     =    1400.0000  Ry
     convergence threshold     =      1.0E-06
     mixing beta               =       0.7000
     number of iterations used =            8  plain     mixing
     Exchange-correlation      =  SLA  PW   PBX  PBC ( 1  4  3  4 0 0)

     celldm(1)=   1.889726  celldm(2)=   0.000000  celldm(3)=   0.000000
     celldm(4)=   0.000000  celldm(5)=   0.000000  celldm(6)=   0.000000

     crystal axes: (cart. coord. in units of alat)
               a(1) = (   6.525500   0.000000   0.000000 )  
               a(2) = (   0.000000  11.036900   0.000000 )  
               a(3) = (  -1.615186   0.000000   7.184683 )  

     reciprocal axes: (cart. coord. in units 2 pi/alat)
               b(1) = (  0.153245 -0.000000  0.034451 )  
               b(2) = (  0.000000  0.090605 -0.000000 )  
               b(3) = (  0.000000  0.000000  0.139185 )  


     PseudoPot. # 1 for  N read from file:
     /users/majewski/.data/PSEUDOPOTENTIALS/N.pbe-n-kjpaw_psl.1.0.0.UPF
     MD5 check sum: c21df8f53e59d08c3548513d559cdda6
     Pseudo is Projector augmented-wave + core cor, Zval =  5.0
     Generated using "atomic" code by A. Dal Corso  v.5.3.0 svn rev. 11974
     Shape of augmentation charge: PSQ
     Using radial grid of 1085 points,  4 beta functions with: 
                l(1) =   0
                l(2) =   0
                l(3) =   1
                l(4) =   1
     Q(r) pseudized with 0 coefficients 


     PseudoPot. # 2 for  C read from file:
     /users/majewski/.data/PSEUDOPOTENTIALS/C.pbe-n-kjpaw_psl.1.0.0.UPF
     MD5 check sum: 2ba8448e293caca687844dde9a1b88a8
     Pseudo is Projector augmented-wave + core cor, Zval =  4.0
     Generated using "atomic" code by A. Dal Corso  v.5.3.0 svn rev. 11974
     Shape of augmentation charge: PSQ
     Using radial grid of 1073 points,  4 beta functions with: 
                l(1) =   0
                l(2) =   0
                l(3) =   1
                l(4) =   1
     Q(r) pseudized with 0 coefficients 


     PseudoPot. # 3 for  H read from file:
     /users/majewski/.data/PSEUDOPOTENTIALS/H.pbe-kjpaw_psl.1.0.0.UPF
     MD5 check sum: bc0feb48a24907a0b97fa6ee2d589a29
     Pseudo is Projector augmented-wave, Zval =  1.0
     Generated using "atomic" code by A. Dal Corso  v.5.3.0 svn rev. 11974
     Shape of augmentation charge: PSQ
     Using radial grid of  929 points,  2 beta functions with: 
                l(1) =   0
                l(2) =   0
     Q(r) pseudized with 0 coefficients 


     PseudoPot. # 4 for  O read from file:
     /users/majewski/.data/PSEUDOPOTENTIALS/O.pbe-n-kjpaw_psl.1.0.0.UPF
     MD5 check sum: 9c0ade6c043cf4a781bde3908a3a8206
     Pseudo is Projector augmented-wave + core cor, Zval =  6.0
     Generated using "atomic" code by A. Dal Corso  v.5.3.0 svn rev. 11974
     Shape of augmentation charge: PSQ
     Using radial grid of 1095 points,  4 beta functions with: 
                l(1) =   0
                l(2) =   0
                l(3) =   1
                l(4) =   1
     Q(r) pseudized with 0 coefficients 


     atomic species   valence    mass     pseudopotential
        N              5.00    14.00670      N( 1.00)
        C              4.00    12.01100      C( 1.00)
        H              1.00     1.00790      H( 1.00)
        O              6.00    15.99940      O( 1.00)

      4 Sym. Ops., with inversion, found ( 2 have fractional translation)


                                    s                        frac. trans.

      isym =  1     identity                                     

 cryst.   s( 1) = (     1          0          0      )
                  (     0          1          0      )
                  (     0          0          1      )

 cart.    s( 1) = (  1.0000000  0.0000000  0.0000000 )
                  (  0.0000000  1.0000000  0.0000000 )
                  (  0.0000000  0.0000000  1.0000000 )


      isym =  2     180 deg rotation - cart. axis [0,1,0]        

 cryst.   s( 2) = (    -1          0          0      )    f =(  0.5000000 )
                  (     0          1          0      )       (  0.5000000 )
                  (     0          0         -1      )       (  0.5000000 )

 cart.    s( 2) = ( -1.0000000  0.0000000 -0.0000000 )    f =(  2.4551571 )
                  (  0.0000000  1.0000000  0.0000000 )       (  5.5184500 )
                  (  0.0000000  0.0000000 -1.0000000 )       (  3.5923415 )


      isym =  3     inversion                                    

 cryst.   s( 3) = (    -1          0          0      )
                  (     0         -1          0      )
                  (     0          0         -1      )

 cart.    s( 3) = ( -1.0000000  0.0000000 -0.0000000 )
                  (  0.0000000 -1.0000000  0.0000000 )
                  (  0.0000000  0.0000000 -1.0000000 )


      isym =  4     inv. 180 deg rotation - cart. axis [0,1,0]   

 cryst.   s( 4) = (     1          0          0      )    f =(  0.5000000 )
                  (     0         -1          0      )       (  0.5000000 )
                  (     0          0          1      )       ( -0.5000000 )

 cart.    s( 4) = (  1.0000000  0.0000000  0.0000000 )    f =(  4.0703429 )
                  (  0.0000000 -1.0000000  0.0000000 )       (  5.5184500 )
                  (  0.0000000  0.0000000  1.0000000 )       ( -3.5923415 )


   Cartesian axes

     site n.     atom                  positions (alat units)
         1           N   tau(   1) = (  -0.8668413   6.8692562   3.3186051  )
         2           O   tau(   2) = (   1.0599706   7.9401666   3.1425804  )
         3           N   tau(   3) = (   0.0533091   7.7556296   3.8208145  )
         4           N   tau(   4) = (  -2.0680987   5.7890748   5.0659200  )
         5           O   tau(   5) = (  -3.2533088   4.7280976   6.6225535  )
         6           N   tau(   6) = (  -3.2451729   5.5281625   5.7010460  )
         7           O   tau(   7) = (  -0.1871403   8.2413636   4.9136048  )
         8           C   tau(   8) = (  -2.1362925   6.7804091   3.9788775  )
         9           H   tau(   9) = (  -2.8191539   6.5194968   3.3415961  )
        10           H   tau(  10) = (  -2.3765906   7.6474680   4.3424225  )
        11           O   tau(  11) = (  -4.2135894   6.1790085   5.3101993  )
        12           C   tau(  12) = (  -0.5998445   6.2495343   2.0325468  )
        13           H   tau(  13) = (  -1.4176786   5.8230684   1.7315086  )
        14           H   tau(  14) = (  -0.3318567   6.8947514   1.3600605  )
        15           H   tau(  15) = (   2.1233004  -1.3763014   4.9524020  )
        16           H   tau(  16) = (   1.0374785  -0.3046184   5.3238502  )
        17           C   tau(  17) = (   1.8553126  -0.7310843   5.6248884  )
        18           O   tau(  18) = (  -1.7584323  -0.6605585   8.9025408  )
        19           H   tau(  19) = (   0.0785665  -2.1290180   7.9347640  )
        20           H   tau(  20) = (  -0.3639967  -1.0010468   6.9339376  )
        21           C   tau(  21) = (   0.3188646  -1.2619591   7.5712190  )
        22           O   tau(  22) = (   2.2680169  -2.7229136   8.5059463  )
        23           N   tau(  23) = (  -0.7900158  -0.0097125   9.2933876  )
        24           O   tau(  24) = (  -0.7981517   0.7903524  10.2148950  )
        25           N   tau(  25) = (   0.3870584  -0.2706248   8.6582616  )
        26           N   tau(  26) = (   2.5084662  -2.2371796   7.4131560  )
        27           O   tau(  27) = (   3.5151277  -2.4217166   6.7349219  )
        28           N   tau(  28) = (   1.5883158  -1.3508062   6.9109467  )
        29           H   tau(  29) = (  -1.2833291   4.1421486   5.8246226  )
        30           H   tau(  30) = (  -0.1975072   5.2138316   5.4531745  )
        31           C   tau(  31) = (  -1.0153413   4.7873657   5.1521362  )
        32           O   tau(  32) = (   2.5984037   4.8578915   1.8744838  )
        33           H   tau(  33) = (   0.7614048   3.3894320   2.8422606  )
        34           H   tau(  34) = (   1.2039681   4.5174032   3.8430870  )
        35           C   tau(  35) = (   0.5211068   4.2564909   3.2058056  )
        36           O   tau(  36) = (  -1.4280455   2.7955364   2.2710783  )
        37           N   tau(  37) = (   1.6299871   5.5087375   1.4836371  )
        38           O   tau(  38) = (   1.6381231   6.3088024   0.5621296  )
        39           N   tau(  39) = (   0.4529129   5.2478252   2.1187630  )
        40           N   tau(  40) = (  -1.6684949   3.2812704   3.3638686  )
        41           O   tau(  41) = (  -2.6751564   3.0967334   4.0421027  )
        42           N   tau(  42) = (  -0.7483445   4.1676438   3.8660780  )
        43           H   tau(  43) = (   1.1718280   1.3763014   9.4169641  )
        44           H   tau(  44) = (   2.2576499   0.3046184   9.0455160  )
        45           C   tau(  45) = (   1.4398158   0.7310843   8.7444778  )
        46           O   tau(  46) = (   5.0535608   0.6605585   5.4668254  )
        47           H   tau(  47) = (   3.2165619   2.1290180   6.4346022  )
        48           H   tau(  48) = (   3.6591252   1.0010468   7.4354285  )
        49           C   tau(  49) = (   2.9762639   1.2619591   6.7981471  )
        50           O   tau(  50) = (   1.0271116   2.7229136   5.8634199  )
        51           N   tau(  51) = (   4.0851442   0.0097125   5.0759786  )
        52           O   tau(  52) = (   4.0932802  -0.7903524   4.1544711  )
        53           N   tau(  53) = (   2.9080700   0.2706248   5.7111046  )
        54           N   tau(  54) = (   0.7866622   2.2371796   6.9562102  )
        55           O   tau(  55) = (  -0.2199993   2.4217166   7.6344442  )
        56           N   tau(  56) = (   1.7068126   1.3508062   7.4584195  )

   Crystallographic axes

     site n.     atom                  positions (cryst. coord.)
         1           N   tau(   1) = ( -0.0185100  0.6223900  0.4619000  )
         2           O   tau(   2) = (  0.2707000  0.7194200  0.4374000  )
         3           N   tau(   3) = (  0.1398000  0.7027000  0.5318000  )
         4           N   tau(   4) = ( -0.1424000  0.5245200  0.7051000  )
         5           O   tau(   5) = ( -0.2704000  0.4283900  0.9217600  )
         6           N   tau(   6) = ( -0.3009000  0.5008800  0.7935000  )
         7           O   tau(   7) = (  0.1406000  0.7467100  0.6839000  )
         8           C   tau(   8) = ( -0.1903000  0.6143400  0.5538000  )
         9           H   tau(   9) = ( -0.3169000  0.5907000  0.4651000  )
        10           H   tau(  10) = ( -0.2146000  0.6929000  0.6044000  )
        11           O   tau(  11) = ( -0.4627700  0.5598500  0.7391000  )
        12           C   tau(  12) = ( -0.0219000  0.5662400  0.2829000  )
        13           H   tau(  13) = ( -0.1576000  0.5276000  0.2410000  )
        14           H   tau(  14) = ( -0.0040000  0.6247000  0.1893000  )
        15           H   tau(  15) = (  0.4960000 -0.1247000  0.6893000  )
        16           H   tau(  16) = (  0.3424000 -0.0276000  0.7410000  )
        17           C   tau(  17) = (  0.4781000 -0.0662400  0.7829000  )
        18           O   tau(  18) = (  0.0372300 -0.0598500  1.2391000  )
        19           H   tau(  19) = (  0.2854000 -0.1929000  1.1044000  )
        20           H   tau(  20) = (  0.1831000 -0.0907000  0.9651000  )
        21           C   tau(  21) = (  0.3097000 -0.1143400  1.0538000  )
        22           O   tau(  22) = (  0.6406000 -0.2467100  1.1839000  )
        23           N   tau(  23) = (  0.1991000 -0.0008800  1.2935000  )
        24           O   tau(  24) = (  0.2296000  0.0716100  1.4217600  )
        25           N   tau(  25) = (  0.3576000 -0.0245200  1.2051000  )
        26           N   tau(  26) = (  0.6398000 -0.2027000  1.0318000  )
        27           O   tau(  27) = (  0.7707000 -0.2194200  0.9374000  )
        28           N   tau(  28) = (  0.4814900 -0.1223900  0.9619000  )
        29           H   tau(  29) = (  0.0040000  0.3753000  0.8107000  )
        30           H   tau(  30) = (  0.1576000  0.4724000  0.7590000  )
        31           C   tau(  31) = (  0.0219000  0.4337600  0.7171000  )
        32           O   tau(  32) = (  0.4627700  0.4401500  0.2609000  )
        33           H   tau(  33) = (  0.2146000  0.3071000  0.3956000  )
        34           H   tau(  34) = (  0.3169000  0.4093000  0.5349000  )
        35           C   tau(  35) = (  0.1903000  0.3856600  0.4462000  )
        36           O   tau(  36) = ( -0.1406000  0.2532900  0.3161000  )
        37           N   tau(  37) = (  0.3009000  0.4991200  0.2065000  )
        38           O   tau(  38) = (  0.2704000  0.5716100  0.0782400  )
        39           N   tau(  39) = (  0.1424000  0.4754800  0.2949000  )
        40           N   tau(  40) = ( -0.1398000  0.2973000  0.4682000  )
        41           O   tau(  41) = ( -0.2707000  0.2805800  0.5626000  )
        42           N   tau(  42) = (  0.0185100  0.3776100  0.5381000  )
        43           H   tau(  43) = (  0.5040000  0.1247000  1.3107000  )
        44           H   tau(  44) = (  0.6576000  0.0276000  1.2590000  )
        45           C   tau(  45) = (  0.5219000  0.0662400  1.2171000  )
        46           O   tau(  46) = (  0.9627700  0.0598500  0.7609000  )
        47           H   tau(  47) = (  0.7146000  0.1929000  0.8956000  )
        48           H   tau(  48) = (  0.8169000  0.0907000  1.0349000  )
        49           C   tau(  49) = (  0.6903000  0.1143400  0.9462000  )
        50           O   tau(  50) = (  0.3594000  0.2467100  0.8161000  )
        51           N   tau(  51) = (  0.8009000  0.0008800  0.7065000  )
        52           O   tau(  52) = (  0.7704000 -0.0716100  0.5782400  )
        53           N   tau(  53) = (  0.6424000  0.0245200  0.7949000  )
        54           N   tau(  54) = (  0.3602000  0.2027000  0.9682000  )
        55           O   tau(  55) = (  0.2293000  0.2194200  1.0626000  )
        56           N   tau(  56) = (  0.5185100  0.1223900  1.0381000  )

     number of k points=    16
                       cart. coord. in units 2pi/alat
        k(    1) = (   0.0191556   0.0113256   0.0217045), wk =   0.1250000
        k(    2) = (   0.0191556   0.0113256   0.0565007), wk =   0.1250000
        k(    3) = (   0.0191556   0.0113256  -0.0478880), wk =   0.1250000
        k(    4) = (   0.0191556   0.0113256  -0.0130918), wk =   0.1250000
        k(    5) = (   0.0191556   0.0339769   0.0217045), wk =   0.1250000
        k(    6) = (   0.0191556   0.0339769   0.0565007), wk =   0.1250000
        k(    7) = (   0.0191556   0.0339769  -0.0478880), wk =   0.1250000
        k(    8) = (   0.0191556   0.0339769  -0.0130918), wk =   0.1250000
        k(    9) = (   0.0574669   0.0113256   0.0303172), wk =   0.1250000
        k(   10) = (   0.0574669   0.0113256   0.0651135), wk =   0.1250000
        k(   11) = (   0.0574669   0.0113256  -0.0392753), wk =   0.1250000
        k(   12) = (   0.0574669   0.0113256  -0.0044790), wk =   0.1250000
        k(   13) = (   0.0574669   0.0339769   0.0303172), wk =   0.1250000
        k(   14) = (   0.0574669   0.0339769   0.0651135), wk =   0.1250000
        k(   15) = (   0.0574669   0.0339769  -0.0392753), wk =   0.1250000
        k(   16) = (   0.0574669   0.0339769  -0.0044790), wk =   0.1250000

                       cryst. coord.
        k(    1) = (   0.1250000   0.1250000   0.1250000), wk =   0.1250000
        k(    2) = (   0.1250000   0.1250000   0.3750000), wk =   0.1250000
        k(    3) = (   0.1250000   0.1250000  -0.3750000), wk =   0.1250000
        k(    4) = (   0.1250000   0.1250000  -0.1250000), wk =   0.1250000
        k(    5) = (   0.1250000   0.3750000   0.1250000), wk =   0.1250000
        k(    6) = (   0.1250000   0.3750000   0.3750000), wk =   0.1250000
        k(    7) = (   0.1250000   0.3750000  -0.3750000), wk =   0.1250000
        k(    8) = (   0.1250000   0.3750000  -0.1250000), wk =   0.1250000
        k(    9) = (   0.3750000   0.1250000   0.1250000), wk =   0.1250000
        k(   10) = (   0.3750000   0.1250000   0.3750000), wk =   0.1250000
        k(   11) = (   0.3750000   0.1250000  -0.3750000), wk =   0.1250000
        k(   12) = (   0.3750000   0.1250000  -0.1250000), wk =   0.1250000
        k(   13) = (   0.3750000   0.3750000   0.1250000), wk =   0.1250000
        k(   14) = (   0.3750000   0.3750000   0.3750000), wk =   0.1250000
        k(   15) = (   0.3750000   0.3750000  -0.3750000), wk =   0.1250000
        k(   16) = (   0.3750000   0.3750000  -0.1250000), wk =   0.1250000

     Dense  grid:  3088717 G-vectors     FFT dimensions: ( 150, 250, 180)

     Smooth grid:   781495 G-vectors     FFT dimensions: (  96, 160, 108)

     Largest allocated arrays     est. size (Mb)     dimensions
        Kohn-Sham Wavefunctions        20.86 Mb     (   12209,  112)
        NL pseudopotentials            65.58 Mb     (   12209,  352)
        Each V/rho on FFT grid         13.16 Mb     (  862500)
        Each G-vector array             2.95 Mb     (  386089)
        G-vector shells                 2.68 Mb     (  351583)
     Largest temporary arrays     est. size (Mb)     dimensions
        Auxiliary wavefunctions        83.46 Mb     (   12209,  448)
        Each subspace H/S matrix        3.06 Mb     (     448,  448)
        Each <psi_i|beta_j> matrix      0.60 Mb     (     352,  112)
        Arrays for rho mixing         105.29 Mb     (  862500,    8)

     Initial potential from superposition of free atoms

     starting charge  223.99937, renormalised to  224.00000
     Starting wfc are  176 randomized atomic wfcs
     Checking if some PAW data can be deallocated... 
       node    0, deallocated PAW data for type:  2
       node    0, deallocated PAW data for type:  3
       node    1, deallocated PAW data for type:  1
       node    2, deallocated PAW data for type:  1
       node    3, deallocated PAW data for type:  2
       node    3, deallocated PAW data for type:  3
       node    4, deallocated PAW data for type:  1
       node    5, deallocated PAW data for type:  2
       node    5, deallocated PAW data for type:  3
       node    6, deallocated PAW data for type:  1
       node    7, deallocated PAW data for type:  2
       node    7, deallocated PAW data for type:  3

     total cpu time spent up to now is      499.6 secs

     per-process dynamical memory:   613.3 Mb

     Self-consistent Calculation

     iteration #  1     ecut=   140.00 Ry     beta=0.70
     Davidson diagonalization with overlap
     ethr =  1.00E-02,  avg # of iterations =  3.0

     total cpu time spent up to now is     1236.2 secs

     total energy              =   -1279.60983515 Ry
     Harris-Foulkes estimate   =   -1283.97621426 Ry
     estimated scf accuracy    <       6.72845701 Ry

     iteration #  2     ecut=   140.00 Ry     beta=0.70
     Davidson diagonalization with overlap
     ethr =  3.00E-03,  avg # of iterations =  4.0

     total cpu time spent up to now is     2061.0 secs

     total energy              =   -1280.29400082 Ry
     Harris-Foulkes estimate   =   -1283.75705948 Ry
     estimated scf accuracy    <       6.95591099 Ry

     iteration #  3     ecut=   140.00 Ry     beta=0.70
     Davidson diagonalization with overlap
     ethr =  3.00E-03,  avg # of iterations =  4.8

     total cpu time spent up to now is     2671.5 secs

     total energy              =   -1281.78857360 Ry
     Harris-Foulkes estimate   =   -1282.01229670 Ry
     estimated scf accuracy    <       0.41306011 Ry

     iteration #  4     ecut=   140.00 Ry     beta=0.70
     Davidson diagonalization with overlap
     ethr =  1.84E-04,  avg # of iterations =  5.0

     total cpu time spent up to now is     3453.3 secs

     total energy              =   -1281.94148604 Ry
     Harris-Foulkes estimate   =   -1282.02488888 Ry
     estimated scf accuracy    <       0.18168983 Ry

     iteration #  5     ecut=   140.00 Ry     beta=0.70
     Davidson diagonalization with overlap
     ethr =  8.11E-05,  avg # of iterations =  4.0

     total cpu time spent up to now is     4090.3 secs

     total energy              =   -1281.97879888 Ry
     Harris-Foulkes estimate   =   -1281.98847267 Ry
     estimated scf accuracy    <       0.02435603 Ry

     iteration #  6     ecut=   140.00 Ry     beta=0.70
     Davidson diagonalization with overlap
     ethr =  1.09E-05,  avg # of iterations =  5.1

     total cpu time spent up to now is     4606.1 secs

     total energy              =   -1281.98035702 Ry
     Harris-Foulkes estimate   =   -1281.98197128 Ry
     estimated scf accuracy    <       0.00450348 Ry

     iteration #  7     ecut=   140.00 Ry     beta=0.70
     Davidson diagonalization with overlap
     ethr =  2.01E-06,  avg # of iterations =  4.9

     total cpu time spent up to now is     5427.8 secs

     total energy              =   -1281.98364239 Ry
     Harris-Foulkes estimate   =   -1281.98488734 Ry
     estimated scf accuracy    <       0.00490714 Ry

     iteration #  8     ecut=   140.00 Ry     beta=0.70
     Davidson diagonalization with overlap
     ethr =  2.01E-06,  avg # of iterations =  1.0

     total cpu time spent up to now is     5870.2 secs

     total energy              =   -1281.98225028 Ry
     Harris-Foulkes estimate   =   -1281.98371386 Ry
     estimated scf accuracy    <       0.00293048 Ry

     iteration #  9     ecut=   140.00 Ry     beta=0.70
     Davidson diagonalization with overlap
     ethr =  1.31E-06,  avg # of iterations =  5.0

     total cpu time spent up to now is     6582.9 secs

     total energy              =   -1281.98392033 Ry
     Harris-Foulkes estimate   =   -1281.98510731 Ry
     estimated scf accuracy    <       0.00610285 Ry

     iteration # 10     ecut=   140.00 Ry     beta=0.70
     Davidson diagonalization with overlap
     ethr =  1.31E-06,  avg # of iterations =  1.0

     total cpu time spent up to now is     7023.8 secs

     total energy              =   -1281.98235056 Ry
     Harris-Foulkes estimate   =   -1281.98395733 Ry
     estimated scf accuracy    <       0.00419325 Ry

     iteration # 11     ecut=   140.00 Ry     beta=0.70
     Davidson diagonalization with overlap
     ethr =  1.31E-06,  avg # of iterations =  5.0

     total cpu time spent up to now is     7684.1 secs

     total energy              =   -1281.98383748 Ry
     Harris-Foulkes estimate   =   -1281.98420988 Ry
     estimated scf accuracy    <       0.00142020 Ry

     iteration # 12     ecut=   140.00 Ry     beta=0.70
     Davidson diagonalization with overlap
     ethr =  6.34E-07,  avg # of iterations =  1.0

     total cpu time spent up to now is     8128.9 secs

     total energy              =   -1281.98352429 Ry
     Harris-Foulkes estimate   =   -1281.98385543 Ry
     estimated scf accuracy    <       0.00082742 Ry

     iteration # 13     ecut=   140.00 Ry     beta=0.70
     Davidson diagonalization with overlap
     ethr =  3.69E-07,  avg # of iterations =  5.0

     total cpu time spent up to now is     8803.9 secs

     total energy              =   -1281.98394040 Ry
     Harris-Foulkes estimate   =   -1281.98405549 Ry
     estimated scf accuracy    <       0.00060401 Ry

     iteration # 14     ecut=   140.00 Ry     beta=0.70
     Davidson diagonalization with overlap
     ethr =  2.70E-07,  avg # of iterations =  1.0

     total cpu time spent up to now is     9264.5 secs

     total energy              =   -1281.98376629 Ry
     Harris-Foulkes estimate   =   -1281.98394405 Ry
     estimated scf accuracy    <       0.00042013 Ry

     iteration # 15     ecut=   140.00 Ry     beta=0.70
     Davidson diagonalization with overlap
     ethr =  1.88E-07,  avg # of iterations =  5.0

     total cpu time spent up to now is     9905.7 secs

     total energy              =   -1281.98396962 Ry
     Harris-Foulkes estimate   =   -1281.98397788 Ry
     estimated scf accuracy    <       0.00020329 Ry

     iteration # 16     ecut=   140.00 Ry     beta=0.70
     Davidson diagonalization with overlap
     ethr =  9.08E-08,  avg # of iterations =  1.0

     total cpu time spent up to now is    10350.0 secs

     total energy              =   -1281.98393352 Ry
     Harris-Foulkes estimate   =   -1281.98397049 Ry
     estimated scf accuracy    <       0.00018911 Ry

     iteration # 17     ecut=   140.00 Ry     beta=0.70
     Davidson diagonalization with overlap
     ethr =  8.44E-08,  avg # of iterations =  1.8

     total cpu time spent up to now is    10800.0 secs

     total energy              =   -1281.98392218 Ry
     Harris-Foulkes estimate   =   -1281.98393614 Ry
     estimated scf accuracy    <       0.00011206 Ry

     iteration # 18     ecut=   140.00 Ry     beta=0.70
     Davidson diagonalization with overlap
     ethr =  5.00E-08,  avg # of iterations =  5.9

     total cpu time spent up to now is    11349.8 secs

     total energy              =   -1281.98393654 Ry
     Harris-Foulkes estimate   =   -1281.98393841 Ry
     estimated scf accuracy    <       0.00000841 Ry

     iteration # 19     ecut=   140.00 Ry     beta=0.70
     Davidson diagonalization with overlap
     ethr =  3.76E-09,  avg # of iterations =  5.6

     total cpu time spent up to now is    11976.4 secs

     End of self-consistent calculation

          k = 0.0192 0.0113 0.0217 ( 97693 PWs)   bands (ev):

   -24.0428 -24.0208 -24.0088 -23.9994 -23.7607 -23.7525 -23.7516 -23.7480
   -19.2682 -19.2627 -19.2564 -19.2442 -18.9533 -18.9528 -18.9495 -18.9483
   -18.3366 -18.3121 -17.3127 -17.2647 -17.1479 -17.1465 -16.1271 -16.1136
   -12.2004 -12.1979 -12.1564 -12.0423 -11.9896 -11.9193 -11.8741 -11.8548
    -8.9539  -8.9155  -8.3719  -8.3372  -7.6459  -7.6095  -7.5346  -7.5325
    -6.9362  -6.8349  -6.6780  -6.6134  -6.5977  -6.4848  -6.4219  -6.3465
    -6.2127  -6.1864  -6.1556  -6.0390  -5.9778  -5.9001  -5.8433  -5.8027
    -5.7461  -5.7248  -5.6282  -5.5931  -5.2037  -5.0929  -5.0164  -4.9993
    -4.5527  -4.5342  -4.5031  -4.4562  -4.3247  -4.2361  -3.9381  -3.9319
    -3.7833  -3.6842  -3.6397  -3.6046  -3.2485  -3.2057  -3.1472  -3.1256
    -0.8632  -0.8599  -0.3826  -0.3813  -0.2828  -0.2302  -0.1684  -0.1486
    -0.0953  -0.0734   0.1031   0.1343   0.1453   0.1740   0.3014   0.3222
     0.3749   0.3937   0.5633   0.6156   0.6996   0.7465   0.7917   0.8218
     0.8412   0.9550   0.9886   1.0524   1.1444   1.2720   1.2995   1.3228

     occupation numbers 
     1.0000   1.0000   1.0000   1.0000   1.0000   1.0000   1.0000   1.0000
     1.0000   1.0000   1.0000   1.0000   1.0000   1.0000   1.0000   1.0000
     1.0000   1.0000   1.0000   1.0000   1.0000   1.0000   1.0000   1.0000
     1.0000   1.0000   1.0000   1.0000   1.0000   1.0000   1.0000   1.0000
     1.0000   1.0000   1.0000   1.0000   1.0000   1.0000   1.0000   1.0000
     1.0000   1.0000   1.0000   1.0000   1.0000   1.0000   1.0000   1.0000
     1.0000   1.0000   1.0000   1.0000   1.0000   1.0000   1.0000   1.0000
     1.0000   1.0000   1.0000   1.0000   1.0000   1.0000   1.0000   1.0000
     1.0000   1.0000   1.0000   1.0000   1.0000   1.0000   1.0000   1.0000
     1.0000   1.0000   1.0000   1.0000   1.0000   1.0000   1.0000   1.0000
     1.0000   1.0000   1.0000   1.0000   1.0000   1.0000   1.0000   1.0000
     1.0000   1.0000   1.0000   1.0000   1.0000   1.0000   1.0000   1.0000
     1.0000   1.0000   1.0000   1.0000   1.0000   1.0000   1.0000   1.0000
     1.0000   1.0000   1.0000   1.0000   1.0000   1.0000   1.0000   1.0000

          k = 0.0192 0.0113 0.0565 ( 97733 PWs)   bands (ev):

   -24.0350 -24.0263 -24.0052 -24.0041 -23.7625 -23.7596 -23.7482 -23.7438
   -19.2665 -19.2618 -19.2570 -19.2476 -18.9587 -18.9580 -18.9451 -18.9432
   -18.3254 -18.3254 -17.2898 -17.2875 -17.1436 -17.1413 -16.1224 -16.1212
   -12.2093 -12.2085 -12.1026 -12.0839 -11.9483 -11.9411 -11.8818 -11.8746
    -8.9344  -8.9003  -8.3542  -8.3309  -7.6591  -7.6135  -7.5165  -7.4454
    -6.9819  -6.8606  -6.6686  -6.6422  -6.6255  -6.5058  -6.4447  -6.4186
    -6.2733  -6.2449  -6.0442  -5.9981  -5.9763  -5.9048  -5.8796  -5.8430
    -5.8051  -5.7503  -5.5521  -5.5117  -5.2073  -5.1298  -5.0112  -4.9749
    -4.5046  -4.4965  -4.4633  -4.3743  -4.2505  -4.2297  -4.0495  -4.0428
    -3.7717  -3.7284  -3.5787  -3.5692  -3.2684  -3.2621  -3.1306  -3.1061
    -0.8301  -0.7987  -0.3955  -0.3869  -0.2896  -0.2514  -0.2045  -0.1778
    -0.1463  -0.1102   0.0029   0.0604   0.1690   0.2147   0.2704   0.2827
     0.4835   0.5392   0.5848   0.6239   0.7045   0.7245   0.7531   0.8035
     0.9142   0.9530   1.0219   1.0462   1.1566   1.2232   1.3044   1.3268

     occupation numbers 
     1.0000   1.0000   1.0000   1.0000   1.0000   1.0000   1.0000   1.0000
     1.0000   1.0000   1.0000   1.0000   1.0000   1.0000   1.0000   1.0000
     1.0000   1.0000   1.0000   1.0000   1.0000   1.0000   1.0000   1.0000
     1.0000   1.0000   1.0000   1.0000   1.0000   1.0000   1.0000   1.0000
     1.0000   1.0000   1.0000   1.0000   1.0000   1.0000   1.0000   1.0000
     1.0000   1.0000   1.0000   1.0000   1.0000   1.0000   1.0000   1.0000
     1.0000   1.0000   1.0000   1.0000   1.0000   1.0000   1.0000   1.0000
     1.0000   1.0000   1.0000   1.0000   1.0000   1.0000   1.0000   1.0000
     1.0000   1.0000   1.0000   1.0000   1.0000   1.0000   1.0000   1.0000
     1.0000   1.0000   1.0000   1.0000   1.0000   1.0000   1.0000   1.0000
     1.0000   1.0000   1.0000   1.0000   1.0000   1.0000   1.0000   1.0000
     1.0000   1.0000   1.0000   1.0000   1.0000   1.0000   1.0000   1.0000
     1.0000   1.0000   1.0000   1.0000   1.0000   1.0000   1.0000   1.0000
     1.0000   1.0000   1.0000   1.0000   1.0000   1.0000   1.0000   1.0000

          k = 0.0192 0.0113-0.0479 ( 97676 PWs)   bands (ev):

   -24.0360 -24.0256 -24.0088 -24.0001 -23.7640 -23.7611 -23.7451 -23.7438
   -19.2641 -19.2627 -19.2535 -19.2526 -18.9601 -18.9598 -18.9432 -18.9416
   -18.3369 -18.3126 -17.3108 -17.2663 -17.1463 -17.1440 -16.1264 -16.1111
   -12.2151 -12.2083 -12.1382 -12.0506 -11.9807 -11.9050 -11.8871 -11.8716
    -8.9439  -8.8630  -8.3422  -8.3396  -7.6547  -7.6398  -7.5296  -7.4193
    -6.9906  -6.8858  -6.6690  -6.6404  -6.5805  -6.5581  -6.4610  -6.4268
    -6.2925  -6.2653  -6.0508  -6.0225  -5.9016  -5.8720  -5.8673  -5.8575
    -5.8066  -5.7397  -5.5538  -5.5064  -5.2008  -5.1294  -4.9979  -4.9706
    -4.5375  -4.4710  -4.4362  -4.3765  -4.2924  -4.2314  -4.0516  -4.0085
    -3.7809  -3.7272  -3.6309  -3.5538  -3.2732  -3.2526  -3.1215  -3.1158
    -0.7680  -0.7100  -0.3860  -0.3781  -0.3358  -0.3084  -0.2401  -0.2168
    -0.1609  -0.1550  -0.0372   0.0450   0.1835   0.2182   0.2299   0.2775
     0.5186   0.6062   0.6246   0.6380   0.6703   0.7633   0.7734   0.7873
     0.9069   0.9603   1.0360   1.0866   1.1635   1.1897   1.2918   1.3108

     occupation numbers 
     1.0000   1.0000   1.0000   1.0000   1.0000   1.0000   1.0000   1.0000
     1.0000   1.0000   1.0000   1.0000   1.0000   1.0000   1.0000   1.0000
     1.0000   1.0000   1.0000   1.0000   1.0000   1.0000   1.0000   1.0000
     1.0000   1.0000   1.0000   1.0000   1.0000   1.0000   1.0000   1.0000
     1.0000   1.0000   1.0000   1.0000   1.0000   1.0000   1.0000   1.0000
     1.0000   1.0000   1.0000   1.0000   1.0000   1.0000   1.0000   1.0000
     1.0000   1.0000   1.0000   1.0000   1.0000   1.0000   1.0000   1.0000
     1.0000   1.0000   1.0000   1.0000   1.0000   1.0000   1.0000   1.0000
     1.0000   1.0000   1.0000   1.0000   1.0000   1.0000   1.0000   1.0000
     1.0000   1.0000   1.0000   1.0000   1.0000   1.0000   1.0000   1.0000
     1.0000   1.0000   1.0000   1.0000   1.0000   1.0000   1.0000   1.0000
     1.0000   1.0000   1.0000   1.0000   1.0000   1.0000   1.0000   1.0000
     1.0000   1.0000   1.0000   1.0000   1.0000   1.0000   1.0000   1.0000
     1.0000   1.0000   1.0000   1.0000   1.0000   1.0000   1.0000   1.0000

          k = 0.0192 0.0113-0.0131 ( 97664 PWs)   bands (ev):

   -24.0433 -24.0209 -24.0100 -23.9977 -23.7632 -23.7553 -23.7479 -23.7463
   -19.2671 -19.2615 -19.2565 -19.2465 -18.9566 -18.9566 -18.9453 -18.9452
   -18.3411 -18.3064 -17.3213 -17.2558 -17.1501 -17.1498 -16.1275 -16.1071
   -12.2072 -12.1989 -12.1672 -12.0431 -11.9888 -11.9107 -11.8706 -11.8548
    -8.9648  -8.8768  -8.3660  -8.3402  -7.6504  -7.6318  -7.5673  -7.4837
    -6.9053  -6.8926  -6.6793  -6.5995  -6.5876  -6.5307  -6.4312  -6.3621
    -6.2583  -6.2204  -6.0909  -6.0446  -5.9406  -5.8926  -5.8254  -5.8003
    -5.7584  -5.7160  -5.6063  -5.5962  -5.1705  -5.1276  -5.0155  -4.9695
    -4.5515  -4.5262  -4.4973  -4.4780  -4.3283  -4.2467  -3.9419  -3.8853
    -3.8228  -3.6910  -3.6535  -3.6052  -3.2526  -3.2034  -3.1409  -3.1299
    -0.8181  -0.7944  -0.3744  -0.3690  -0.2826  -0.2488  -0.1745  -0.1625
    -0.1500  -0.1141  -0.0088   0.0534   0.1189   0.1910   0.2484   0.3133
     0.4944   0.5340   0.5548   0.6418   0.6883   0.7517   0.8047   0.8189
     0.8512   0.9348   1.0150   1.0805   1.1438   1.2556   1.2863   1.3068

     occupation numbers 
     1.0000   1.0000   1.0000   1.0000   1.0000   1.0000   1.0000   1.0000
     1.0000   1.0000   1.0000   1.0000   1.0000   1.0000   1.0000   1.0000
     1.0000   1.0000   1.0000   1.0000   1.0000   1.0000   1.0000   1.0000
     1.0000   1.0000   1.0000   1.0000   1.0000   1.0000   1.0000   1.0000
     1.0000   1.0000   1.0000   1.0000   1.0000   1.0000   1.0000   1.0000
     1.0000   1.0000   1.0000   1.0000   1.0000   1.0000   1.0000   1.0000
     1.0000   1.0000   1.0000   1.0000   1.0000   1.0000   1.0000   1.0000
     1.0000   1.0000   1.0000   1.0000   1.0000   1.0000   1.0000   1.0000
     1.0000   1.0000   1.0000   1.0000   1.0000   1.0000   1.0000   1.0000
     1.0000   1.0000   1.0000   1.0000   1.0000   1.0000   1.0000   1.0000
     1.0000   1.0000   1.0000   1.0000   1.0000   1.0000   1.0000   1.0000
     1.0000   1.0000   1.0000   1.0000   1.0000   1.0000   1.0000   1.0000
     1.0000   1.0000   1.0000   1.0000   1.0000   1.0000   1.0000   1.0000
     1.0000   1.0000   1.0000   1.0000   1.0000   1.0000   1.0000   1.0000

          k = 0.0192 0.0340 0.0217 ( 97682 PWs)   bands (ev):

   -24.0376 -24.0292 -24.0043 -24.0011 -23.7573 -23.7534 -23.7514 -23.7503
   -19.2678 -19.2661 -19.2510 -19.2465 -18.9532 -18.9530 -18.9491 -18.9486
   -18.3297 -18.3195 -17.2985 -17.2787 -17.1475 -17.1468 -16.1231 -16.1175
   -12.1999 -12.1990 -12.1329 -12.0915 -11.9525 -11.9289 -11.8690 -11.8608
    -8.9435  -8.9275  -8.3625  -8.3481  -7.6385  -7.6229  -7.5277  -7.5266
    -6.9130  -6.8680  -6.6325  -6.6082  -6.6008  -6.5355  -6.3998  -6.3753
    -6.2225  -6.2058  -6.0868  -6.0488  -5.9801  -5.9446  -5.8439  -5.8302
    -5.7135  -5.7015  -5.6101  -5.5927  -5.1623  -5.0997  -5.0518  -5.0306
    -4.5572  -4.5489  -4.4644  -4.4440  -4.3139  -4.2689  -3.9314  -3.9266
    -3.7584  -3.7137  -3.6302  -3.6119  -3.2398  -3.2231  -3.1366  -3.1288
    -0.8592  -0.8574  -0.3748  -0.3693  -0.2934  -0.2588  -0.1896  -0.1827
    -0.0642  -0.0569   0.1258   0.1360   0.1656   0.1724   0.3244   0.3291
     0.3527   0.3707   0.5779   0.6040   0.6855   0.7025   0.8088   0.8286
     0.8809   0.9270   1.0156   1.0403   1.1783   1.2298   1.3102   1.3179

     occupation numbers 
     1.0000   1.0000   1.0000   1.0000   1.0000   1.0000   1.0000   1.0000
     1.0000   1.0000   1.0000   1.0000   1.0000   1.0000   1.0000   1.0000
     1.0000   1.0000   1.0000   1.0000   1.0000   1.0000   1.0000   1.0000
     1.0000   1.0000   1.0000   1.0000   1.0000   1.0000   1.0000   1.0000
     1.0000   1.0000   1.0000   1.0000   1.0000   1.0000   1.0000   1.0000
     1.0000   1.0000   1.0000   1.0000   1.0000   1.0000   1.0000   1.0000
     1.0000   1.0000   1.0000   1.0000   1.0000   1.0000   1.0000   1.0000
     1.0000   1.0000   1.0000   1.0000   1.0000   1.0000   1.0000   1.0000
     1.0000   1.0000   1.0000   1.0000   1.0000   1.0000   1.0000   1.0000
     1.0000   1.0000   1.0000   1.0000   1.0000   1.0000   1.0000   1.0000
     1.0000   1.0000   1.0000   1.0000   1.0000   1.0000   1.0000   1.0000
     1.0000   1.0000   1.0000   1.0000   1.0000   1.0000   1.0000   1.0000
     1.0000   1.0000   1.0000   1.0000   1.0000   1.0000   1.0000   1.0000
     1.0000   1.0000   1.0000   1.0000   1.0000   1.0000   1.0000   1.0000

          k = 0.0192 0.0340 0.0565 ( 97685 PWs)   bands (ev):

   -24.0322 -24.0285 -24.0053 -24.0048 -23.7611 -23.7599 -23.7474 -23.7456
   -19.2663 -19.2649 -19.2525 -19.2491 -18.9584 -18.9582 -18.9445 -18.9437
   -18.3254 -18.3254 -17.2894 -17.2884 -17.1426 -17.1417 -16.1221 -16.1216
   -12.2087 -12.2083 -12.0996 -12.0918 -11.9422 -11.9384 -11.8821 -11.8789
    -8.9246  -8.9104  -8.3478  -8.3381  -7.6443  -7.6257  -7.4958  -7.4671
    -6.9618  -6.9167  -6.6591  -6.6504  -6.5701  -6.5212  -6.4572  -6.4387
    -6.2292  -6.2035  -6.0678  -6.0248  -5.9522  -5.9206  -5.8793  -5.8632
    -5.7899  -5.7575  -5.5558  -5.5369  -5.1468  -5.0956  -5.0573  -5.0224
    -4.4851  -4.4713  -4.4460  -4.4046  -4.2537  -4.2433  -4.0461  -4.0436
    -3.7532  -3.7342  -3.5795  -3.5742  -3.2630  -3.2593  -3.1294  -3.1180
    -0.8200  -0.8071  -0.3889  -0.3816  -0.2989  -0.2712  -0.2147  -0.1979
    -0.1221  -0.1062   0.0477   0.0674   0.1724   0.1945   0.2640   0.2753
     0.4985   0.5236   0.5952   0.6138   0.7114   0.7222   0.7580   0.7891
     0.9191   0.9389   1.0331   1.0428   1.1785   1.2056   1.3103   1.3195

     occupation numbers 
     1.0000   1.0000   1.0000   1.0000   1.0000   1.0000   1.0000   1.0000
     1.0000   1.0000   1.0000   1.0000   1.0000   1.0000   1.0000   1.0000
     1.0000   1.0000   1.0000   1.0000   1.0000   1.0000   1.0000   1.0000
     1.0000   1.0000   1.0000   1.0000   1.0000   1.0000   1.0000   1.0000
     1.0000   1.0000   1.0000   1.0000   1.0000   1.0000   1.0000   1.0000
     1.0000   1.0000   1.0000   1.0000   1.0000   1.0000   1.0000   1.0000
     1.0000   1.0000   1.0000   1.0000   1.0000   1.0000   1.0000   1.0000
     1.0000   1.0000   1.0000   1.0000   1.0000   1.0000   1.0000   1.0000
     1.0000   1.0000   1.0000   1.0000   1.0000   1.0000   1.0000   1.0000
     1.0000   1.0000   1.0000   1.0000   1.0000   1.0000   1.0000   1.0000
     1.0000   1.0000   1.0000   1.0000   1.0000   1.0000   1.0000   1.0000
     1.0000   1.0000   1.0000   1.0000   1.0000   1.0000   1.0000   1.0000
     1.0000   1.0000   1.0000   1.0000   1.0000   1.0000   1.0000   1.0000
     1.0000   1.0000   1.0000   1.0000   1.0000   1.0000   1.0000   1.0000

          k = 0.0192 0.0340-0.0479 ( 97662 PWs)   bands (ev):

   -24.0331 -24.0288 -24.0062 -24.0026 -23.7627 -23.7615 -23.7451 -23.7445
   -19.2646 -19.2640 -19.2523 -19.2520 -18.9600 -18.9599 -18.9428 -18.9421
   -18.3300 -18.3199 -17.2977 -17.2793 -17.1455 -17.1446 -16.1218 -16.1155
   -12.2132 -12.2102 -12.1205 -12.0879 -11.9471 -11.9196 -11.8822 -11.8757
    -8.9212  -8.8877  -8.3427  -8.3412  -7.6471  -7.6419  -7.5000  -7.4534
    -6.9589  -6.9150  -6.6714  -6.6494  -6.5692  -6.5578  -6.4879  -6.4680
    -6.2102  -6.1955  -6.0839  -6.0601  -5.8980  -5.8865  -5.8714  -5.8530
    -5.7901  -5.7581  -5.5459  -5.5209  -5.1770  -5.1268  -5.0206  -4.9877
    -4.5241  -4.4961  -4.3989  -4.3757  -4.2830  -4.2566  -4.0387  -4.0208
    -3.7581  -3.7353  -3.6098  -3.5775  -3.2629  -3.2527  -3.1270  -3.1254
    -0.7518  -0.7281  -0.3854  -0.3814  -0.3087  -0.2926  -0.2645  -0.2398
    -0.1747  -0.1658   0.0137   0.0451   0.1843   0.2000   0.2418   0.2668
     0.5446   0.5791   0.6417   0.6548   0.6706   0.7164   0.7814   0.7878
     0.9217   0.9396   1.0586   1.0775   1.1692   1.1806   1.2972   1.3053

     occupation numbers 
     1.0000   1.0000   1.0000   1.0000   1.0000   1.0000   1.0000   1.0000
     1.0000   1.0000   1.0000   1.0000   1.0000   1.0000   1.0000   1.0000
     1.0000   1.0000   1.0000   1.0000   1.0000   1.0000   1.0000   1.0000
     1.0000   1.0000   1.0000   1.0000   1.0000   1.0000   1.0000   1.0000
     1.0000   1.0000   1.0000   1.0000   1.0000   1.0000   1.0000   1.0000
     1.0000   1.0000   1.0000   1.0000   1.0000   1.0000   1.0000   1.0000
     1.0000   1.0000   1.0000   1.0000   1.0000   1.0000   1.0000   1.0000
     1.0000   1.0000   1.0000   1.0000   1.0000   1.0000   1.0000   1.0000
     1.0000   1.0000   1.0000   1.0000   1.0000   1.0000   1.0000   1.0000
     1.0000   1.0000   1.0000   1.0000   1.0000   1.0000   1.0000   1.0000
     1.0000   1.0000   1.0000   1.0000   1.0000   1.0000   1.0000   1.0000
     1.0000   1.0000   1.0000   1.0000   1.0000   1.0000   1.0000   1.0000
     1.0000   1.0000   1.0000   1.0000   1.0000   1.0000   1.0000   1.0000
     1.0000   1.0000   1.0000   1.0000   1.0000   1.0000   1.0000   1.0000

          k = 0.0192 0.0340-0.0131 ( 97647 PWs)   bands (ev):

   -24.0382 -24.0297 -24.0043 -24.0000 -23.7603 -23.7570 -23.7478 -23.7473
   -19.2667 -19.2651 -19.2516 -19.2481 -18.9566 -18.9566 -18.9453 -18.9452
   -18.3313 -18.3170 -17.3017 -17.2746 -17.1502 -17.1501 -16.1213 -16.1129
   -12.2050 -12.2019 -12.1417 -12.0970 -11.9478 -11.9219 -11.8662 -11.8594
    -8.9407  -8.9043  -8.3598  -8.3492  -7.6457  -7.6370  -7.5395  -7.5061
    -6.8826  -6.8697  -6.6664  -6.6238  -6.5917  -6.5603  -6.4474  -6.4162
    -6.2018  -6.1833  -6.0970  -6.0686  -5.9377  -5.9137  -5.8271  -5.8223
    -5.7169  -5.7041  -5.5968  -5.5888  -5.1690  -5.1422  -5.0158  -4.9918
    -4.5619  -4.5539  -4.4652  -4.4451  -4.3217  -4.2785  -3.9234  -3.9002
    -3.7761  -3.7200  -3.6424  -3.6211  -3.2423  -3.2225  -3.1350  -3.1310
    -0.8082  -0.7983  -0.3662  -0.3606  -0.2932  -0.2604  -0.1912  -0.1823
    -0.1466  -0.1260   0.0234   0.0523   0.1394   0.1723   0.2815   0.3095
     0.5044   0.5272   0.5716   0.6226   0.6704   0.7045   0.8209   0.8229
     0.8866   0.9181   1.0440   1.0703   1.1683   1.2151   1.2959   1.3022

     occupation numbers 
     1.0000   1.0000   1.0000   1.0000   1.0000   1.0000   1.0000   1.0000
     1.0000   1.0000   1.0000   1.0000   1.0000   1.0000   1.0000   1.0000
     1.0000   1.0000   1.0000   1.0000   1.0000   1.0000   1.0000   1.0000
     1.0000   1.0000   1.0000   1.0000   1.0000   1.0000   1.0000   1.0000
     1.0000   1.0000   1.0000   1.0000   1.0000   1.0000   1.0000   1.0000
     1.0000   1.0000   1.0000   1.0000   1.0000   1.0000   1.0000   1.0000
     1.0000   1.0000   1.0000   1.0000   1.0000   1.0000   1.0000   1.0000
     1.0000   1.0000   1.0000   1.0000   1.0000   1.0000   1.0000   1.0000
     1.0000   1.0000   1.0000   1.0000   1.0000   1.0000   1.0000   1.0000
     1.0000   1.0000   1.0000   1.0000   1.0000   1.0000   1.0000   1.0000
     1.0000   1.0000   1.0000   1.0000   1.0000   1.0000   1.0000   1.0000
     1.0000   1.0000   1.0000   1.0000   1.0000   1.0000   1.0000   1.0000
     1.0000   1.0000   1.0000   1.0000   1.0000   1.0000   1.0000   1.0000
     1.0000   1.0000   1.0000   1.0000   1.0000   1.0000   1.0000   1.0000

          k = 0.0575 0.0113 0.0303 ( 97675 PWs)   bands (ev):

   -24.0325 -24.0232 -24.0058 -24.0052 -23.7594 -23.7568 -23.7527 -23.7480
   -19.2662 -19.2620 -19.2577 -19.2484 -18.9561 -18.9551 -18.9476 -18.9460
   -18.3313 -18.3312 -17.2869 -17.2849 -17.1490 -17.1472 -16.1227 -16.1213
   -12.1986 -12.1974 -12.0769 -12.0576 -11.9214 -11.9111 -11.8800 -11.8681
    -8.9531  -8.9214  -8.3716  -8.3504  -7.6396  -7.6195  -7.5965  -7.5462
    -7.0560  -6.9840  -6.7379  -6.6177  -6.5612  -6.5213  -6.3408  -6.3044
    -6.2797  -6.2318  -6.1030  -6.0349  -5.9745  -5.9244  -5.8503  -5.8305
    -5.7399  -5.6932  -5.6260  -5.6132  -5.2228  -5.1150  -4.9992  -4.9898
    -4.5321  -4.5127  -4.4659  -4.4085  -4.1478  -4.0954  -3.8905  -3.8726
    -3.8223  -3.7426  -3.6854  -3.6784  -3.2428  -3.2348  -3.1475  -3.1189
    -0.8210  -0.8084  -0.3642  -0.3624  -0.2724  -0.2544  -0.1901  -0.1619
    -0.1372  -0.1080   0.0430   0.0574   0.1390   0.1524   0.2781   0.3020
     0.5135   0.5198   0.5824   0.6346   0.7139   0.7218   0.7899   0.8063
     0.8618   0.9117   0.9422   0.9878   1.2183   1.2461   1.2875   1.3231

     occupation numbers 
     1.0000   1.0000   1.0000   1.0000   1.0000   1.0000   1.0000   1.0000
     1.0000   1.0000   1.0000   1.0000   1.0000   1.0000   1.0000   1.0000
     1.0000   1.0000   1.0000   1.0000   1.0000   1.0000   1.0000   1.0000
     1.0000   1.0000   1.0000   1.0000   1.0000   1.0000   1.0000   1.0000
     1.0000   1.0000   1.0000   1.0000   1.0000   1.0000   1.0000   1.0000
     1.0000   1.0000   1.0000   1.0000   1.0000   1.0000   1.0000   1.0000
     1.0000   1.0000   1.0000   1.0000   1.0000   1.0000   1.0000   1.0000
     1.0000   1.0000   1.0000   1.0000   1.0000   1.0000   1.0000   1.0000
     1.0000   1.0000   1.0000   1.0000   1.0000   1.0000   1.0000   1.0000
     1.0000   1.0000   1.0000   1.0000   1.0000   1.0000   1.0000   1.0000
     1.0000   1.0000   1.0000   1.0000   1.0000   1.0000   1.0000   1.0000
     1.0000   1.0000   1.0000   1.0000   1.0000   1.0000   1.0000   1.0000
     1.0000   1.0000   1.0000   1.0000   1.0000   1.0000   1.0000   1.0000
     1.0000   1.0000   1.0000   1.0000   1.0000   1.0000   1.0000   1.0000

          k = 0.0575 0.0113 0.0651 ( 97692 PWs)   bands (ev):

   -24.0285 -24.0259 -24.0095 -24.0016 -23.7590 -23.7586 -23.7548 -23.7457
   -19.2668 -19.2635 -19.2582 -19.2472 -18.9655 -18.9635 -18.9405 -18.9367
   -18.3459 -18.3216 -17.3064 -17.2641 -17.1395 -17.1358 -16.1379 -16.1204
   -12.2090 -12.2071 -12.1050 -12.0288 -11.9273 -11.8859 -11.8784 -11.8724
    -8.9957  -8.8777  -8.3666  -8.3321  -7.6465  -7.6225  -7.5597  -7.4374
    -7.1530  -6.9335  -6.7445  -6.5882  -6.5781  -6.5075  -6.4829  -6.3930
    -6.3339  -6.2567  -6.0676  -6.0438  -5.9967  -5.9503  -5.8816  -5.8289
    -5.7203  -5.6634  -5.5804  -5.5138  -5.2323  -5.0737  -5.0606  -5.0054
    -4.4821  -4.4673  -4.4117  -4.3621  -4.1054  -4.0571  -3.9883  -3.9472
    -3.8539  -3.7700  -3.6979  -3.6126  -3.2789  -3.2571  -3.1416  -3.0887
    -0.8941  -0.8540  -0.3704  -0.3396  -0.2765  -0.2454  -0.1864  -0.1478
    -0.1025  -0.0678   0.1075   0.1395   0.1575   0.1792   0.2459   0.3361
     0.4292   0.4519   0.4919   0.6064   0.7023   0.7320   0.7722   0.8022
     0.8972   0.9386   0.9530   0.9806   1.2328   1.2675   1.2899   1.3320

     occupation numbers 
     1.0000   1.0000   1.0000   1.0000   1.0000   1.0000   1.0000   1.0000
     1.0000   1.0000   1.0000   1.0000   1.0000   1.0000   1.0000   1.0000
     1.0000   1.0000   1.0000   1.0000   1.0000   1.0000   1.0000   1.0000
     1.0000   1.0000   1.0000   1.0000   1.0000   1.0000   1.0000   1.0000
     1.0000   1.0000   1.0000   1.0000   1.0000   1.0000   1.0000   1.0000
     1.0000   1.0000   1.0000   1.0000   1.0000   1.0000   1.0000   1.0000
     1.0000   1.0000   1.0000   1.0000   1.0000   1.0000   1.0000   1.0000
     1.0000   1.0000   1.0000   1.0000   1.0000   1.0000   1.0000   1.0000
     1.0000   1.0000   1.0000   1.0000   1.0000   1.0000   1.0000   1.0000
     1.0000   1.0000   1.0000   1.0000   1.0000   1.0000   1.0000   1.0000
     1.0000   1.0000   1.0000   1.0000   1.0000   1.0000   1.0000   1.0000
     1.0000   1.0000   1.0000   1.0000   1.0000   1.0000   1.0000   1.0000
     1.0000   1.0000   1.0000   1.0000   1.0000   1.0000   1.0000   1.0000
     1.0000   1.0000   1.0000   1.0000   1.0000   1.0000   1.0000   1.0000

          k = 0.0575 0.0113-0.0393 ( 97667 PWs)   bands (ev):

   -24.0302 -24.0246 -24.0111 -23.9996 -23.7619 -23.7608 -23.7507 -23.7446
   -19.2649 -19.2626 -19.2584 -19.2499 -18.9664 -18.9645 -18.9394 -18.9357
   -18.3503 -18.3160 -17.3160 -17.2541 -17.1422 -17.1388 -16.1377 -16.1144
   -12.2107 -12.2089 -12.1290 -12.0085 -11.9427 -11.8879 -11.8806 -11.8522
    -8.9914  -8.8544  -8.3611  -8.3337  -7.6422  -7.6312  -7.5797  -7.4248
    -7.1698  -6.9367  -6.7309  -6.6045  -6.5766  -6.5506  -6.4760  -6.4150
    -6.3396  -6.2720  -6.0559  -5.9969  -5.9765  -5.9539  -5.8830  -5.8442
    -5.6963  -5.6601  -5.5874  -5.5119  -5.2226  -5.0962  -5.0347  -4.9941
    -4.4870  -4.4466  -4.4057  -4.3826  -4.1207  -4.0862  -3.9410  -3.9357
    -3.8029  -3.7940  -3.7611  -3.6217  -3.2835  -3.2521  -3.1365  -3.0942
    -0.8529  -0.7920  -0.3640  -0.3177  -0.2872  -0.2644  -0.1910  -0.1644
    -0.1587  -0.1218   0.0389   0.1174   0.1546   0.1990   0.2150   0.2380
     0.4732   0.5534   0.5780   0.5927   0.6999   0.7259   0.7909   0.8157
     0.8897   0.9188   0.9736   1.0340   1.2507   1.2652   1.2698   1.2940

     occupation numbers 
     1.0000   1.0000   1.0000   1.0000   1.0000   1.0000   1.0000   1.0000
     1.0000   1.0000   1.0000   1.0000   1.0000   1.0000   1.0000   1.0000
     1.0000   1.0000   1.0000   1.0000   1.0000   1.0000   1.0000   1.0000
     1.0000   1.0000   1.0000   1.0000   1.0000   1.0000   1.0000   1.0000
     1.0000   1.0000   1.0000   1.0000   1.0000   1.0000   1.0000   1.0000
     1.0000   1.0000   1.0000   1.0000   1.0000   1.0000   1.0000   1.0000
     1.0000   1.0000   1.0000   1.0000   1.0000   1.0000   1.0000   1.0000
     1.0000   1.0000   1.0000   1.0000   1.0000   1.0000   1.0000   1.0000
     1.0000   1.0000   1.0000   1.0000   1.0000   1.0000   1.0000   1.0000
     1.0000   1.0000   1.0000   1.0000   1.0000   1.0000   1.0000   1.0000
     1.0000   1.0000   1.0000   1.0000   1.0000   1.0000   1.0000   1.0000
     1.0000   1.0000   1.0000   1.0000   1.0000   1.0000   1.0000   1.0000
     1.0000   1.0000   1.0000   1.0000   1.0000   1.0000   1.0000   1.0000
     1.0000   1.0000   1.0000   1.0000   1.0000   1.0000   1.0000   1.0000

          k = 0.0575 0.0113-0.0045 ( 97700 PWs)   bands (ev):

   -24.0333 -24.0228 -24.0095 -24.0010 -23.7622 -23.7589 -23.7487 -23.7470
   -19.2640 -19.2625 -19.2544 -19.2536 -18.9584 -18.9577 -18.9449 -18.9436
   -18.3428 -18.3184 -17.3084 -17.2629 -17.1513 -17.1506 -16.1267 -16.1112
   -12.2004 -12.1989 -12.1176 -12.0193 -11.9498 -11.8978 -11.8706 -11.8631
    -8.9630  -8.8835  -8.3607  -8.3577  -7.6395  -7.6294  -7.6238  -7.5234
    -7.0700  -6.9837  -6.6936  -6.6709  -6.5556  -6.5532  -6.3741  -6.3408
    -6.2637  -6.2587  -6.0441  -6.0147  -5.9384  -5.9049  -5.8667  -5.8563
    -5.7123  -5.7028  -5.6247  -5.6120  -5.1824  -5.1644  -4.9815  -4.9698
    -4.5339  -4.5102  -4.4515  -4.4254  -4.1460  -4.1205  -3.8599  -3.8546
    -3.7964  -3.7770  -3.7265  -3.6856  -3.2555  -3.2237  -3.1401  -3.1258
    -0.7696  -0.7231  -0.3663  -0.3562  -0.2790  -0.2782  -0.2446  -0.2382
    -0.1503  -0.1237  -0.0024   0.0578   0.1209   0.1584   0.2524   0.2870
     0.4953   0.5645   0.6425   0.6842   0.6963   0.7414   0.8051   0.8302
     0.8622   0.8777   0.9553   1.0371   1.2347   1.2403   1.2682   1.2855

     occupation numbers 
     1.0000   1.0000   1.0000   1.0000   1.0000   1.0000   1.0000   1.0000
     1.0000   1.0000   1.0000   1.0000   1.0000   1.0000   1.0000   1.0000
     1.0000   1.0000   1.0000   1.0000   1.0000   1.0000   1.0000   1.0000
     1.0000   1.0000   1.0000   1.0000   1.0000   1.0000   1.0000   1.0000
     1.0000   1.0000   1.0000   1.0000   1.0000   1.0000   1.0000   1.0000
     1.0000   1.0000   1.0000   1.0000   1.0000   1.0000   1.0000   1.0000
     1.0000   1.0000   1.0000   1.0000   1.0000   1.0000   1.0000   1.0000
     1.0000   1.0000   1.0000   1.0000   1.0000   1.0000   1.0000   1.0000
     1.0000   1.0000   1.0000   1.0000   1.0000   1.0000   1.0000   1.0000
     1.0000   1.0000   1.0000   1.0000   1.0000   1.0000   1.0000   1.0000
     1.0000   1.0000   1.0000   1.0000   1.0000   1.0000   1.0000   1.0000
     1.0000   1.0000   1.0000   1.0000   1.0000   1.0000   1.0000   1.0000
     1.0000   1.0000   1.0000   1.0000   1.0000   1.0000   1.0000   1.0000
     1.0000   1.0000   1.0000   1.0000   1.0000   1.0000   1.0000   1.0000

          k = 0.0575 0.0340 0.0303 ( 97694 PWs)   bands (ev):

   -24.0295 -24.0256 -24.0061 -24.0057 -23.7576 -23.7567 -23.7522 -23.7501
   -19.2661 -19.2649 -19.2533 -19.2500 -18.9558 -18.9554 -18.9471 -18.9465
   -18.3313 -18.3312 -17.2865 -17.2856 -17.1483 -17.1475 -16.1223 -16.1217
   -12.1981 -12.1976 -12.0701 -12.0619 -11.9199 -11.9153 -11.8767 -11.8716
    -8.9438  -8.9306  -8.3627  -8.3537  -7.6326  -7.6245  -7.5855  -7.5640
    -7.0565  -7.0314  -6.6661  -6.6258  -6.5430  -6.5172  -6.3677  -6.3327
    -6.2695  -6.2423  -6.0740  -6.0457  -5.9663  -5.9404  -5.8475  -5.8290
    -5.7210  -5.7060  -5.6225  -5.6153  -5.1934  -5.1488  -5.0011  -4.9964
    -4.5260  -4.5151  -4.4520  -4.4291  -4.1258  -4.1018  -3.8806  -3.8677
    -3.8105  -3.7724  -3.6848  -3.6786  -3.2401  -3.2364  -3.1423  -3.1299
    -0.8139  -0.8087  -0.3547  -0.3493  -0.3055  -0.2895  -0.1709  -0.1507
    -0.1310  -0.1160   0.0552   0.0700   0.1431   0.1555   0.2779   0.2891
     0.5333   0.5418   0.5657   0.5949   0.7130   0.7193   0.7983   0.8185
     0.8753   0.9061   0.9450   0.9662   1.2271   1.2384   1.2985   1.3130

     occupation numbers 
     1.0000   1.0000   1.0000   1.0000   1.0000   1.0000   1.0000   1.0000
     1.0000   1.0000   1.0000   1.0000   1.0000   1.0000   1.0000   1.0000
     1.0000   1.0000   1.0000   1.0000   1.0000   1.0000   1.0000   1.0000
     1.0000   1.0000   1.0000   1.0000   1.0000   1.0000   1.0000   1.0000
     1.0000   1.0000   1.0000   1.0000   1.0000   1.0000   1.0000   1.0000
     1.0000   1.0000   1.0000   1.0000   1.0000   1.0000   1.0000   1.0000
     1.0000   1.0000   1.0000   1.0000   1.0000   1.0000   1.0000   1.0000
     1.0000   1.0000   1.0000   1.0000   1.0000   1.0000   1.0000   1.0000
     1.0000   1.0000   1.0000   1.0000   1.0000   1.0000   1.0000   1.0000
     1.0000   1.0000   1.0000   1.0000   1.0000   1.0000   1.0000   1.0000
     1.0000   1.0000   1.0000   1.0000   1.0000   1.0000   1.0000   1.0000
     1.0000   1.0000   1.0000   1.0000   1.0000   1.0000   1.0000   1.0000
     1.0000   1.0000   1.0000   1.0000   1.0000   1.0000   1.0000   1.0000
     1.0000   1.0000   1.0000   1.0000   1.0000   1.0000   1.0000   1.0000

          k = 0.0575 0.0340 0.0651 ( 97719 PWs)   bands (ev):

   -24.0274 -24.0263 -24.0077 -24.0044 -23.7588 -23.7586 -23.7521 -23.7483
   -19.2670 -19.2661 -19.2532 -19.2492 -18.9649 -18.9641 -18.9394 -18.9378
   -18.3390 -18.3289 -17.2939 -17.2764 -17.1384 -17.1369 -16.1326 -16.1254
   -12.2100 -12.2085 -12.0839 -12.0533 -11.9093 -11.8898 -11.8823 -11.8773
    -8.9624  -8.9136  -8.3551  -8.3408  -7.6215  -7.6106  -7.5518  -7.4949
    -7.1114  -7.0331  -6.6511  -6.6021  -6.5657  -6.5402  -6.4432  -6.3917
    -6.3234  -6.2738  -6.0479  -6.0310  -5.9961  -5.9781  -5.8917  -5.8583
    -5.7084  -5.6860  -5.5535  -5.5263  -5.1955  -5.1291  -5.0419  -5.0180
    -4.4695  -4.4503  -4.4031  -4.3698  -4.0910  -4.0719  -3.9786  -3.9618
    -3.8329  -3.8033  -3.6682  -3.6349  -3.2727  -3.2637  -3.1270  -3.1050
    -0.8793  -0.8629  -0.3594  -0.3456  -0.3008  -0.2910  -0.1614  -0.1489
    -0.0736  -0.0613   0.1235   0.1346   0.1711   0.1830   0.2677   0.3099
     0.4168   0.4278   0.5440   0.5995   0.6822   0.7137   0.7861   0.8016
     0.8903   0.9153   0.9718   0.9874   1.2417   1.2558   1.3026   1.3197

     occupation numbers 
     1.0000   1.0000   1.0000   1.0000   1.0000   1.0000   1.0000   1.0000
     1.0000   1.0000   1.0000   1.0000   1.0000   1.0000   1.0000   1.0000
     1.0000   1.0000   1.0000   1.0000   1.0000   1.0000   1.0000   1.0000
     1.0000   1.0000   1.0000   1.0000   1.0000   1.0000   1.0000   1.0000
     1.0000   1.0000   1.0000   1.0000   1.0000   1.0000   1.0000   1.0000
     1.0000   1.0000   1.0000   1.0000   1.0000   1.0000   1.0000   1.0000
     1.0000   1.0000   1.0000   1.0000   1.0000   1.0000   1.0000   1.0000
     1.0000   1.0000   1.0000   1.0000   1.0000   1.0000   1.0000   1.0000
     1.0000   1.0000   1.0000   1.0000   1.0000   1.0000   1.0000   1.0000
     1.0000   1.0000   1.0000   1.0000   1.0000   1.0000   1.0000   1.0000
     1.0000   1.0000   1.0000   1.0000   1.0000   1.0000   1.0000   1.0000
     1.0000   1.0000   1.0000   1.0000   1.0000   1.0000   1.0000   1.0000
     1.0000   1.0000   1.0000   1.0000   1.0000   1.0000   1.0000   1.0000
     1.0000   1.0000   1.0000   1.0000   1.0000   1.0000   1.0000   1.0000

          k = 0.0575 0.0340-0.0393 ( 97686 PWs)   bands (ev):

   -24.0287 -24.0264 -24.0076 -24.0029 -23.7614 -23.7609 -23.7491 -23.7465
   -19.2655 -19.2651 -19.2541 -19.2511 -18.9658 -18.9651 -18.9383 -18.9368
   -18.3406 -18.3264 -17.2975 -17.2719 -17.1414 -17.1400 -16.1306 -16.1210
   -12.2125 -12.2111 -12.0994 -12.0542 -11.9122 -11.8942 -11.8748 -11.8626
    -8.9533  -8.8967  -8.3527  -8.3413  -7.6256  -7.6100  -7.5645  -7.4888
    -7.1172  -7.0317  -6.6512  -6.6141  -6.5728  -6.5519  -6.4943  -6.4403
    -6.2879  -6.2475  -6.0542  -6.0191  -5.9741  -5.9650  -5.8892  -5.8643
    -5.6919  -5.6770  -5.5524  -5.5214  -5.2080  -5.1563  -5.0113  -4.9928
    -4.4866  -4.4694  -4.3782  -4.3620  -4.1086  -4.0952  -3.9419  -3.9395
    -3.8133  -3.8061  -3.7112  -3.6570  -3.2727  -3.2589  -3.1276  -3.1097
    -0.8327  -0.8072  -0.3556  -0.3385  -0.3074  -0.2924  -0.1722  -0.1650
    -0.1292  -0.1076   0.0650   0.0947   0.1630   0.1802   0.2183   0.2399
     0.5010   0.5304   0.6014   0.6051   0.6979   0.7091   0.7793   0.7883
     0.8980   0.9159   0.9981   1.0213   1.2539   1.2612   1.2747   1.2860

     occupation numbers 
     1.0000   1.0000   1.0000   1.0000   1.0000   1.0000   1.0000   1.0000
     1.0000   1.0000   1.0000   1.0000   1.0000   1.0000   1.0000   1.0000
     1.0000   1.0000   1.0000   1.0000   1.0000   1.0000   1.0000   1.0000
     1.0000   1.0000   1.0000   1.0000   1.0000   1.0000   1.0000   1.0000
     1.0000   1.0000   1.0000   1.0000   1.0000   1.0000   1.0000   1.0000
     1.0000   1.0000   1.0000   1.0000   1.0000   1.0000   1.0000   1.0000
     1.0000   1.0000   1.0000   1.0000   1.0000   1.0000   1.0000   1.0000
     1.0000   1.0000   1.0000   1.0000   1.0000   1.0000   1.0000   1.0000
     1.0000   1.0000   1.0000   1.0000   1.0000   1.0000   1.0000   1.0000
     1.0000   1.0000   1.0000   1.0000   1.0000   1.0000   1.0000   1.0000
     1.0000   1.0000   1.0000   1.0000   1.0000   1.0000   1.0000   1.0000
     1.0000   1.0000   1.0000   1.0000   1.0000   1.0000   1.0000   1.0000
     1.0000   1.0000   1.0000   1.0000   1.0000   1.0000   1.0000   1.0000
     1.0000   1.0000   1.0000   1.0000   1.0000   1.0000   1.0000   1.0000

          k = 0.0575 0.0340-0.0045 ( 97665 PWs)   bands (ev):

   -24.0305 -24.0262 -24.0068 -24.0034 -23.7608 -23.7594 -23.7486 -23.7479
   -19.2644 -19.2638 -19.2533 -19.2530 -18.9582 -18.9579 -18.9445 -18.9440
   -18.3359 -18.3258 -17.2950 -17.2761 -17.1511 -17.1508 -16.1221 -16.1157
   -12.2007 -12.2002 -12.0938 -12.0560 -11.9246 -11.9056 -11.8700 -11.8669
    -8.9403  -8.9075  -8.3588  -8.3562  -7.6362  -7.6320  -7.5971  -7.5554
    -7.0578  -7.0229  -6.6597  -6.6488  -6.5407  -6.5376  -6.4278  -6.4141
    -6.2189  -6.2123  -6.0548  -6.0364  -5.9297  -5.9152  -5.8499  -5.8434
    -5.7160  -5.7054  -5.6213  -5.6167  -5.1866  -5.1768  -4.9755  -4.9718
    -4.5345  -4.5190  -4.4506  -4.4285  -4.1277  -4.1160  -3.8609  -3.8588
    -3.7751  -3.7573  -3.7387  -3.7116  -3.2456  -3.2314  -3.1404  -3.1351
    -0.7542  -0.7349  -0.3516  -0.3464  -0.2985  -0.2766  -0.2622  -0.2435
    -0.1485  -0.1285   0.0190   0.0449   0.1372   0.1557   0.2614   0.2800
     0.5271   0.5621   0.6274   0.6505   0.7070   0.7350   0.8102   0.8165
     0.8808   0.8903   0.9706   1.0079   1.2372   1.2387   1.2727   1.2802

     occupation numbers 
     1.0000   1.0000   1.0000   1.0000   1.0000   1.0000   1.0000   1.0000
     1.0000   1.0000   1.0000   1.0000   1.0000   1.0000   1.0000   1.0000
     1.0000   1.0000   1.0000   1.0000   1.0000   1.0000   1.0000   1.0000
     1.0000   1.0000   1.0000   1.0000   1.0000   1.0000   1.0000   1.0000
     1.0000   1.0000   1.0000   1.0000   1.0000   1.0000   1.0000   1.0000
     1.0000   1.0000   1.0000   1.0000   1.0000   1.0000   1.0000   1.0000
     1.0000   1.0000   1.0000   1.0000   1.0000   1.0000   1.0000   1.0000
     1.0000   1.0000   1.0000   1.0000   1.0000   1.0000   1.0000   1.0000
     1.0000   1.0000   1.0000   1.0000   1.0000   1.0000   1.0000   1.0000
     1.0000   1.0000   1.0000   1.0000   1.0000   1.0000   1.0000   1.0000
     1.0000   1.0000   1.0000   1.0000   1.0000   1.0000   1.0000   1.0000
     1.0000   1.0000   1.0000   1.0000   1.0000   1.0000   1.0000   1.0000
     1.0000   1.0000   1.0000   1.0000   1.0000   1.0000   1.0000   1.0000
     1.0000   1.0000   1.0000   1.0000   1.0000   1.0000   1.0000   1.0000

     highest occupied level (ev):     1.3320

!    total energy              =   -1281.98393874 Ry
     Harris-Foulkes estimate   =   -1281.98393910 Ry
     estimated scf accuracy    <       0.00000040 Ry

     total all-electron energy =     -4786.427686 Ry

     The total energy is the sum of the following terms:

     one-electron contribution =    -654.42061466 Ry
     hartree contribution      =     424.88301566 Ry
     xc contribution           =    -260.41207306 Ry
     ewald contribution        =    -461.63880349 Ry
     one-center paw contrib.   =    -330.39546318 Ry

     convergence has been achieved in  19 iterations

     Forces acting on atoms (Ry/au):

     atom    1 type  1   force =    -0.01137817   -0.00709225   -0.01211912
     atom    2 type  4   force =     0.03481316    0.00950766   -0.02293837
     atom    3 type  1   force =    -0.00362932   -0.01276853   -0.01356782
     atom    4 type  1   force =     0.01296766   -0.00705546    0.00509379
     atom    5 type  4   force =     0.00378789   -0.03919475    0.04230138
     atom    6 type  1   force =     0.01633716    0.01042469   -0.01496622
     atom    7 type  4   force =    -0.01090834    0.02336844    0.04627666
     atom    8 type  2   force =     0.19640746   -0.12639695    0.05895553
     atom    9 type  3   force =    -0.15428841   -0.06629996   -0.15734153
     atom   10 type  3   force =    -0.05230682    0.20174594    0.09203836
     atom   11 type  4   force =    -0.04547786    0.02766956   -0.01832210
     atom   12 type  2   force =     0.11974667   -0.05875745    0.20828538
     atom   13 type  3   force =    -0.19744961   -0.09913938   -0.06291275
     atom   14 type  3   force =     0.06710130    0.15537214   -0.15250317
     atom   15 type  3   force =     0.06710130   -0.15537214   -0.15250317
     atom   16 type  3   force =    -0.19744961    0.09913938   -0.06291275
     atom   17 type  2   force =     0.11974667    0.05875745    0.20828538
     atom   18 type  4   force =    -0.04547786   -0.02766956   -0.01832210
     atom   19 type  3   force =    -0.05230682   -0.20174594    0.09203836
     atom   20 type  3   force =    -0.15428841    0.06629996   -0.15734153
     atom   21 type  2   force =     0.19640746    0.12639695    0.05895553
     atom   22 type  4   force =    -0.01090834   -0.02336844    0.04627666
     atom   23 type  1   force =     0.01633716   -0.01042469   -0.01496622
     atom   24 type  4   force =     0.00378789    0.03919475    0.04230138
     atom   25 type  1   force =     0.01296766    0.00705546    0.00509379
     atom   26 type  1   force =    -0.00362932    0.01276853   -0.01356782
     atom   27 type  4   force =     0.03481316   -0.00950766   -0.02293837
     atom   28 type  1   force =    -0.01137817    0.00709225   -0.01211912
     atom   29 type  3   force =    -0.06710130   -0.15537214    0.15250317
     atom   30 type  3   force =     0.19744961    0.09913938    0.06291275
     atom   31 type  2   force =    -0.11974667    0.05875745   -0.20828538
     atom   32 type  4   force =     0.04547786   -0.02766956    0.01832210
     atom   33 type  3   force =     0.05230682   -0.20174594   -0.09203836
     atom   34 type  3   force =     0.15428841    0.06629996    0.15734153
     atom   35 type  2   force =    -0.19640746    0.12639695   -0.05895553
     atom   36 type  4   force =     0.01090834   -0.02336844   -0.04627666
     atom   37 type  1   force =    -0.01633716   -0.01042469    0.01496622
     atom   38 type  4   force =    -0.00378789    0.03919475   -0.04230138
     atom   39 type  1   force =    -0.01296766    0.00705546   -0.00509379
     atom   40 type  1   force =     0.00362932    0.01276853    0.01356782
     atom   41 type  4   force =    -0.03481316   -0.00950766    0.02293837
     atom   42 type  1   force =     0.01137817    0.00709225    0.01211912
     atom   43 type  3   force =    -0.06710130    0.15537214    0.15250317
     atom   44 type  3   force =     0.19744961   -0.09913938    0.06291275
     atom   45 type  2   force =    -0.11974667   -0.05875745   -0.20828538
     atom   46 type  4   force =     0.04547786    0.02766956    0.01832210
     atom   47 type  3   force =     0.05230682    0.20174594   -0.09203836
     atom   48 type  3   force =     0.15428841   -0.06629996    0.15734153
     atom   49 type  2   force =    -0.19640746   -0.12639695   -0.05895553
     atom   50 type  4   force =     0.01090834    0.02336844   -0.04627666
     atom   51 type  1   force =    -0.01633716    0.01042469    0.01496622
     atom   52 type  4   force =    -0.00378789   -0.03919475   -0.04230138
     atom   53 type  1   force =    -0.01296766   -0.00705546   -0.00509379
     atom   54 type  1   force =     0.00362932   -0.01276853    0.01356782
     atom   55 type  4   force =    -0.03481316    0.00950766    0.02293837
     atom   56 type  1   force =     0.01137817   -0.00709225    0.01211912
     The non-local contrib.  to forces
     atom    1 type  1   force =     0.16237151    0.38320723    0.10797196
     atom    2 type  4   force =    -2.40905413   -0.47658785    1.54160183
     atom    3 type  1   force =     0.04600548   -0.03426814    0.05343371
     atom    4 type  1   force =    -0.56788140   -0.40765836   -0.11091781
     atom    5 type  4   force =     0.14523941    1.88386547   -2.23682865
     atom    6 type  1   force =    -0.00558868    0.06341604    0.05492219
     atom    7 type  4   force =     0.54756526   -1.16449220   -2.63081713
     atom    8 type  2   force =     0.65338921   -0.44620277    0.18138410
     atom    9 type  3   force =     0.08161941    0.02756076    0.07199024
     atom   10 type  3   force =     0.02976849   -0.10119165   -0.04142517
     atom   11 type  4   force =     2.27202228   -1.50102529    0.81647886
     atom   12 type  2   force =     0.37913835   -0.19461180    0.69465997
     atom   13 type  3   force =     0.09370011    0.04871315    0.03922797
     atom   14 type  3   force =    -0.02941565   -0.07509529    0.07999578
     atom   15 type  3   force =    -0.02941565    0.07509529    0.07999578
     atom   16 type  3   force =     0.09370011   -0.04871315    0.03922797
     atom   17 type  2   force =     0.37913835    0.19461180    0.69465997
     atom   18 type  4   force =     2.27202228    1.50102529    0.81647886
     atom   19 type  3   force =     0.02976849    0.10119165   -0.04142517
     atom   20 type  3   force =     0.08161941   -0.02756076    0.07199024
     atom   21 type  2   force =     0.65338921    0.44620277    0.18138410
     atom   22 type  4   force =     0.54756526    1.16449220   -2.63081713
     atom   23 type  1   force =    -0.00558868   -0.06341604    0.05492219
     atom   24 type  4   force =     0.14523941   -1.88386547   -2.23682865
     atom   25 type  1   force =    -0.56788140    0.40765836   -0.11091781
     atom   26 type  1   force =     0.04600548    0.03426814    0.05343371
     atom   27 type  4   force =    -2.40905413    0.47658785    1.54160183
     atom   28 type  1   force =     0.16237151   -0.38320723    0.10797196
     atom   29 type  3   force =     0.02941565    0.07509529   -0.07999578
     atom   30 type  3   force =    -0.09370011   -0.04871315   -0.03922797
     atom   31 type  2   force =    -0.37913835    0.19461180   -0.69465997
     atom   32 type  4   force =    -2.27202228    1.50102529   -0.81647886
     atom   33 type  3   force =    -0.02976849    0.10119165    0.04142517
     atom   34 type  3   force =    -0.08161941   -0.02756076   -0.07199024
     atom   35 type  2   force =    -0.65338921    0.44620277   -0.18138410
     atom   36 type  4   force =    -0.54756526    1.16449220    2.63081713
     atom   37 type  1   force =     0.00558868   -0.06341604   -0.05492219
     atom   38 type  4   force =    -0.14523941   -1.88386547    2.23682865
     atom   39 type  1   force =     0.56788140    0.40765836    0.11091781
     atom   40 type  1   force =    -0.04600548    0.03426814   -0.05343371
     atom   41 type  4   force =     2.40905413    0.47658785   -1.54160183
     atom   42 type  1   force =    -0.16237151   -0.38320723   -0.10797196
     atom   43 type  3   force =     0.02941565   -0.07509529   -0.07999578
     atom   44 type  3   force =    -0.09370011    0.04871315   -0.03922797
     atom   45 type  2   force =    -0.37913835   -0.19461180   -0.69465997
     atom   46 type  4   force =    -2.27202228   -1.50102529   -0.81647886
     atom   47 type  3   force =    -0.02976849   -0.10119165    0.04142517
     atom   48 type  3   force =    -0.08161941    0.02756076   -0.07199024
     atom   49 type  2   force =    -0.65338921   -0.44620277   -0.18138410
     atom   50 type  4   force =    -0.54756526   -1.16449220    2.63081713
     atom   51 type  1   force =     0.00558868    0.06341604   -0.05492219
     atom   52 type  4   force =    -0.14523941    1.88386547    2.23682865
     atom   53 type  1   force =     0.56788140   -0.40765836    0.11091781
     atom   54 type  1   force =    -0.04600548   -0.03426814   -0.05343371
     atom   55 type  4   force =     2.40905413   -0.47658785   -1.54160183
     atom   56 type  1   force =    -0.16237151    0.38320723   -0.10797196
     The ionic contribution  to forces
     atom    1 type  1   force =    -2.98574241    0.28768524   -1.98995955
     atom    2 type  4   force =    12.32605624    4.46897253   -6.05307582
     atom    3 type  1   force =    -0.22198844    1.74709182    0.03104347
     atom    4 type  1   force =     2.72398529    2.76015808    2.00356854
     atom    5 type  4   force =    -1.38510603   -8.79391461   11.50298923
     atom    6 type  1   force =    -0.41177865    0.08160974    1.10576084
     atom    7 type  4   force =    -2.11153922    6.39162145   12.56330285
     atom    8 type  2   force =    -4.06343486    3.26529007   -1.16466039
     atom    9 type  3   force =    -2.33212389   -0.14105590   -2.07121141
     atom   10 type  3   force =    -1.27980373    2.89156196    0.78930334
     atom   11 type  4   force =   -11.29512376    6.38826800   -2.14928522
     atom   12 type  2   force =    -2.89324934    1.04598259   -4.77600606
     atom   13 type  3   force =    -2.63719007   -1.06735352   -1.62107703
     atom   14 type  3   force =     0.24455193    2.08108242   -2.54111395
     atom   15 type  3   force =     0.24455193   -2.08108242   -2.54111395
     atom   16 type  3   force =    -2.63719007    1.06735352   -1.62107703
     atom   17 type  2   force =    -2.89324934   -1.04598259   -4.77600606
     atom   18 type  4   force =   -11.29512376   -6.38826800   -2.14928522
     atom   19 type  3   force =    -1.27980373   -2.89156196    0.78930334
     atom   20 type  3   force =    -2.33212389    0.14105590   -2.07121141
     atom   21 type  2   force =    -4.06343486   -3.26529007   -1.16466039
     atom   22 type  4   force =    -2.11153922   -6.39162145   12.56330285
     atom   23 type  1   force =    -0.41177865   -0.08160974    1.10576084
     atom   24 type  4   force =    -1.38510603    8.79391461   11.50298923
     atom   25 type  1   force =     2.72398529   -2.76015808    2.00356854
     atom   26 type  1   force =    -0.22198844   -1.74709182    0.03104347
     atom   27 type  4   force =    12.32605624   -4.46897253   -6.05307582
     atom   28 type  1   force =    -2.98574241   -0.28768524   -1.98995955
     atom   29 type  3   force =    -0.24455193   -2.08108242    2.54111395
     atom   30 type  3   force =     2.63719007    1.06735352    1.62107703
     atom   31 type  2   force =     2.89324934   -1.04598259    4.77600606
     atom   32 type  4   force =    11.29512376   -6.38826800    2.14928522
     atom   33 type  3   force =     1.27980373   -2.89156196   -0.78930334
     atom   34 type  3   force =     2.33212389    0.14105590    2.07121141
     atom   35 type  2   force =     4.06343486   -3.26529007    1.16466039
     atom   36 type  4   force =     2.11153922   -6.39162145  -12.56330285
     atom   37 type  1   force =     0.41177865   -0.08160974   -1.10576084
     atom   38 type  4   force =     1.38510603    8.79391461  -11.50298923
     atom   39 type  1   force =    -2.72398529   -2.76015808   -2.00356854
     atom   40 type  1   force =     0.22198844   -1.74709182   -0.03104347
     atom   41 type  4   force =   -12.32605624   -4.46897253    6.05307582
     atom   42 type  1   force =     2.98574241   -0.28768524    1.98995955
     atom   43 type  3   force =    -0.24455193    2.08108242    2.54111395
     atom   44 type  3   force =     2.63719007   -1.06735352    1.62107703
     atom   45 type  2   force =     2.89324934    1.04598259    4.77600606
     atom   46 type  4   force =    11.29512376    6.38826800    2.14928522
     atom   47 type  3   force =     1.27980373    2.89156196   -0.78930334
     atom   48 type  3   force =     2.33212389   -0.14105590    2.07121141
     atom   49 type  2   force =     4.06343486    3.26529007    1.16466039
     atom   50 type  4   force =     2.11153922    6.39162145  -12.56330285
     atom   51 type  1   force =     0.41177865    0.08160974   -1.10576084
     atom   52 type  4   force =     1.38510603   -8.79391461  -11.50298923
     atom   53 type  1   force =    -2.72398529    2.76015808   -2.00356854
     atom   54 type  1   force =     0.22198844    1.74709182   -0.03104347
     atom   55 type  4   force =   -12.32605624    4.46897253    6.05307582
     atom   56 type  1   force =     2.98574241    0.28768524    1.98995955
     The local contribution  to forces
     atom    1 type  1   force =     2.81495547   -0.67145324    1.87165223
     atom    2 type  4   force =    -9.90109466   -3.98654099    4.50056536
     atom    3 type  1   force =     0.17200331   -1.72731149   -0.09814577
     atom    4 type  1   force =    -2.15220426   -2.36581363   -1.88890674
     atom    5 type  4   force =     1.24484800    6.88509770   -9.24098663
     atom    6 type  1   force =     0.43501661   -0.13333791   -1.17514586
     atom    7 type  4   force =     1.55728527   -5.21266308   -9.90664482
     atom    8 type  2   force =     3.62075270   -2.95561100    1.04710945
     atom    9 type  3   force =     2.09622936    0.04720933    1.84187118
     atom   10 type  3   force =     1.19774027   -2.58859772   -0.65584610
     atom   11 type  4   force =     8.99518827   -4.87133762    1.32106000
     atom   12 type  2   force =     2.64259287   -0.91408999    4.30527817
     atom   13 type  3   force =     2.34604144    0.91949866    1.51891630
     atom   14 type  3   force =    -0.14802248   -1.85061536    2.30860213
     atom   15 type  3   force =    -0.14802248    1.85061536    2.30860213
     atom   16 type  3   force =     2.34604144   -0.91949866    1.51891630
     atom   17 type  2   force =     2.64259287    0.91408999    4.30527817
     atom   18 type  4   force =     8.99518827    4.87133762    1.32106000
     atom   19 type  3   force =     1.19774027    2.58859772   -0.65584610
     atom   20 type  3   force =     2.09622936   -0.04720933    1.84187118
     atom   21 type  2   force =     3.62075270    2.95561100    1.04710945
     atom   22 type  4   force =     1.55728527    5.21266308   -9.90664482
     atom   23 type  1   force =     0.43501661    0.13333791   -1.17514586
     atom   24 type  4   force =     1.24484800   -6.88509770   -9.24098663
     atom   25 type  1   force =    -2.15220426    2.36581363   -1.88890674
     atom   26 type  1   force =     0.17200331    1.72731149   -0.09814577
     atom   27 type  4   force =    -9.90109466    3.98654099    4.50056536
     atom   28 type  1   force =     2.81495547    0.67145324    1.87165223
     atom   29 type  3   force =     0.14802248    1.85061536   -2.30860213
     atom   30 type  3   force =    -2.34604144   -0.91949866   -1.51891630
     atom   31 type  2   force =    -2.64259287    0.91408999   -4.30527817
     atom   32 type  4   force =    -8.99518827    4.87133762   -1.32106000
     atom   33 type  3   force =    -1.19774027    2.58859772    0.65584610
     atom   34 type  3   force =    -2.09622936   -0.04720933   -1.84187118
     atom   35 type  2   force =    -3.62075270    2.95561100   -1.04710945
     atom   36 type  4   force =    -1.55728527    5.21266308    9.90664482
     atom   37 type  1   force =    -0.43501661    0.13333791    1.17514586
     atom   38 type  4   force =    -1.24484800   -6.88509770    9.24098663
     atom   39 type  1   force =     2.15220426    2.36581363    1.88890674
     atom   40 type  1   force =    -0.17200331    1.72731149    0.09814577
     atom   41 type  4   force =     9.90109466    3.98654099   -4.50056536
     atom   42 type  1   force =    -2.81495547    0.67145324   -1.87165223
     atom   43 type  3   force =     0.14802248   -1.85061536   -2.30860213
     atom   44 type  3   force =    -2.34604144    0.91949866   -1.51891630
     atom   45 type  2   force =    -2.64259287   -0.91408999   -4.30527817
     atom   46 type  4   force =    -8.99518827   -4.87133762   -1.32106000
     atom   47 type  3   force =    -1.19774027   -2.58859772    0.65584610
     atom   48 type  3   force =    -2.09622936    0.04720933   -1.84187118
     atom   49 type  2   force =    -3.62075270   -2.95561100   -1.04710945
     atom   50 type  4   force =    -1.55728527   -5.21266308    9.90664482
     atom   51 type  1   force =    -0.43501661   -0.13333791    1.17514586
     atom   52 type  4   force =    -1.24484800    6.88509770    9.24098663
     atom   53 type  1   force =     2.15220426   -2.36581363    1.88890674
     atom   54 type  1   force =    -0.17200331   -1.72731149    0.09814577
     atom   55 type  4   force =     9.90109466   -3.98654099   -4.50056536
     atom   56 type  1   force =    -2.81495547   -0.67145324   -1.87165223
     The core correction contribution to forces
     atom    1 type  1   force =    -0.00288189   -0.00641348   -0.00175877
     atom    2 type  4   force =     0.01868844    0.00360581   -0.01197569
     atom    3 type  1   force =     0.00036164    0.00171856    0.00001412
     atom    4 type  1   force =     0.00911421    0.00619138    0.00143192
     atom    5 type  4   force =    -0.00117997   -0.01437444    0.01728472
     atom    6 type  1   force =    -0.00119806   -0.00160401   -0.00012469
     atom    7 type  4   force =    -0.00420589    0.00883390    0.02024399
     atom    8 type  2   force =    -0.01422942    0.01019820   -0.00491671
     atom    9 type  3   force =     0.00000000    0.00000000    0.00000000
     atom   10 type  3   force =     0.00000000    0.00000000    0.00000000
     atom   11 type  4   force =    -0.01754345    0.01166910   -0.00641399
     atom   12 type  2   force =    -0.00874183    0.00400611   -0.01568443
     atom   13 type  3   force =     0.00000000    0.00000000    0.00000000
     atom   14 type  3   force =     0.00000000    0.00000000    0.00000000
     atom   15 type  3   force =     0.00000000    0.00000000    0.00000000
     atom   16 type  3   force =     0.00000000    0.00000000    0.00000000
     atom   17 type  2   force =    -0.00874183   -0.00400611   -0.01568443
     atom   18 type  4   force =    -0.01754345   -0.01166910   -0.00641399
     atom   19 type  3   force =     0.00000000    0.00000000    0.00000000
     atom   20 type  3   force =     0.00000000    0.00000000    0.00000000
     atom   21 type  2   force =    -0.01422942   -0.01019820   -0.00491671
     atom   22 type  4   force =    -0.00420589   -0.00883390    0.02024399
     atom   23 type  1   force =    -0.00119806    0.00160401   -0.00012469
     atom   24 type  4   force =    -0.00117997    0.01437444    0.01728472
     atom   25 type  1   force =     0.00911421   -0.00619138    0.00143192
     atom   26 type  1   force =     0.00036164   -0.00171856    0.00001412
     atom   27 type  4   force =     0.01868844   -0.00360581   -0.01197569
     atom   28 type  1   force =    -0.00288189    0.00641348   -0.00175877
     atom   29 type  3   force =     0.00000000    0.00000000    0.00000000
     atom   30 type  3   force =     0.00000000    0.00000000    0.00000000
     atom   31 type  2   force =     0.00874183   -0.00400611    0.01568443
     atom   32 type  4   force =     0.01754345   -0.01166910    0.00641399
     atom   33 type  3   force =     0.00000000    0.00000000    0.00000000
     atom   34 type  3   force =     0.00000000    0.00000000    0.00000000
     atom   35 type  2   force =     0.01422942   -0.01019820    0.00491671
     atom   36 type  4   force =     0.00420589   -0.00883390   -0.02024399
     atom   37 type  1   force =     0.00119806    0.00160401    0.00012469
     atom   38 type  4   force =     0.00117997    0.01437444   -0.01728472
     atom   39 type  1   force =    -0.00911421   -0.00619138   -0.00143192
     atom   40 type  1   force =    -0.00036164   -0.00171856   -0.00001412
     atom   41 type  4   force =    -0.01868844   -0.00360581    0.01197569
     atom   42 type  1   force =     0.00288189    0.00641348    0.00175877
     atom   43 type  3   force =     0.00000000    0.00000000    0.00000000
     atom   44 type  3   force =     0.00000000    0.00000000    0.00000000
     atom   45 type  2   force =     0.00874183    0.00400611    0.01568443
     atom   46 type  4   force =     0.01754345    0.01166910    0.00641399
     atom   47 type  3   force =     0.00000000    0.00000000    0.00000000
     atom   48 type  3   force =     0.00000000    0.00000000    0.00000000
     atom   49 type  2   force =     0.01422942    0.01019820    0.00491671
     atom   50 type  4   force =     0.00420589    0.00883390   -0.02024399
     atom   51 type  1   force =     0.00119806   -0.00160401    0.00012469
     atom   52 type  4   force =     0.00117997   -0.01437444   -0.01728472
     atom   53 type  1   force =    -0.00911421    0.00619138   -0.00143192
     atom   54 type  1   force =    -0.00036164    0.00171856   -0.00001412
     atom   55 type  4   force =    -0.01868844    0.00360581    0.01197569
     atom   56 type  1   force =     0.00288189   -0.00641348    0.00175877
     The Hubbard contrib.    to forces
     atom    1 type  1   force =     0.00000000    0.00000000    0.00000000
     atom    2 type  4   force =     0.00000000    0.00000000    0.00000000
     atom    3 type  1   force =     0.00000000    0.00000000    0.00000000
     atom    4 type  1   force =     0.00000000    0.00000000    0.00000000
     atom    5 type  4   force =     0.00000000    0.00000000    0.00000000
     atom    6 type  1   force =     0.00000000    0.00000000    0.00000000
     atom    7 type  4   force =     0.00000000    0.00000000    0.00000000
     atom    8 type  2   force =     0.00000000    0.00000000    0.00000000
     atom    9 type  3   force =     0.00000000    0.00000000    0.00000000
     atom   10 type  3   force =     0.00000000    0.00000000    0.00000000
     atom   11 type  4   force =     0.00000000    0.00000000    0.00000000
     atom   12 type  2   force =     0.00000000    0.00000000    0.00000000
     atom   13 type  3   force =     0.00000000    0.00000000    0.00000000
     atom   14 type  3   force =     0.00000000    0.00000000    0.00000000
     atom   15 type  3   force =     0.00000000    0.00000000    0.00000000
     atom   16 type  3   force =     0.00000000    0.00000000    0.00000000
     atom   17 type  2   force =     0.00000000    0.00000000    0.00000000
     atom   18 type  4   force =     0.00000000    0.00000000    0.00000000
     atom   19 type  3   force =     0.00000000    0.00000000    0.00000000
     atom   20 type  3   force =     0.00000000    0.00000000    0.00000000
     atom   21 type  2   force =     0.00000000    0.00000000    0.00000000
     atom   22 type  4   force =     0.00000000    0.00000000    0.00000000
     atom   23 type  1   force =     0.00000000    0.00000000    0.00000000
     atom   24 type  4   force =     0.00000000    0.00000000    0.00000000
     atom   25 type  1   force =     0.00000000    0.00000000    0.00000000
     atom   26 type  1   force =     0.00000000    0.00000000    0.00000000
     atom   27 type  4   force =     0.00000000    0.00000000    0.00000000
     atom   28 type  1   force =     0.00000000    0.00000000    0.00000000
     atom   29 type  3   force =     0.00000000    0.00000000    0.00000000
     atom   30 type  3   force =     0.00000000    0.00000000    0.00000000
     atom   31 type  2   force =     0.00000000    0.00000000    0.00000000
     atom   32 type  4   force =     0.00000000    0.00000000    0.00000000
     atom   33 type  3   force =     0.00000000    0.00000000    0.00000000
     atom   34 type  3   force =     0.00000000    0.00000000    0.00000000
     atom   35 type  2   force =     0.00000000    0.00000000    0.00000000
     atom   36 type  4   force =     0.00000000    0.00000000    0.00000000
     atom   37 type  1   force =     0.00000000    0.00000000    0.00000000
     atom   38 type  4   force =     0.00000000    0.00000000    0.00000000
     atom   39 type  1   force =     0.00000000    0.00000000    0.00000000
     atom   40 type  1   force =     0.00000000    0.00000000    0.00000000
     atom   41 type  4   force =     0.00000000    0.00000000    0.00000000
     atom   42 type  1   force =     0.00000000    0.00000000    0.00000000
     atom   43 type  3   force =     0.00000000    0.00000000    0.00000000
     atom   44 type  3   force =     0.00000000    0.00000000    0.00000000
     atom   45 type  2   force =     0.00000000    0.00000000    0.00000000
     atom   46 type  4   force =     0.00000000    0.00000000    0.00000000
     atom   47 type  3   force =     0.00000000    0.00000000    0.00000000
     atom   48 type  3   force =     0.00000000    0.00000000    0.00000000
     atom   49 type  2   force =     0.00000000    0.00000000    0.00000000
     atom   50 type  4   force =     0.00000000    0.00000000    0.00000000
     atom   51 type  1   force =     0.00000000    0.00000000    0.00000000
     atom   52 type  4   force =     0.00000000    0.00000000    0.00000000
     atom   53 type  1   force =     0.00000000    0.00000000    0.00000000
     atom   54 type  1   force =     0.00000000    0.00000000    0.00000000
     atom   55 type  4   force =     0.00000000    0.00000000    0.00000000
     atom   56 type  1   force =     0.00000000    0.00000000    0.00000000
     The SCF correction term to forces
     atom    1 type  1   force =    -0.00008085   -0.00011799   -0.00002499
     atom    2 type  4   force =     0.00021727    0.00005816   -0.00005404
     atom    3 type  1   force =    -0.00001130    0.00000072    0.00008664
     atom    4 type  1   force =    -0.00004619    0.00006706   -0.00008213
     atom    5 type  4   force =    -0.00001352    0.00013113   -0.00015729
     atom    6 type  1   force =    -0.00011405    0.00034084   -0.00037870
     atom    7 type  4   force =    -0.00001376    0.00006838    0.00019177
     atom    8 type  2   force =    -0.00007017   -0.00007146    0.00003908
     atom    9 type  3   force =    -0.00001329   -0.00001414    0.00000846
     atom   10 type  3   force =    -0.00001186   -0.00002665    0.00000629
     atom   11 type  4   force =    -0.00002120    0.00009537   -0.00016174
     atom   12 type  2   force =     0.00000662   -0.00004436    0.00003774
     atom   13 type  3   force =    -0.00000110    0.00000233    0.00002000
     atom   14 type  3   force =    -0.00001250    0.00000037    0.00001287
     atom   15 type  3   force =    -0.00001250   -0.00000037    0.00001287
     atom   16 type  3   force =    -0.00000110   -0.00000233    0.00002000
     atom   17 type  2   force =     0.00000662    0.00004436    0.00003774
     atom   18 type  4   force =    -0.00002120   -0.00009537   -0.00016174
     atom   19 type  3   force =    -0.00001186    0.00002665    0.00000629
     atom   20 type  3   force =    -0.00001329    0.00001414    0.00000846
     atom   21 type  2   force =    -0.00007017    0.00007146    0.00003908
     atom   22 type  4   force =    -0.00001376   -0.00006838    0.00019177
     atom   23 type  1   force =    -0.00011405   -0.00034084   -0.00037870
     atom   24 type  4   force =    -0.00001352   -0.00013113   -0.00015729
     atom   25 type  1   force =    -0.00004619   -0.00006706   -0.00008213
     atom   26 type  1   force =    -0.00001130   -0.00000072    0.00008664
     atom   27 type  4   force =     0.00021727   -0.00005816   -0.00005404
     atom   28 type  1   force =    -0.00008085    0.00011799   -0.00002499
     atom   29 type  3   force =     0.00001250   -0.00000037   -0.00001287
     atom   30 type  3   force =     0.00000110   -0.00000233   -0.00002000
     atom   31 type  2   force =    -0.00000662    0.00004436   -0.00003774
     atom   32 type  4   force =     0.00002120   -0.00009537    0.00016174
     atom   33 type  3   force =     0.00001186    0.00002665   -0.00000629
     atom   34 type  3   force =     0.00001329    0.00001414   -0.00000846
     atom   35 type  2   force =     0.00007017    0.00007146   -0.00003908
     atom   36 type  4   force =     0.00001376   -0.00006838   -0.00019177
     atom   37 type  1   force =     0.00011405   -0.00034084    0.00037870
     atom   38 type  4   force =     0.00001352   -0.00013113    0.00015729
     atom   39 type  1   force =     0.00004619   -0.00006706    0.00008213
     atom   40 type  1   force =     0.00001130   -0.00000072   -0.00008664
     atom   41 type  4   force =    -0.00021727   -0.00005816    0.00005404
     atom   42 type  1   force =     0.00008085    0.00011799    0.00002499
     atom   43 type  3   force =     0.00001250    0.00000037   -0.00001287
     atom   44 type  3   force =     0.00000110    0.00000233   -0.00002000
     atom   45 type  2   force =    -0.00000662   -0.00004436   -0.00003774
     atom   46 type  4   force =     0.00002120    0.00009537    0.00016174
     atom   47 type  3   force =     0.00001186   -0.00002665   -0.00000629
     atom   48 type  3   force =     0.00001329   -0.00001414   -0.00000846
     atom   49 type  2   force =     0.00007017   -0.00007146   -0.00003908
     atom   50 type  4   force =     0.00001376    0.00006838   -0.00019177
     atom   51 type  1   force =     0.00011405    0.00034084    0.00037870
     atom   52 type  4   force =     0.00001352    0.00013113    0.00015729
     atom   53 type  1   force =     0.00004619    0.00006706    0.00008213
     atom   54 type  1   force =     0.00001130    0.00000072   -0.00008664
     atom   55 type  4   force =    -0.00021727    0.00005816    0.00005404
     atom   56 type  1   force =     0.00008085   -0.00011799    0.00002499

     Total force =     1.168616     Total SCF correction =     0.001421


     entering subroutine stress ...

          total   stress  (Ry/bohr**3)                   (kbar)     P=  150.11
   0.00106511   0.00000000   0.00013609        156.68      0.00     20.02
   0.00000000   0.00102378   0.00000000          0.00    150.60      0.00
   0.00013609   0.00000000   0.00097233         20.02      0.00    143.03

     kinetic stress (kbar)  15111.12      0.00    336.62
                                0.00  15507.47      0.00
                              336.62      0.00  15065.24

     local   stress (kbar) -15844.39      0.00   8035.31
                                0.00  -8941.32     -0.00
                             8035.31     -0.00 -11983.50

     nonloc. stress (kbar)   1019.04      0.00     11.42
                                0.00   1029.53      0.00
                               11.42      0.00    990.50

     hartree stress (kbar)   7142.19     -0.00  -2935.76
                               -0.00   5093.16     -0.00
                            -2935.76     -0.00   5663.78

     exc-cor stress (kbar)  -2178.33     -0.00    -11.15
                               -0.00  -2198.21      0.00
                              -11.15      0.00  -2183.97

     corecor stress (kbar)  -1130.94      0.00     -2.82
                                0.00  -1132.84      0.00
                               -2.82      0.00  -1130.66

     ewald   stress (kbar)  -3962.00      0.00  -5413.60
                                0.00  -9207.19     -0.00
                            -5413.60     -0.00  -6278.35

     hubbard stress (kbar)      0.00      0.00      0.00
                                0.00      0.00      0.00
                                0.00      0.00      0.00

     london  stress (kbar)      0.00      0.00      0.00
                                0.00      0.00      0.00
                                0.00      0.00      0.00

     XDM     stress (kbar)      0.00      0.00      0.00
                                0.00      0.00      0.00
                                0.00      0.00      0.00

     dft-nl  stress (kbar)      0.00      0.00      0.00
                                0.00      0.00      0.00
                                0.00      0.00      0.00

     TS-vdW  stress (kbar)      0.00      0.00      0.00
                                0.00      0.00      0.00
                                0.00      0.00      0.00



     Writing output data file scf.pbe.ec-140.kp-444.HMX-792930.np-8.300K.save

     init_run     :    544.01s CPU    498.18s WALL (       1 calls)
     electrons    :  13869.97s CPU  11480.84s WALL (       1 calls)
     forces       :    309.71s CPU    277.16s WALL (       1 calls)
     stress       :    760.84s CPU    754.47s WALL (       1 calls)

     Called by init_run:
     wfcinit      :    301.23s CPU    246.31s WALL (       1 calls)
     potinit      :     85.51s CPU     87.77s WALL (       1 calls)

     Called by electrons:
     c_bands      :  11943.53s CPU   9605.70s WALL (      19 calls)
     sum_band     :   1727.54s CPU   1657.19s WALL (      19 calls)
     v_of_rho     :     55.70s CPU     59.99s WALL (      20 calls)
     v_h          :      4.09s CPU      4.45s WALL (      20 calls)
     v_xc         :     56.77s CPU     61.22s WALL (      22 calls)
     newd         :    110.18s CPU    122.05s WALL (      20 calls)
     PAW_pot      :     17.71s CPU     17.99s WALL (      20 calls)
     mix_rho      :     15.46s CPU     16.50s WALL (      19 calls)

     Called by c_bands:
     init_us_2    :     69.74s CPU     70.07s WALL (     656 calls)
     cegterg      :  11732.65s CPU   9370.12s WALL (     304 calls)

     Called by sum_band:
     sum_band:bec :      0.49s CPU      0.46s WALL (     304 calls)
     addusdens    :    121.50s CPU    173.94s WALL (      19 calls)

     Called by *egterg:
     h_psi        :   7066.46s CPU   6217.74s WALL (    1425 calls)
     s_psi        :   1290.86s CPU    686.84s WALL (    1425 calls)
     g_psi        :     22.65s CPU     22.68s WALL (    1105 calls)
     cdiaghg      :    443.53s CPU    398.31s WALL (    1409 calls)
     cegterg:over :   1360.25s CPU    899.33s WALL (    1105 calls)
     cegterg:upda :    888.78s CPU    464.16s WALL (    1105 calls)
     cegterg:last :    430.20s CPU    231.56s WALL (     304 calls)

     Called by h_psi:
     h_psi:vloc   :   4195.14s CPU   4533.98s WALL (    1425 calls)
     h_psi:vnl    :   2832.27s CPU   1643.58s WALL (    1425 calls)
     add_vuspsi   :   1298.14s CPU    691.42s WALL (    1425 calls)

     General routines
     calbec       :   2194.19s CPU   1370.34s WALL (    1809 calls)
     fft          :     52.11s CPU     62.16s WALL (     341 calls)
     ffts         :      1.94s CPU      2.11s WALL (      39 calls)
     fftw         :   3606.66s CPU   4016.03s WALL (  225990 calls)
     interpolate  :     11.58s CPU     12.25s WALL (      39 calls)
     davcio       :      0.55s CPU     44.61s WALL (      16 calls)

     Parallel routines
     fft_scatter  :   1120.83s CPU   1531.40s WALL (  226370 calls)

     PAW routines
     PAW_pot      :     17.71s CPU     17.99s WALL (      20 calls)
     PAW_symme    :      0.02s CPU      0.07s WALL (      39 calls)

     PWSCF        :     4h18m CPU        3h37m WALL


   This run was terminated on:  15:58: 5  25Jun2016            

=------------------------------------------------------------------------------=
   JOB DONE.
=------------------------------------------------------------------------------=
