
     Program PWSCF v.5.3.0 (svn rev. 11974) starts on 21May2016 at 22:56: 1 

     This program is part of the open-source Quantum ESPRESSO suite
     for quantum simulation of materials; please cite
         "P. Giannozzi et al., J. Phys.:Condens. Matter 21 395502 (2009);
          URL http://www.quantum-espresso.org", 
     in publications or presentations arising from this work. More details at
     http://www.quantum-espresso.org/quote

     Parallel version (MPI), running on    32 processors
     R & G space division:  proc/nbgrp/npool/nimage =      32
     Waiting for input...
     Reading input from standard input
Warning: card    &IONS ignored
Warning: card TRUST_RADIUS_MAX=0.2 ignored
Warning: card / ignored
Warning: card     &CELL ignored
Warning: card CELL_DYNAMICS='BFGS' ignored
Warning: card / ignored

     Current dimensions of program PWSCF are:
     Max number of different atomic species (ntypx) = 10
     Max number of k-points (npk) =  40000
     Max angular momentum in pseudopotentials (lmaxx) =  3
               file N.pbe-n-kjpaw_psl.1.0.0.UPF: wavefunction(s)  2S renormalized
               file C.pbe-n-kjpaw_psl.1.0.0.UPF: wavefunction(s)  2S 2P renormalized
               file H.pbe-kjpaw_psl.1.0.0.UPF: wavefunction(s)  1S renormalized
               file O.pbe-n-kjpaw_psl.1.0.0.UPF: wavefunction(s)  2S 2P renormalized

     Subspace diagonalization in iterative solution of the eigenvalue problem:
     a serial algorithm will be used


     Parallelization info
     --------------------
     sticks:   dense  smooth     PW     G-vecs:    dense   smooth      PW
     Min         382     153     41                26908     6792     957
     Max         383     154     42                26911     6832     960
     Sum       12225    4903   1319               861131   217973   30649


     Title: 
     HMX-scf-pbe-n-kjpaw-kp242-ec-60-nofor-nostress-conv-em4                    


     bravais-lattice index     =            0
     lattice parameter (alat)  =       1.8897  a.u.
     unit-cell volume          =    3470.0091 (a.u.)^3
     number of atoms/cell      =           56
     number of atomic types    =            4
     number of electrons       =       224.00
     number of Kohn-Sham states=          112
     kinetic-energy cutoff     =      60.0000  Ry
     charge density cutoff     =     600.0000  Ry
     convergence threshold     =      1.0E-06
     mixing beta               =       0.7000
     number of iterations used =            8  plain     mixing
     Exchange-correlation      =  SLA  PW   PBX  PBC ( 1  4  3  4 0 0)

     celldm(1)=   1.889726  celldm(2)=   0.000000  celldm(3)=   0.000000
     celldm(4)=   0.000000  celldm(5)=   0.000000  celldm(6)=   0.000000

     crystal axes: (cart. coord. in units of alat)
               a(1) = (   6.528900   0.000000   0.000000 )  
               a(2) = (   0.000000  10.987500   0.000000 )  
               a(3) = (  -1.604329   0.000000   7.167954 )  

     reciprocal axes: (cart. coord. in units 2 pi/alat)
               b(1) = (  0.153165 -0.000000  0.034281 )  
               b(2) = (  0.000000  0.091013 -0.000000 )  
               b(3) = (  0.000000  0.000000  0.139510 )  


     PseudoPot. # 1 for  N read from file:
     /users/majewski/.data/PSEUDOPOTENTIALS/N.pbe-n-kjpaw_psl.1.0.0.UPF
     MD5 check sum: c21df8f53e59d08c3548513d559cdda6
     Pseudo is Projector augmented-wave + core cor, Zval =  5.0
     Generated using "atomic" code by A. Dal Corso  v.5.3.0 svn rev. 11974
     Shape of augmentation charge: PSQ
     Using radial grid of 1085 points,  4 beta functions with: 
                l(1) =   0
                l(2) =   0
                l(3) =   1
                l(4) =   1
     Q(r) pseudized with 0 coefficients 


     PseudoPot. # 2 for  C read from file:
     /users/majewski/.data/PSEUDOPOTENTIALS/C.pbe-n-kjpaw_psl.1.0.0.UPF
     MD5 check sum: 2ba8448e293caca687844dde9a1b88a8
     Pseudo is Projector augmented-wave + core cor, Zval =  4.0
     Generated using "atomic" code by A. Dal Corso  v.5.3.0 svn rev. 11974
     Shape of augmentation charge: PSQ
     Using radial grid of 1073 points,  4 beta functions with: 
                l(1) =   0
                l(2) =   0
                l(3) =   1
                l(4) =   1
     Q(r) pseudized with 0 coefficients 


     PseudoPot. # 3 for  H read from file:
     /users/majewski/.data/PSEUDOPOTENTIALS/H.pbe-kjpaw_psl.1.0.0.UPF
     MD5 check sum: bc0feb48a24907a0b97fa6ee2d589a29
     Pseudo is Projector augmented-wave, Zval =  1.0
     Generated using "atomic" code by A. Dal Corso  v.5.3.0 svn rev. 11974
     Shape of augmentation charge: PSQ
     Using radial grid of  929 points,  2 beta functions with: 
                l(1) =   0
                l(2) =   0
     Q(r) pseudized with 0 coefficients 


     PseudoPot. # 4 for  O read from file:
     /users/majewski/.data/PSEUDOPOTENTIALS/O.pbe-n-kjpaw_psl.1.0.0.UPF
     MD5 check sum: 9c0ade6c043cf4a781bde3908a3a8206
     Pseudo is Projector augmented-wave + core cor, Zval =  6.0
     Generated using "atomic" code by A. Dal Corso  v.5.3.0 svn rev. 11974
     Shape of augmentation charge: PSQ
     Using radial grid of 1095 points,  4 beta functions with: 
                l(1) =   0
                l(2) =   0
                l(3) =   1
                l(4) =   1
     Q(r) pseudized with 0 coefficients 


     atomic species   valence    mass     pseudopotential
        N              5.00    14.00670      N( 1.00)
        C              4.00    12.01100      C( 1.00)
        H              1.00     1.00790      H( 1.00)
        O              6.00    15.99940      O( 1.00)

      4 Sym. Ops., with inversion, found ( 2 have fractional translation)


                                    s                        frac. trans.

      isym =  1     identity                                     

 cryst.   s( 1) = (     1          0          0      )
                  (     0          1          0      )
                  (     0          0          1      )

 cart.    s( 1) = (  1.0000000  0.0000000  0.0000000 )
                  (  0.0000000  1.0000000  0.0000000 )
                  (  0.0000000  0.0000000  1.0000000 )


      isym =  2     180 deg rotation - cart. axis [0,1,0]        

 cryst.   s( 2) = (    -1          0          0      )    f =(  0.5000000 )
                  (     0          1          0      )       (  0.5000000 )
                  (     0          0         -1      )       (  0.5000000 )

 cart.    s( 2) = ( -1.0000000  0.0000000 -0.0000000 )    f =(  2.4622854 )
                  (  0.0000000  1.0000000  0.0000000 )       (  5.4937500 )
                  (  0.0000000  0.0000000 -1.0000000 )       (  3.5839768 )


      isym =  3     inversion                                    

 cryst.   s( 3) = (    -1          0          0      )
                  (     0         -1          0      )
                  (     0          0         -1      )

 cart.    s( 3) = ( -1.0000000  0.0000000 -0.0000000 )
                  (  0.0000000 -1.0000000  0.0000000 )
                  (  0.0000000  0.0000000 -1.0000000 )


      isym =  4     inv. 180 deg rotation - cart. axis [0,1,0]   

 cryst.   s( 4) = (     1          0          0      )    f =( -0.5000000 )
                  (     0         -1          0      )       (  0.5000000 )
                  (     0          0          1      )       (  0.5000000 )

 cart.    s( 4) = (  1.0000000  0.0000000  0.0000000 )    f =( -4.0666146 )
                  (  0.0000000 -1.0000000  0.0000000 )       (  5.4937500 )
                  (  0.0000000  0.0000000  1.0000000 )       (  3.5839768 )


   Cartesian axes

     site n.     atom                  positions (alat units)
         1           N   tau(   1) = (  -0.8614487   6.8444434   3.3109495  )
         2           O   tau(   2) = (   1.0746241   7.9096815   3.1371266  )
         3           N   tau(   3) = (   0.0618658   7.7221249   3.8135664  )
         4           N   tau(   4) = (  -2.0647129   5.7697560   5.0587833  )
         5           O   tau(   5) = (  -3.2542440   4.7069351   6.6110753  )
         6           N   tau(   6) = (  -3.2426279   5.5114399   5.6869828  )
         7           O   tau(   7) = (  -0.1753723   8.2085415   4.8971459  )
         8           C   tau(   8) = (  -2.1300386   6.7612680   3.9714764  )
         9           H   tau(   9) = (  -2.8138762   6.5024025   3.3338152  )
        10           H   tau(  10) = (  -2.3673225   7.6286213   4.3344616  )
        11           O   tau(  11) = (  -4.2140784   6.1608011   5.2929603  )
        12           C   tau(  12) = (  -0.5990533   6.2146399   2.0230832  )
        13           H   tau(  13) = (  -1.3903515   5.7475613   1.7138577  )
        14           H   tau(  14) = (  -0.3482788   6.8660888   1.3518761  )
        15           H   tau(  15) = (   3.7183358  -1.3723388  -2.2321008  )
        16           H   tau(  16) = (   2.6762631  -0.2538112  -1.8701191  )
        17           C   tau(  17) = (   3.4675614  -0.7208899  -1.5608936  )
        18           O   tau(  18) = (  -0.1474638  -0.6670511   1.7089835  )
        19           H   tau(  19) = (   1.6992921  -2.1348713   0.7504847  )
        20           H   tau(  20) = (   1.2527385  -1.0086525  -0.2501616  )
        21           C   tau(  21) = (   1.9365761  -1.2675180   0.3874996  )
        22           O   tau(  22) = (   3.8912424  -2.7147915   1.3131691  )
        23           N   tau(  23) = (   0.8239867  -0.0176899   2.1030059  )
        24           O   tau(  24) = (   0.8123707   0.7868149   3.0270985  )
        25           N   tau(  25) = (   2.0019018  -0.2760060   1.4748065  )
        26           N   tau(  26) = (   4.1284804  -2.2283749   0.2295896  )
        27           O   tau(  27) = (   5.1412387  -2.4159315  -0.4468502  )
        28           N   tau(  28) = (   3.2051660  -1.3506934  -0.2730274  )
        29           H   tau(  29) = (  -1.2560505   4.1214113   5.8160776  )
        30           H   tau(  30) = (  -0.2139778   5.2399388   5.4540959  )
        31           C   tau(  31) = (  -1.0052760   4.7728601   5.1448704  )
        32           O   tau(  32) = (   2.6097491   4.8266989   1.8749933  )
        33           H   tau(  33) = (   0.7629932   3.3588788   2.8334921  )
        34           H   tau(  34) = (   1.2095469   4.4850975   3.8341384  )
        35           C   tau(  35) = (   0.5257093   4.2262320   3.1964773  )
        36           O   tau(  36) = (  -1.4289570   2.7789585   2.2708077  )
        37           N   tau(  37) = (   1.6382987   5.4760601   1.4809709  )
        38           O   tau(  38) = (   1.6499147   6.2805649   0.5568783  )
        39           N   tau(  39) = (   0.4603836   5.2177440   2.1091704  )
        40           N   tau(  40) = (  -1.6661950   3.2653751   3.3543873  )
        41           O   tau(  41) = (  -2.6789534   3.0778185   4.0308271  )
        42           N   tau(  42) = (  -0.7428806   4.1430566   3.8570042  )
        43           H   tau(  43) = (   2.8105642   1.3723388   2.2321008  )
        44           H   tau(  44) = (   3.8526369   0.2538112   1.8701191  )
        45           C   tau(  45) = (   3.0613386   0.7208899   1.5608936  )
        46           O   tau(  46) = (   6.6763638   0.6670511  -1.7089835  )
        47           H   tau(  47) = (   4.8296079   2.1348713  -0.7504847  )
        48           H   tau(  48) = (   5.2761615   1.0086525   0.2501616  )
        49           C   tau(  49) = (   4.5923239   1.2675180  -0.3874996  )
        50           O   tau(  50) = (   2.6376576   2.7147915  -1.3131691  )
        51           N   tau(  51) = (   5.7049133   0.0176899  -2.1030059  )
        52           O   tau(  52) = (   5.7165293  -0.7868149  -3.0270985  )
        53           N   tau(  53) = (   4.5269982   0.2760060  -1.4748065  )
        54           N   tau(  54) = (   2.4004196   2.2283749  -0.2295896  )
        55           O   tau(  55) = (   1.3876613   2.4159315   0.4468502  )
        56           N   tau(  56) = (   3.3237340   1.3506934   0.2730274  )

   Crystallographic axes

     site n.     atom                  positions (cryst. coord.)
         1           N   tau(   1) = ( -0.0184400  0.6229300  0.4619100  )
         2           O   tau(   2) = (  0.2721400  0.7198800  0.4376600  )
         3           N   tau(   3) = (  0.1402100  0.7028100  0.5320300  )
         4           N   tau(   4) = ( -0.1428200  0.5251200  0.7057500  )
         5           O   tau(   5) = ( -0.2718000  0.4283900  0.9223100  )
         6           N   tau(   6) = ( -0.3017000  0.5016100  0.7933900  )
         7           O   tau(   7) = (  0.1410200  0.7470800  0.6832000  )
         8           C   tau(   8) = ( -0.1901000  0.6153600  0.5540600  )
         9           H   tau(   9) = ( -0.3167000  0.5918000  0.4651000  )
        10           H   tau(  10) = ( -0.2140000  0.6943000  0.6047000  )
        11           O   tau(  11) = ( -0.4640000  0.5607100  0.7384200  )
        12           C   tau(  12) = ( -0.0224000  0.5656100  0.2822400  )
        13           H   tau(  13) = ( -0.1542000  0.5231000  0.2391000  )
        14           H   tau(  14) = ( -0.0070000  0.6249000  0.1886000  )
        15           H   tau(  15) = (  0.4930000 -0.1249000 -0.3114000  )
        16           H   tau(  16) = (  0.3458000 -0.0231000 -0.2609000  )
        17           C   tau(  17) = (  0.4776000 -0.0656100 -0.2177600  )
        18           O   tau(  18) = (  0.0360000 -0.0607100  0.2384200  )
        19           H   tau(  19) = (  0.2860000 -0.1943000  0.1047000  )
        20           H   tau(  20) = (  0.1833000 -0.0918000 -0.0349000  )
        21           C   tau(  21) = (  0.3099000 -0.1153600  0.0540600  )
        22           O   tau(  22) = (  0.6410200 -0.2470800  0.1832000  )
        23           N   tau(  23) = (  0.1983000 -0.0016100  0.2933900  )
        24           O   tau(  24) = (  0.2282000  0.0716100  0.4223100  )
        25           N   tau(  25) = (  0.3571800 -0.0251200  0.2057500  )
        26           N   tau(  26) = (  0.6402100 -0.2028100  0.0320300  )
        27           O   tau(  27) = (  0.7721400 -0.2198800 -0.0623400  )
        28           N   tau(  28) = (  0.4815600 -0.1229300 -0.0380900  )
        29           H   tau(  29) = (  0.0070000  0.3751000  0.8114000  )
        30           H   tau(  30) = (  0.1542000  0.4769000  0.7609000  )
        31           C   tau(  31) = (  0.0224000  0.4343900  0.7177600  )
        32           O   tau(  32) = (  0.4640000  0.4392900  0.2615800  )
        33           H   tau(  33) = (  0.2140000  0.3057000  0.3953000  )
        34           H   tau(  34) = (  0.3167000  0.4082000  0.5349000  )
        35           C   tau(  35) = (  0.1901000  0.3846400  0.4459400  )
        36           O   tau(  36) = ( -0.1410200  0.2529200  0.3168000  )
        37           N   tau(  37) = (  0.3017000  0.4983900  0.2066100  )
        38           O   tau(  38) = (  0.2718000  0.5716100  0.0776900  )
        39           N   tau(  39) = (  0.1428200  0.4748800  0.2942500  )
        40           N   tau(  40) = ( -0.1402100  0.2971900  0.4679700  )
        41           O   tau(  41) = ( -0.2721400  0.2801200  0.5623400  )
        42           N   tau(  42) = (  0.0184400  0.3770700  0.5380900  )
        43           H   tau(  43) = (  0.5070000  0.1249000  0.3114000  )
        44           H   tau(  44) = (  0.6542000  0.0231000  0.2609000  )
        45           C   tau(  45) = (  0.5224000  0.0656100  0.2177600  )
        46           O   tau(  46) = (  0.9640000  0.0607100 -0.2384200  )
        47           H   tau(  47) = (  0.7140000  0.1943000 -0.1047000  )
        48           H   tau(  48) = (  0.8167000  0.0918000  0.0349000  )
        49           C   tau(  49) = (  0.6901000  0.1153600 -0.0540600  )
        50           O   tau(  50) = (  0.3589800  0.2470800 -0.1832000  )
        51           N   tau(  51) = (  0.8017000  0.0016100 -0.2933900  )
        52           O   tau(  52) = (  0.7718000 -0.0716100 -0.4223100  )
        53           N   tau(  53) = (  0.6428200  0.0251200 -0.2057500  )
        54           N   tau(  54) = (  0.3597900  0.2028100 -0.0320300  )
        55           O   tau(  55) = (  0.2278600  0.2198800  0.0623400  )
        56           N   tau(  56) = (  0.5184400  0.1229300  0.0380900  )

     number of k points=    16
                       cart. coord. in units 2pi/alat
        k(    1) = (   0.0191456   0.0113766   0.0217239), wk =   0.1250000
        k(    2) = (   0.0191456   0.0113766   0.0566014), wk =   0.1250000
        k(    3) = (   0.0191456   0.0113766  -0.0480310), wk =   0.1250000
        k(    4) = (   0.0191456   0.0113766  -0.0131536), wk =   0.1250000
        k(    5) = (   0.0191456   0.0341297   0.0217239), wk =   0.1250000
        k(    6) = (   0.0191456   0.0341297   0.0566014), wk =   0.1250000
        k(    7) = (   0.0191456   0.0341297  -0.0480310), wk =   0.1250000
        k(    8) = (   0.0191456   0.0341297  -0.0131536), wk =   0.1250000
        k(    9) = (   0.0574369   0.0113766   0.0302942), wk =   0.1250000
        k(   10) = (   0.0574369   0.0113766   0.0651717), wk =   0.1250000
        k(   11) = (   0.0574369   0.0113766  -0.0394607), wk =   0.1250000
        k(   12) = (   0.0574369   0.0113766  -0.0045832), wk =   0.1250000
        k(   13) = (   0.0574369   0.0341297   0.0302942), wk =   0.1250000
        k(   14) = (   0.0574369   0.0341297   0.0651717), wk =   0.1250000
        k(   15) = (   0.0574369   0.0341297  -0.0394607), wk =   0.1250000
        k(   16) = (   0.0574369   0.0341297  -0.0045832), wk =   0.1250000

                       cryst. coord.
        k(    1) = (   0.1250000   0.1250000   0.1250000), wk =   0.1250000
        k(    2) = (   0.1250000   0.1250000   0.3750000), wk =   0.1250000
        k(    3) = (   0.1250000   0.1250000  -0.3750000), wk =   0.1250000
        k(    4) = (   0.1250000   0.1250000  -0.1250000), wk =   0.1250000
        k(    5) = (   0.1250000   0.3750000   0.1250000), wk =   0.1250000
        k(    6) = (   0.1250000   0.3750000   0.3750000), wk =   0.1250000
        k(    7) = (   0.1250000   0.3750000  -0.3750000), wk =   0.1250000
        k(    8) = (   0.1250000   0.3750000  -0.1250000), wk =   0.1250000
        k(    9) = (   0.3750000   0.1250000   0.1250000), wk =   0.1250000
        k(   10) = (   0.3750000   0.1250000   0.3750000), wk =   0.1250000
        k(   11) = (   0.3750000   0.1250000  -0.3750000), wk =   0.1250000
        k(   12) = (   0.3750000   0.1250000  -0.1250000), wk =   0.1250000
        k(   13) = (   0.3750000   0.3750000   0.1250000), wk =   0.1250000
        k(   14) = (   0.3750000   0.3750000   0.3750000), wk =   0.1250000
        k(   15) = (   0.3750000   0.3750000  -0.3750000), wk =   0.1250000
        k(   16) = (   0.3750000   0.3750000  -0.1250000), wk =   0.1250000

     Dense  grid:   861131 G-vectors     FFT dimensions: ( 100, 162, 120)

     Smooth grid:   217973 G-vectors     FFT dimensions: (  64, 108,  72)

     Largest allocated arrays     est. size (Mb)     dimensions
        Kohn-Sham Wavefunctions         1.46 Mb     (     852,  112)
        NL pseudopotentials             4.58 Mb     (     852,  352)
        Each V/rho on FFT grid          0.99 Mb     (   64800)
        Each G-vector array             0.21 Mb     (   26911)
        G-vector shells                 0.20 Mb     (   26203)
     Largest temporary arrays     est. size (Mb)     dimensions
        Auxiliary wavefunctions         5.82 Mb     (     852,  448)
        Each subspace H/S matrix        3.06 Mb     (     448,  448)
        Each <psi_i|beta_j> matrix      0.60 Mb     (     352,  112)
        Arrays for rho mixing           7.91 Mb     (   64800,    8)

     Check: negative/imaginary core charge=   -0.000001    0.000000

     Initial potential from superposition of free atoms

     starting charge  223.99937, renormalised to  224.00000
     Starting wfc are  176 randomized atomic wfcs
     Checking if some PAW data can be deallocated... 
       node    0, deallocated PAW data for type:  2
       node    0, deallocated PAW data for type:  3
       node    1, deallocated PAW data for type:  2
       node    1, deallocated PAW data for type:  3
       node    1, deallocated PAW data for type:  4
       node    2, deallocated PAW data for type:  2
       node    2, deallocated PAW data for type:  3
       node    3, deallocated PAW data for type:  1
       node    3, deallocated PAW data for type:  3
       node    4, deallocated PAW data for type:  1
       node    4, deallocated PAW data for type:  2
       node    4, deallocated PAW data for type:  4
       node    5, deallocated PAW data for type:  1
       node    5, deallocated PAW data for type:  3
       node    6, deallocated PAW data for type:  1
       node    6, deallocated PAW data for type:  2
       node    6, deallocated PAW data for type:  4
       node    7, deallocated PAW data for type:  1
       node    7, deallocated PAW data for type:  2
       node    7, deallocated PAW data for type:  4
       node    8, deallocated PAW data for type:  1
       node    8, deallocated PAW data for type:  3
       node    9, deallocated PAW data for type:  1
       node    9, deallocated PAW data for type:  2
       node    9, deallocated PAW data for type:  4
       node   10, deallocated PAW data for type:  1
       node   10, deallocated PAW data for type:  3
       node   11, deallocated PAW data for type:  2
       node   11, deallocated PAW data for type:  3
       node   12, deallocated PAW data for type:  2
       node   12, deallocated PAW data for type:  3
       node   12, deallocated PAW data for type:  4
       node   13, deallocated PAW data for type:  2
       node   13, deallocated PAW data for type:  3
       node   14, deallocated PAW data for type:  1
       node   14, deallocated PAW data for type:  2
       node   14, deallocated PAW data for type:  4
       node   15, deallocated PAW data for type:  1
       node   15, deallocated PAW data for type:  3
       node   16, deallocated PAW data for type:  1
       node   16, deallocated PAW data for type:  2
       node   16, deallocated PAW data for type:  4
       node   17, deallocated PAW data for type:  1
       node   17, deallocated PAW data for type:  3
       node   18, deallocated PAW data for type:  2
       node   18, deallocated PAW data for type:  3
       node   19, deallocated PAW data for type:  2
       node   19, deallocated PAW data for type:  3
       node   19, deallocated PAW data for type:  4
       node   20, deallocated PAW data for type:  2
       node   20, deallocated PAW data for type:  3
       node   21, deallocated PAW data for type:  1
       node   21, deallocated PAW data for type:  2
       node   21, deallocated PAW data for type:  4
       node   22, deallocated PAW data for type:  1
       node   22, deallocated PAW data for type:  3
       node   23, deallocated PAW data for type:  1
       node   23, deallocated PAW data for type:  2
       node   23, deallocated PAW data for type:  4
       node   24, deallocated PAW data for type:  1
       node   24, deallocated PAW data for type:  3
       node   24, deallocated PAW data for type:  4
       node   25, deallocated PAW data for type:  1
       node   25, deallocated PAW data for type:  2
       node   25, deallocated PAW data for type:  3
       node   26, deallocated PAW data for type:  2
       node   26, deallocated PAW data for type:  3
       node   26, deallocated PAW data for type:  4
       node   27, deallocated PAW data for type:  1
       node   27, deallocated PAW data for type:  2
       node   27, deallocated PAW data for type:  3
       node   28, deallocated PAW data for type:  2
       node   28, deallocated PAW data for type:  3
       node   28, deallocated PAW data for type:  4
       node   29, deallocated PAW data for type:  2
       node   29, deallocated PAW data for type:  3
       node   29, deallocated PAW data for type:  4
       node   30, deallocated PAW data for type:  1
       node   30, deallocated PAW data for type:  2
       node   30, deallocated PAW data for type:  3
       node   31, deallocated PAW data for type:  2
       node   31, deallocated PAW data for type:  3
       node   31, deallocated PAW data for type:  4

     total cpu time spent up to now is      118.2 secs

     per-process dynamical memory:    56.5 Mb

     Self-consistent Calculation

     iteration #  1     ecut=    60.00 Ry     beta=0.70
     Davidson diagonalization with overlap
     ethr =  1.00E-02,  avg # of iterations =  3.0

     total cpu time spent up to now is      282.9 secs

     total energy              =   -1279.36096549 Ry
     Harris-Foulkes estimate   =   -1283.83017084 Ry
     estimated scf accuracy    <       6.86463715 Ry

     iteration #  2     ecut=    60.00 Ry     beta=0.70
     Davidson diagonalization with overlap
     ethr =  3.06E-03,  avg # of iterations =  4.0

     total cpu time spent up to now is      494.5 secs

     total energy              =   -1280.15304023 Ry
     Harris-Foulkes estimate   =   -1283.85385897 Ry
     estimated scf accuracy    <       7.51578048 Ry

     iteration #  3     ecut=    60.00 Ry     beta=0.70
     Davidson diagonalization with overlap
     ethr =  3.06E-03,  avg # of iterations =  4.0

     total cpu time spent up to now is      700.2 secs

     total energy              =   -1281.75261248 Ry
     Harris-Foulkes estimate   =   -1281.98684581 Ry
     estimated scf accuracy    <       0.43136427 Ry

     iteration #  4     ecut=    60.00 Ry     beta=0.70
     Davidson diagonalization with overlap
     ethr =  1.93E-04,  avg # of iterations =  4.9

     total cpu time spent up to now is      907.3 secs

     total energy              =   -1281.89457341 Ry
     Harris-Foulkes estimate   =   -1281.98873633 Ry
     estimated scf accuracy    <       0.21072668 Ry

     iteration #  5     ecut=    60.00 Ry     beta=0.70
     Davidson diagonalization with overlap
     ethr =  9.41E-05,  avg # of iterations =  4.0

     total cpu time spent up to now is     1104.4 secs

     total energy              =   -1281.93726484 Ry
     Harris-Foulkes estimate   =   -1281.94448805 Ry
     estimated scf accuracy    <       0.01719733 Ry

     iteration #  6     ecut=    60.00 Ry     beta=0.70
     Davidson diagonalization with overlap
     ethr =  7.68E-06,  avg # of iterations =  4.9

     total cpu time spent up to now is     1253.0 secs

     total energy              =   -1281.94046278 Ry
     Harris-Foulkes estimate   =   -1281.94252296 Ry
     estimated scf accuracy    <       0.00496276 Ry

     iteration #  7     ecut=    60.00 Ry     beta=0.70
     Davidson diagonalization with overlap
     ethr =  2.22E-06,  avg # of iterations =  5.7

     total cpu time spent up to now is     1376.1 secs

     total energy              =   -1281.94140413 Ry
     Harris-Foulkes estimate   =   -1281.94150319 Ry
     estimated scf accuracy    <       0.00021786 Ry

     iteration #  8     ecut=    60.00 Ry     beta=0.70
     Davidson diagonalization with overlap
     ethr =  9.73E-08,  avg # of iterations =  5.0

     total cpu time spent up to now is     1618.2 secs

     total energy              =   -1281.94163150 Ry
     Harris-Foulkes estimate   =   -1281.94176868 Ry
     estimated scf accuracy    <       0.00045763 Ry

     iteration #  9     ecut=    60.00 Ry     beta=0.70
     Davidson diagonalization with overlap
     ethr =  9.73E-08,  avg # of iterations =  5.1

     total cpu time spent up to now is     1784.2 secs

     total energy              =   -1281.94166271 Ry
     Harris-Foulkes estimate   =   -1281.94167970 Ry
     estimated scf accuracy    <       0.00005352 Ry

     iteration # 10     ecut=    60.00 Ry     beta=0.70
     Davidson diagonalization with overlap
     ethr =  2.39E-08,  avg # of iterations =  4.9

     total cpu time spent up to now is     1925.6 secs

     total energy              =   -1281.94166790 Ry
     Harris-Foulkes estimate   =   -1281.94167488 Ry
     estimated scf accuracy    <       0.00001925 Ry

     iteration # 11     ecut=    60.00 Ry     beta=0.70
     Davidson diagonalization with overlap
     ethr =  8.59E-09,  avg # of iterations =  6.1

     total cpu time spent up to now is     2089.4 secs

     total energy              =   -1281.94166969 Ry
     Harris-Foulkes estimate   =   -1281.94167066 Ry
     estimated scf accuracy    <       0.00000189 Ry

     iteration # 12     ecut=    60.00 Ry     beta=0.70
     Davidson diagonalization with overlap
     ethr =  8.42E-10,  avg # of iterations =  4.3

     total cpu time spent up to now is     2304.6 secs

     total energy              =   -1281.94167119 Ry
     Harris-Foulkes estimate   =   -1281.94167238 Ry
     estimated scf accuracy    <       0.00000376 Ry

     iteration # 13     ecut=    60.00 Ry     beta=0.70
     Davidson diagonalization with overlap
     ethr =  8.42E-10,  avg # of iterations =  5.9

     total cpu time spent up to now is     2447.4 secs

     End of self-consistent calculation

          k = 0.0191 0.0114 0.0217 ( 27192 PWs)   bands (ev):

   -24.0561 -24.0376 -24.0285 -24.0186 -23.6334 -23.6252 -23.6215 -23.6207
   -19.2315 -19.2263 -19.2194 -19.2079 -18.8201 -18.8195 -18.8159 -18.8151
   -18.2948 -18.2705 -17.2877 -17.2410 -17.1005 -17.1000 -16.1026 -16.0901
   -12.1497 -12.1468 -12.1345 -12.0211 -11.9710 -11.9008 -11.8457 -11.8242
    -8.9232  -8.8829  -8.3210  -8.2850  -7.6003  -7.5602  -7.4873  -7.4858
    -6.8772  -6.7705  -6.6198  -6.5677  -6.5573  -6.4169  -6.3681  -6.3081
    -6.1617  -6.1395  -6.0989  -5.9614  -5.9338  -5.8606  -5.7785  -5.7397
    -5.7027  -5.6774  -5.5891  -5.5667  -5.1457  -5.0371  -4.9505  -4.9344
    -4.5125  -4.4747  -4.4439  -4.4141  -4.2509  -4.1637  -3.8785  -3.8694
    -3.7158  -3.6385  -3.5744  -3.5507  -3.1893  -3.1528  -3.1080  -3.0850
    -0.8023  -0.7914  -0.3485  -0.3385  -0.2512  -0.1867  -0.1246  -0.0932
    -0.0425  -0.0091   0.1741   0.2036   0.2162   0.2475   0.3737   0.3880
     0.4349   0.4533   0.6152   0.6665   0.7483   0.8111   0.8573   0.8839
     0.9006   1.0186   1.0586   1.1334   1.2009   1.3301   1.3676   1.3854

     occupation numbers 
     1.0000   1.0000   1.0000   1.0000   1.0000   1.0000   1.0000   1.0000
     1.0000   1.0000   1.0000   1.0000   1.0000   1.0000   1.0000   1.0000
     1.0000   1.0000   1.0000   1.0000   1.0000   1.0000   1.0000   1.0000
     1.0000   1.0000   1.0000   1.0000   1.0000   1.0000   1.0000   1.0000
     1.0000   1.0000   1.0000   1.0000   1.0000   1.0000   1.0000   1.0000
     1.0000   1.0000   1.0000   1.0000   1.0000   1.0000   1.0000   1.0000
     1.0000   1.0000   1.0000   1.0000   1.0000   1.0000   1.0000   1.0000
     1.0000   1.0000   1.0000   1.0000   1.0000   1.0000   1.0000   1.0000
     1.0000   1.0000   1.0000   1.0000   1.0000   1.0000   1.0000   1.0000
     1.0000   1.0000   1.0000   1.0000   1.0000   1.0000   1.0000   1.0000
     1.0000   1.0000   1.0000   1.0000   1.0000   1.0000   1.0000   1.0000
     1.0000   1.0000   1.0000   1.0000   1.0000   1.0000   1.0000   1.0000
     1.0000   1.0000   1.0000   1.0000   1.0000   1.0000   1.0000   1.0000
     1.0000   1.0000   1.0000   1.0000   1.0000   1.0000   1.0000   1.0000

          k = 0.0191 0.0114 0.0566 ( 27217 PWs)   bands (ev):

   -24.0491 -24.0426 -24.0248 -24.0235 -23.6326 -23.6296 -23.6210 -23.6185
   -19.2293 -19.2248 -19.2203 -19.2118 -18.8258 -18.8251 -18.8111 -18.8104
   -18.2839 -18.2834 -17.2659 -17.2631 -17.0962 -17.0934 -16.0988 -16.0971
   -12.1587 -12.1581 -12.0814 -12.0617 -11.9304 -11.9212 -11.8540 -11.8447
    -8.9017  -8.8664  -8.3023  -8.2775  -7.6149  -7.5649  -7.4665  -7.3965
    -6.9216  -6.7982  -6.6251  -6.6060  -6.5722  -6.4393  -6.3899  -6.3723
    -6.2334  -6.2078  -5.9775  -5.9439  -5.9260  -5.8451  -5.8252  -5.7930
    -5.7511  -5.7072  -5.5083  -5.4727  -5.1505  -5.0771  -4.9457  -4.9066
    -4.4420  -4.4337  -4.4207  -4.3368  -4.1754  -4.1491  -3.9802  -3.9627
    -3.7137  -3.6812  -3.5382  -3.5266  -3.2109  -3.2060  -3.0890  -3.0622
    -0.7703  -0.7310  -0.3591  -0.3464  -0.2518  -0.2053  -0.1668  -0.1202
    -0.0958  -0.0432   0.0645   0.1299   0.2418   0.2887   0.3444   0.3569
     0.5372   0.5951   0.6357   0.6752   0.7674   0.7777   0.8157   0.8629
     0.9749   1.0194   1.0915   1.1225   1.2229   1.2912   1.3670   1.3830

     occupation numbers 
     1.0000   1.0000   1.0000   1.0000   1.0000   1.0000   1.0000   1.0000
     1.0000   1.0000   1.0000   1.0000   1.0000   1.0000   1.0000   1.0000
     1.0000   1.0000   1.0000   1.0000   1.0000   1.0000   1.0000   1.0000
     1.0000   1.0000   1.0000   1.0000   1.0000   1.0000   1.0000   1.0000
     1.0000   1.0000   1.0000   1.0000   1.0000   1.0000   1.0000   1.0000
     1.0000   1.0000   1.0000   1.0000   1.0000   1.0000   1.0000   1.0000
     1.0000   1.0000   1.0000   1.0000   1.0000   1.0000   1.0000   1.0000
     1.0000   1.0000   1.0000   1.0000   1.0000   1.0000   1.0000   1.0000
     1.0000   1.0000   1.0000   1.0000   1.0000   1.0000   1.0000   1.0000
     1.0000   1.0000   1.0000   1.0000   1.0000   1.0000   1.0000   1.0000
     1.0000   1.0000   1.0000   1.0000   1.0000   1.0000   1.0000   1.0000
     1.0000   1.0000   1.0000   1.0000   1.0000   1.0000   1.0000   1.0000
     1.0000   1.0000   1.0000   1.0000   1.0000   1.0000   1.0000   1.0000
     1.0000   1.0000   1.0000   1.0000   1.0000   1.0000   1.0000   1.0000

          k = 0.0191 0.0114-0.0480 ( 27258 PWs)   bands (ev):

   -24.0510 -24.0410 -24.0283 -24.0196 -23.6341 -23.6316 -23.6187 -23.6175
   -19.2276 -19.2254 -19.2181 -19.2154 -18.8278 -18.8267 -18.8094 -18.8086
   -18.2948 -18.2712 -17.2858 -17.2434 -17.0996 -17.0955 -16.1022 -16.0872
   -12.1689 -12.1568 -12.1132 -12.0297 -11.9605 -11.8863 -11.8581 -11.8433
    -8.9120  -8.8279  -8.2901  -8.2861  -7.6091  -7.5935  -7.4809  -7.3705
    -6.9255  -6.8214  -6.6335  -6.6081  -6.5215  -6.4941  -6.4086  -6.3776
    -6.2608  -6.2222  -5.9841  -5.9655  -5.8479  -5.8103  -5.8096  -5.7935
    -5.7718  -5.6921  -5.5202  -5.4636  -5.1451  -5.0730  -4.9323  -4.9030
    -4.4738  -4.4296  -4.3801  -4.3351  -4.2123  -4.1550  -3.9750  -3.9313
    -3.7296  -3.6862  -3.5829  -3.5084  -3.2147  -3.1986  -3.0798  -3.0718
    -0.7082  -0.6478  -0.3466  -0.3396  -0.2800  -0.2593  -0.2010  -0.1559
    -0.1192  -0.0950   0.0230   0.1105   0.2572   0.2954   0.3039   0.3466
     0.5736   0.6598   0.6769   0.6982   0.7189   0.8256   0.8329   0.8482
     0.9722   1.0250   1.1014   1.1593   1.2355   1.2595   1.3472   1.3700

     occupation numbers 
     1.0000   1.0000   1.0000   1.0000   1.0000   1.0000   1.0000   1.0000
     1.0000   1.0000   1.0000   1.0000   1.0000   1.0000   1.0000   1.0000
     1.0000   1.0000   1.0000   1.0000   1.0000   1.0000   1.0000   1.0000
     1.0000   1.0000   1.0000   1.0000   1.0000   1.0000   1.0000   1.0000
     1.0000   1.0000   1.0000   1.0000   1.0000   1.0000   1.0000   1.0000
     1.0000   1.0000   1.0000   1.0000   1.0000   1.0000   1.0000   1.0000
     1.0000   1.0000   1.0000   1.0000   1.0000   1.0000   1.0000   1.0000
     1.0000   1.0000   1.0000   1.0000   1.0000   1.0000   1.0000   1.0000
     1.0000   1.0000   1.0000   1.0000   1.0000   1.0000   1.0000   1.0000
     1.0000   1.0000   1.0000   1.0000   1.0000   1.0000   1.0000   1.0000
     1.0000   1.0000   1.0000   1.0000   1.0000   1.0000   1.0000   1.0000
     1.0000   1.0000   1.0000   1.0000   1.0000   1.0000   1.0000   1.0000
     1.0000   1.0000   1.0000   1.0000   1.0000   1.0000   1.0000   1.0000
     1.0000   1.0000   1.0000   1.0000   1.0000   1.0000   1.0000   1.0000

          k = 0.0191 0.0114-0.0132 ( 27229 PWs)   bands (ev):

   -24.0569 -24.0376 -24.0293 -24.0170 -23.6350 -23.6281 -23.6191 -23.6187
   -19.2307 -19.2253 -19.2198 -19.2095 -18.8242 -18.8229 -18.8118 -18.8116
   -18.2990 -18.2650 -17.2960 -17.2329 -17.1042 -17.1018 -16.1028 -16.0834
   -12.1663 -12.1478 -12.1362 -12.0225 -11.9687 -11.8904 -11.8437 -11.8248
    -8.9349  -8.8432  -8.3144  -8.2883  -7.6046  -7.5832  -7.5209  -7.4375
    -6.8417  -6.8257  -6.6312  -6.5654  -6.5319  -6.4662  -6.3764  -6.3224
    -6.2183  -6.1732  -6.0222  -5.9705  -5.8935  -5.8446  -5.7545  -5.7472
    -5.7059  -5.6776  -5.5817  -5.5596  -5.1129  -5.0688  -4.9504  -4.9046
    -4.5117  -4.4655  -4.4466  -4.4288  -4.2540  -4.1767  -3.8843  -3.8108
    -3.7746  -3.6472  -3.5807  -3.5467  -3.1941  -3.1528  -3.1007  -3.0882
    -0.7522  -0.7345  -0.3365  -0.3300  -0.2491  -0.2036  -0.1243  -0.1078
    -0.0941  -0.0552   0.0584   0.1168   0.1923   0.2663   0.3183   0.3850
     0.5516   0.5930   0.6127   0.6937   0.7339   0.8143   0.8704   0.8805
     0.9138   0.9977   1.0844   1.1617   1.2004   1.3110   1.3538   1.3699

     occupation numbers 
     1.0000   1.0000   1.0000   1.0000   1.0000   1.0000   1.0000   1.0000
     1.0000   1.0000   1.0000   1.0000   1.0000   1.0000   1.0000   1.0000
     1.0000   1.0000   1.0000   1.0000   1.0000   1.0000   1.0000   1.0000
     1.0000   1.0000   1.0000   1.0000   1.0000   1.0000   1.0000   1.0000
     1.0000   1.0000   1.0000   1.0000   1.0000   1.0000   1.0000   1.0000
     1.0000   1.0000   1.0000   1.0000   1.0000   1.0000   1.0000   1.0000
     1.0000   1.0000   1.0000   1.0000   1.0000   1.0000   1.0000   1.0000
     1.0000   1.0000   1.0000   1.0000   1.0000   1.0000   1.0000   1.0000
     1.0000   1.0000   1.0000   1.0000   1.0000   1.0000   1.0000   1.0000
     1.0000   1.0000   1.0000   1.0000   1.0000   1.0000   1.0000   1.0000
     1.0000   1.0000   1.0000   1.0000   1.0000   1.0000   1.0000   1.0000
     1.0000   1.0000   1.0000   1.0000   1.0000   1.0000   1.0000   1.0000
     1.0000   1.0000   1.0000   1.0000   1.0000   1.0000   1.0000   1.0000
     1.0000   1.0000   1.0000   1.0000   1.0000   1.0000   1.0000   1.0000

          k = 0.0191 0.0341 0.0217 ( 27229 PWs)   bands (ev):

   -24.0519 -24.0449 -24.0238 -24.0204 -23.6309 -23.6275 -23.6213 -23.6210
   -19.2311 -19.2295 -19.2145 -19.2102 -18.8200 -18.8197 -18.8156 -18.8153
   -18.2880 -18.2779 -17.2739 -17.2545 -17.1005 -17.1002 -16.0988 -16.0937
   -12.1493 -12.1484 -12.1109 -12.0701 -11.9340 -11.9107 -11.8395 -11.8306
    -8.9124  -8.8956  -8.3112  -8.2963  -7.5924  -7.5752  -7.4795  -7.4790
    -6.8529  -6.8058  -6.5826  -6.5652  -6.5482  -6.4719  -6.3489  -6.3290
    -6.1678  -6.1587  -6.0281  -5.9797  -5.9361  -5.9062  -5.7824  -5.7689
    -5.6695  -5.6523  -5.5742  -5.5578  -5.1036  -5.0399  -4.9922  -4.9686
    -4.5004  -4.4920  -4.4152  -4.4051  -4.2388  -4.1967  -3.8663  -3.8619
    -3.7000  -3.6641  -3.5686  -3.5545  -3.1826  -3.1685  -3.0971  -3.0888
    -0.7962  -0.7916  -0.3407  -0.3298  -0.2552  -0.2148  -0.1402  -0.1338
    -0.0096   0.0031   0.1966   0.2057   0.2390   0.2472   0.3875   0.3997
     0.4092   0.4363   0.6293   0.6538   0.7384   0.7606   0.8727   0.8902
     0.9438   0.9902   1.0909   1.1200   1.2334   1.2856   1.3766   1.3825

     occupation numbers 
     1.0000   1.0000   1.0000   1.0000   1.0000   1.0000   1.0000   1.0000
     1.0000   1.0000   1.0000   1.0000   1.0000   1.0000   1.0000   1.0000
     1.0000   1.0000   1.0000   1.0000   1.0000   1.0000   1.0000   1.0000
     1.0000   1.0000   1.0000   1.0000   1.0000   1.0000   1.0000   1.0000
     1.0000   1.0000   1.0000   1.0000   1.0000   1.0000   1.0000   1.0000
     1.0000   1.0000   1.0000   1.0000   1.0000   1.0000   1.0000   1.0000
     1.0000   1.0000   1.0000   1.0000   1.0000   1.0000   1.0000   1.0000
     1.0000   1.0000   1.0000   1.0000   1.0000   1.0000   1.0000   1.0000
     1.0000   1.0000   1.0000   1.0000   1.0000   1.0000   1.0000   1.0000
     1.0000   1.0000   1.0000   1.0000   1.0000   1.0000   1.0000   1.0000
     1.0000   1.0000   1.0000   1.0000   1.0000   1.0000   1.0000   1.0000
     1.0000   1.0000   1.0000   1.0000   1.0000   1.0000   1.0000   1.0000
     1.0000   1.0000   1.0000   1.0000   1.0000   1.0000   1.0000   1.0000
     1.0000   1.0000   1.0000   1.0000   1.0000   1.0000   1.0000   1.0000

          k = 0.0191 0.0341 0.0566 ( 27238 PWs)   bands (ev):

   -24.0470 -24.0442 -24.0247 -24.0241 -23.6315 -23.6302 -23.6205 -23.6195
   -19.2291 -19.2277 -19.2162 -19.2132 -18.8256 -18.8253 -18.8109 -18.8106
   -18.2838 -18.2836 -17.2653 -17.2642 -17.0951 -17.0940 -16.0983 -16.0976
   -12.1579 -12.1574 -12.0788 -12.0704 -11.9237 -11.9192 -11.8533 -11.8493
    -8.8916  -8.8769  -8.2955  -8.2852  -7.5986  -7.5782  -7.4462  -7.4181
    -6.9019  -6.8563  -6.6184  -6.6115  -6.5129  -6.4603  -6.4048  -6.3861
    -6.1892  -6.1721  -5.9990  -5.9628  -5.9040  -5.8698  -5.8199  -5.8040
    -5.7446  -5.7108  -5.5158  -5.4978  -5.0879  -5.0379  -4.9959  -4.9588
    -4.4252  -4.4134  -4.3960  -4.3582  -4.1810  -4.1680  -3.9718  -3.9651
    -3.7004  -3.6859  -3.5363  -3.5308  -3.2042  -3.2001  -3.0901  -3.0770
    -0.7584  -0.7423  -0.3513  -0.3422  -0.2570  -0.2261  -0.1699  -0.1477
    -0.0682  -0.0443   0.1129   0.1354   0.2452   0.2674   0.3372   0.3489
     0.5519   0.5780   0.6470   0.6659   0.7719   0.7818   0.8176   0.8478
     0.9822   1.0033   1.1052   1.1178   1.2448   1.2725   1.3710   1.3775

     occupation numbers 
     1.0000   1.0000   1.0000   1.0000   1.0000   1.0000   1.0000   1.0000
     1.0000   1.0000   1.0000   1.0000   1.0000   1.0000   1.0000   1.0000
     1.0000   1.0000   1.0000   1.0000   1.0000   1.0000   1.0000   1.0000
     1.0000   1.0000   1.0000   1.0000   1.0000   1.0000   1.0000   1.0000
     1.0000   1.0000   1.0000   1.0000   1.0000   1.0000   1.0000   1.0000
     1.0000   1.0000   1.0000   1.0000   1.0000   1.0000   1.0000   1.0000
     1.0000   1.0000   1.0000   1.0000   1.0000   1.0000   1.0000   1.0000
     1.0000   1.0000   1.0000   1.0000   1.0000   1.0000   1.0000   1.0000
     1.0000   1.0000   1.0000   1.0000   1.0000   1.0000   1.0000   1.0000
     1.0000   1.0000   1.0000   1.0000   1.0000   1.0000   1.0000   1.0000
     1.0000   1.0000   1.0000   1.0000   1.0000   1.0000   1.0000   1.0000
     1.0000   1.0000   1.0000   1.0000   1.0000   1.0000   1.0000   1.0000
     1.0000   1.0000   1.0000   1.0000   1.0000   1.0000   1.0000   1.0000
     1.0000   1.0000   1.0000   1.0000   1.0000   1.0000   1.0000   1.0000

          k = 0.0191 0.0341-0.0480 ( 27225 PWs)   bands (ev):

   -24.0485 -24.0445 -24.0253 -24.0218 -23.6332 -23.6321 -23.6185 -23.6180
   -19.2277 -19.2270 -19.2163 -19.2154 -18.8274 -18.8270 -18.8091 -18.8088
   -18.2881 -18.2783 -17.2733 -17.2557 -17.0984 -17.0967 -16.0977 -16.0915
   -12.1650 -12.1599 -12.0972 -12.0661 -11.9272 -11.9001 -11.8537 -11.8474
    -8.8884  -8.8536  -8.2903  -8.2884  -7.6004  -7.5951  -7.4519  -7.4050
    -6.8951  -6.8515  -6.6311  -6.6121  -6.5128  -6.5037  -6.4364  -6.4166
    -6.1769  -6.1597  -6.0146  -5.9957  -5.8424  -5.8271  -5.8169  -5.7971
    -5.7455  -5.7082  -5.5106  -5.4819  -5.1192  -5.0663  -4.9595  -4.9233
    -4.4632  -4.4427  -4.3505  -4.3341  -4.2045  -4.1797  -3.9606  -3.9419
    -3.7111  -3.6925  -3.5612  -3.5304  -3.2039  -3.1944  -3.0875  -3.0852
    -0.6922  -0.6676  -0.3458  -0.3404  -0.2535  -0.2410  -0.2184  -0.1873
    -0.1261  -0.1133   0.0755   0.1093   0.2589   0.2744   0.3145   0.3382
     0.5986   0.6328   0.6933   0.7052   0.7321   0.7794   0.8406   0.8470
     0.9870   1.0043   1.1258   1.1479   1.2405   1.2510   1.3538   1.3635

     occupation numbers 
     1.0000   1.0000   1.0000   1.0000   1.0000   1.0000   1.0000   1.0000
     1.0000   1.0000   1.0000   1.0000   1.0000   1.0000   1.0000   1.0000
     1.0000   1.0000   1.0000   1.0000   1.0000   1.0000   1.0000   1.0000
     1.0000   1.0000   1.0000   1.0000   1.0000   1.0000   1.0000   1.0000
     1.0000   1.0000   1.0000   1.0000   1.0000   1.0000   1.0000   1.0000
     1.0000   1.0000   1.0000   1.0000   1.0000   1.0000   1.0000   1.0000
     1.0000   1.0000   1.0000   1.0000   1.0000   1.0000   1.0000   1.0000
     1.0000   1.0000   1.0000   1.0000   1.0000   1.0000   1.0000   1.0000
     1.0000   1.0000   1.0000   1.0000   1.0000   1.0000   1.0000   1.0000
     1.0000   1.0000   1.0000   1.0000   1.0000   1.0000   1.0000   1.0000
     1.0000   1.0000   1.0000   1.0000   1.0000   1.0000   1.0000   1.0000
     1.0000   1.0000   1.0000   1.0000   1.0000   1.0000   1.0000   1.0000
     1.0000   1.0000   1.0000   1.0000   1.0000   1.0000   1.0000   1.0000
     1.0000   1.0000   1.0000   1.0000   1.0000   1.0000   1.0000   1.0000

          k = 0.0191 0.0341-0.0132 ( 27222 PWs)   bands (ev):

   -24.0527 -24.0455 -24.0234 -24.0192 -23.6328 -23.6300 -23.6190 -23.6189
   -19.2303 -19.2286 -19.2151 -19.2114 -18.8238 -18.8233 -18.8117 -18.8116
   -18.2895 -18.2754 -17.2770 -17.2508 -17.1038 -17.1028 -16.0969 -16.0889
   -12.1590 -12.1528 -12.1153 -12.0742 -11.9287 -11.9025 -11.8378 -11.8299
    -8.9097  -8.8718  -8.3084  -8.2976  -7.5992  -7.5891  -7.4925  -7.4591
    -6.8171  -6.8038  -6.6152  -6.5778  -6.5474  -6.5051  -6.3968  -6.3692
    -6.1522  -6.1459  -6.0240  -6.0016  -5.8902  -5.8669  -5.7685  -5.7601
    -5.6655  -5.6586  -5.5689  -5.5535  -5.1107  -5.0818  -4.9540  -4.9290
    -4.5037  -4.4912  -4.4276  -4.4092  -4.2431  -4.2047  -3.8602  -3.8299
    -3.7288  -3.6747  -3.5735  -3.5586  -3.1859  -3.1689  -3.0953  -3.0903
    -0.7444  -0.7370  -0.3318  -0.3226  -0.2508  -0.2135  -0.1427  -0.1361
    -0.0835  -0.0670   0.0878   0.1163   0.2116   0.2451   0.3556   0.3840
     0.5621   0.5869   0.6252   0.6727   0.7217   0.7618   0.8851   0.8855
     0.9499   0.9814   1.1192   1.1504   1.2220   1.2686   1.3618   1.3670

     occupation numbers 
     1.0000   1.0000   1.0000   1.0000   1.0000   1.0000   1.0000   1.0000
     1.0000   1.0000   1.0000   1.0000   1.0000   1.0000   1.0000   1.0000
     1.0000   1.0000   1.0000   1.0000   1.0000   1.0000   1.0000   1.0000
     1.0000   1.0000   1.0000   1.0000   1.0000   1.0000   1.0000   1.0000
     1.0000   1.0000   1.0000   1.0000   1.0000   1.0000   1.0000   1.0000
     1.0000   1.0000   1.0000   1.0000   1.0000   1.0000   1.0000   1.0000
     1.0000   1.0000   1.0000   1.0000   1.0000   1.0000   1.0000   1.0000
     1.0000   1.0000   1.0000   1.0000   1.0000   1.0000   1.0000   1.0000
     1.0000   1.0000   1.0000   1.0000   1.0000   1.0000   1.0000   1.0000
     1.0000   1.0000   1.0000   1.0000   1.0000   1.0000   1.0000   1.0000
     1.0000   1.0000   1.0000   1.0000   1.0000   1.0000   1.0000   1.0000
     1.0000   1.0000   1.0000   1.0000   1.0000   1.0000   1.0000   1.0000
     1.0000   1.0000   1.0000   1.0000   1.0000   1.0000   1.0000   1.0000
     1.0000   1.0000   1.0000   1.0000   1.0000   1.0000   1.0000   1.0000

          k = 0.0574 0.0114 0.0303 ( 27242 PWs)   bands (ev):

   -24.0473 -24.0405 -24.0252 -24.0240 -23.6305 -23.6270 -23.6241 -23.6221
   -19.2289 -19.2249 -19.2210 -19.2126 -18.8232 -18.8219 -18.8137 -18.8137
   -18.2895 -18.2891 -17.2613 -17.2587 -17.1043 -17.1018 -16.0993 -16.0974
   -12.1468 -12.1462 -12.0547 -12.0350 -11.9033 -11.8903 -11.8524 -11.8379
    -8.9205  -8.8878  -8.3212  -8.2987  -7.5920  -7.5717  -7.5464  -7.4993
    -6.9958  -6.9194  -6.6824  -6.5705  -6.5290  -6.4782  -6.3025  -6.2514
    -6.2401  -6.1693  -6.0484  -5.9834  -5.9083  -5.8658  -5.7794  -5.7635
    -5.6912  -5.6462  -5.5976  -5.5888  -5.1624  -5.0527  -4.9337  -4.9266
    -4.4754  -4.4595  -4.4312  -4.3735  -4.0704  -4.0137  -3.8310  -3.8128
    -3.7170  -3.6880  -3.6564  -3.6362  -3.1844  -3.1790  -3.1090  -3.0754
    -0.7592  -0.7380  -0.3263  -0.3216  -0.2337  -0.2094  -0.1303  -0.1123
    -0.0764  -0.0627   0.1106   0.1219   0.2104   0.2234   0.3568   0.3719
     0.5716   0.5769   0.6368   0.6924   0.7704   0.7809   0.8597   0.8709
     0.9241   0.9788   1.0010   1.0595   1.2835   1.3062   1.3498   1.3850

     occupation numbers 
     1.0000   1.0000   1.0000   1.0000   1.0000   1.0000   1.0000   1.0000
     1.0000   1.0000   1.0000   1.0000   1.0000   1.0000   1.0000   1.0000
     1.0000   1.0000   1.0000   1.0000   1.0000   1.0000   1.0000   1.0000
     1.0000   1.0000   1.0000   1.0000   1.0000   1.0000   1.0000   1.0000
     1.0000   1.0000   1.0000   1.0000   1.0000   1.0000   1.0000   1.0000
     1.0000   1.0000   1.0000   1.0000   1.0000   1.0000   1.0000   1.0000
     1.0000   1.0000   1.0000   1.0000   1.0000   1.0000   1.0000   1.0000
     1.0000   1.0000   1.0000   1.0000   1.0000   1.0000   1.0000   1.0000
     1.0000   1.0000   1.0000   1.0000   1.0000   1.0000   1.0000   1.0000
     1.0000   1.0000   1.0000   1.0000   1.0000   1.0000   1.0000   1.0000
     1.0000   1.0000   1.0000   1.0000   1.0000   1.0000   1.0000   1.0000
     1.0000   1.0000   1.0000   1.0000   1.0000   1.0000   1.0000   1.0000
     1.0000   1.0000   1.0000   1.0000   1.0000   1.0000   1.0000   1.0000
     1.0000   1.0000   1.0000   1.0000   1.0000   1.0000   1.0000   1.0000

          k = 0.0574 0.0114 0.0652 ( 27261 PWs)   bands (ev):

   -24.0438 -24.0432 -24.0282 -24.0210 -23.6291 -23.6287 -23.6263 -23.6203
   -19.2289 -19.2257 -19.2215 -19.2125 -18.8328 -18.8307 -18.8065 -18.8047
   -18.3033 -18.2805 -17.2796 -17.2398 -17.0944 -17.0883 -16.1150 -16.0971
   -12.1584 -12.1564 -12.0825 -12.0070 -11.9060 -11.8582 -11.8578 -11.8443
    -8.9633  -8.8406  -8.3157  -8.2779  -7.6008  -7.5741  -7.5078  -7.3892
    -7.0914  -6.8707  -6.6897  -6.5610  -6.5542  -6.4480  -6.4283  -6.3603
    -6.2782  -6.2231  -6.0235  -5.9964  -5.9250  -5.8686  -5.8139  -5.7688
    -5.6751  -5.6166  -5.5467  -5.4778  -5.1710  -5.0154  -4.9998  -4.9368
    -4.4236  -4.4130  -4.3613  -4.3323  -4.0282  -3.9726  -3.8959  -3.8816
    -3.7901  -3.7191  -3.6675  -3.5798  -3.2194  -3.1965  -3.1064  -3.0434
    -0.8331  -0.7809  -0.3335  -0.2989  -0.2355  -0.2030  -0.1313  -0.0964
    -0.0436  -0.0264   0.1774   0.2126   0.2300   0.2490   0.3256   0.4102
     0.4871   0.5060   0.5453   0.6666   0.7564   0.7942   0.8386   0.8629
     0.9625   1.0038   1.0170   1.0446   1.2963   1.3307   1.3553   1.3935

     occupation numbers 
     1.0000   1.0000   1.0000   1.0000   1.0000   1.0000   1.0000   1.0000
     1.0000   1.0000   1.0000   1.0000   1.0000   1.0000   1.0000   1.0000
     1.0000   1.0000   1.0000   1.0000   1.0000   1.0000   1.0000   1.0000
     1.0000   1.0000   1.0000   1.0000   1.0000   1.0000   1.0000   1.0000
     1.0000   1.0000   1.0000   1.0000   1.0000   1.0000   1.0000   1.0000
     1.0000   1.0000   1.0000   1.0000   1.0000   1.0000   1.0000   1.0000
     1.0000   1.0000   1.0000   1.0000   1.0000   1.0000   1.0000   1.0000
     1.0000   1.0000   1.0000   1.0000   1.0000   1.0000   1.0000   1.0000
     1.0000   1.0000   1.0000   1.0000   1.0000   1.0000   1.0000   1.0000
     1.0000   1.0000   1.0000   1.0000   1.0000   1.0000   1.0000   1.0000
     1.0000   1.0000   1.0000   1.0000   1.0000   1.0000   1.0000   1.0000
     1.0000   1.0000   1.0000   1.0000   1.0000   1.0000   1.0000   1.0000
     1.0000   1.0000   1.0000   1.0000   1.0000   1.0000   1.0000   1.0000
     1.0000   1.0000   1.0000   1.0000   1.0000   1.0000   1.0000   1.0000

          k = 0.0574 0.0114-0.0395 ( 27244 PWs)   bands (ev):

   -24.0475 -24.0400 -24.0299 -24.0187 -23.6320 -23.6315 -23.6226 -23.6184
   -19.2271 -19.2255 -19.2208 -19.2153 -18.8339 -18.8317 -18.8054 -18.8035
   -18.3076 -18.2749 -17.2891 -17.2302 -17.0973 -17.0910 -16.1145 -16.0911
   -12.1621 -12.1577 -12.1057 -11.9867 -11.9212 -11.8581 -11.8527 -11.8331
    -8.9592  -8.8166  -8.3099  -8.2793  -7.5974  -7.5830  -7.5296  -7.3761
    -7.1055  -6.8731  -6.6770  -6.5696  -6.5560  -6.5021  -6.4308  -6.3615
    -6.2960  -6.2340  -6.0062  -5.9562  -5.8974  -5.8784  -5.8141  -5.7764
    -5.6552  -5.6132  -5.5565  -5.4760  -5.1610  -5.0358  -4.9731  -4.9270
    -4.4289  -4.3918  -4.3705  -4.3381  -4.0432  -3.9942  -3.8668  -3.8421
    -3.7680  -3.7508  -3.7139  -3.5861  -3.2229  -3.1952  -3.0990  -3.0497
    -0.7934  -0.7198  -0.3258  -0.2779  -0.2405  -0.2214  -0.1406  -0.1192
    -0.1028  -0.0612   0.1013   0.1894   0.2291   0.2765   0.2869   0.3047
     0.5292   0.6097   0.6353   0.6540   0.7473   0.7950   0.8592   0.8756
     0.9537   0.9848   1.0384   1.0964   1.3159   1.3276   1.3338   1.3552

     occupation numbers 
     1.0000   1.0000   1.0000   1.0000   1.0000   1.0000   1.0000   1.0000
     1.0000   1.0000   1.0000   1.0000   1.0000   1.0000   1.0000   1.0000
     1.0000   1.0000   1.0000   1.0000   1.0000   1.0000   1.0000   1.0000
     1.0000   1.0000   1.0000   1.0000   1.0000   1.0000   1.0000   1.0000
     1.0000   1.0000   1.0000   1.0000   1.0000   1.0000   1.0000   1.0000
     1.0000   1.0000   1.0000   1.0000   1.0000   1.0000   1.0000   1.0000
     1.0000   1.0000   1.0000   1.0000   1.0000   1.0000   1.0000   1.0000
     1.0000   1.0000   1.0000   1.0000   1.0000   1.0000   1.0000   1.0000
     1.0000   1.0000   1.0000   1.0000   1.0000   1.0000   1.0000   1.0000
     1.0000   1.0000   1.0000   1.0000   1.0000   1.0000   1.0000   1.0000
     1.0000   1.0000   1.0000   1.0000   1.0000   1.0000   1.0000   1.0000
     1.0000   1.0000   1.0000   1.0000   1.0000   1.0000   1.0000   1.0000
     1.0000   1.0000   1.0000   1.0000   1.0000   1.0000   1.0000   1.0000
     1.0000   1.0000   1.0000   1.0000   1.0000   1.0000   1.0000   1.0000

          k = 0.0574 0.0114-0.0046 ( 27227 PWs)   bands (ev):

   -24.0491 -24.0391 -24.0287 -24.0200 -23.6328 -23.6300 -23.6211 -23.6197
   -19.2273 -19.2250 -19.2189 -19.2164 -18.8260 -18.8244 -18.8112 -18.8108
   -18.3005 -18.2768 -17.2818 -17.2380 -17.1070 -17.1048 -16.1027 -16.0876
   -12.1505 -12.1474 -12.0945 -11.9971 -11.9298 -11.8716 -11.8421 -11.8404
    -8.9313  -8.8485  -8.3096  -8.3065  -7.5902  -7.5819  -7.5782  -7.4753
    -7.0048  -6.9211  -6.6402  -6.6146  -6.5248  -6.5203  -6.3334  -6.2868
    -6.2201  -6.2140  -5.9746  -5.9424  -5.8832  -5.8610  -5.7930  -5.7836
    -5.6671  -5.6562  -5.5976  -5.5878  -5.1207  -5.1031  -4.9157  -4.9050
    -4.4773  -4.4601  -4.4161  -4.3911  -4.0603  -4.0419  -3.7918  -3.7868
    -3.7558  -3.7059  -3.6625  -3.6497  -3.1982  -3.1702  -3.0985  -3.0831
    -0.7072  -0.6580  -0.3225  -0.3130  -0.2306  -0.2256  -0.2032  -0.1840
    -0.0930  -0.0708   0.0546   0.1223   0.1936   0.2312   0.3263   0.3609
     0.5478   0.6225   0.7066   0.7320   0.7551   0.8026   0.8733   0.8944
     0.9284   0.9425   1.0174   1.1056   1.3009   1.3012   1.3272   1.3473

     occupation numbers 
     1.0000   1.0000   1.0000   1.0000   1.0000   1.0000   1.0000   1.0000
     1.0000   1.0000   1.0000   1.0000   1.0000   1.0000   1.0000   1.0000
     1.0000   1.0000   1.0000   1.0000   1.0000   1.0000   1.0000   1.0000
     1.0000   1.0000   1.0000   1.0000   1.0000   1.0000   1.0000   1.0000
     1.0000   1.0000   1.0000   1.0000   1.0000   1.0000   1.0000   1.0000
     1.0000   1.0000   1.0000   1.0000   1.0000   1.0000   1.0000   1.0000
     1.0000   1.0000   1.0000   1.0000   1.0000   1.0000   1.0000   1.0000
     1.0000   1.0000   1.0000   1.0000   1.0000   1.0000   1.0000   1.0000
     1.0000   1.0000   1.0000   1.0000   1.0000   1.0000   1.0000   1.0000
     1.0000   1.0000   1.0000   1.0000   1.0000   1.0000   1.0000   1.0000
     1.0000   1.0000   1.0000   1.0000   1.0000   1.0000   1.0000   1.0000
     1.0000   1.0000   1.0000   1.0000   1.0000   1.0000   1.0000   1.0000
     1.0000   1.0000   1.0000   1.0000   1.0000   1.0000   1.0000   1.0000
     1.0000   1.0000   1.0000   1.0000   1.0000   1.0000   1.0000   1.0000

          k = 0.0574 0.0341 0.0303 ( 27236 PWs)   bands (ev):

   -24.0451 -24.0423 -24.0251 -24.0246 -23.6290 -23.6276 -23.6239 -23.6231
   -19.2287 -19.2276 -19.2171 -19.2141 -18.8228 -18.8222 -18.8137 -18.8137
   -18.2895 -18.2893 -17.2607 -17.2596 -17.1034 -17.1024 -16.0988 -16.0980
   -12.1466 -12.1463 -12.0476 -12.0392 -11.9014 -11.8958 -11.8481 -11.8420
    -8.9109  -8.8973  -8.3114  -8.3019  -7.5850  -7.5771  -7.5372  -7.5170
    -6.9956  -6.9689  -6.6113  -6.5791  -6.5071  -6.4703  -6.3308  -6.2941
    -6.2114  -6.1832  -6.0204  -5.9941  -5.9005  -5.8796  -5.7795  -5.7625
    -5.6761  -5.6636  -5.5922  -5.5842  -5.1330  -5.0877  -4.9373  -4.9332
    -4.4728  -4.4641  -4.4112  -4.3899  -4.0486  -4.0228  -3.8137  -3.8074
    -3.7244  -3.7084  -3.6501  -3.6390  -3.1825  -3.1795  -3.1031  -3.0885
    -0.7501  -0.7413  -0.3164  -0.3097  -0.2611  -0.2415  -0.1137  -0.0930
    -0.0844  -0.0701   0.1253   0.1371   0.2116   0.2239   0.3553   0.3626
     0.5919   0.6022   0.6174   0.6516   0.7734   0.7767   0.8652   0.8820
     0.9402   0.9707   1.0078   1.0352   1.2905   1.2996   1.3608   1.3752

     occupation numbers 
     1.0000   1.0000   1.0000   1.0000   1.0000   1.0000   1.0000   1.0000
     1.0000   1.0000   1.0000   1.0000   1.0000   1.0000   1.0000   1.0000
     1.0000   1.0000   1.0000   1.0000   1.0000   1.0000   1.0000   1.0000
     1.0000   1.0000   1.0000   1.0000   1.0000   1.0000   1.0000   1.0000
     1.0000   1.0000   1.0000   1.0000   1.0000   1.0000   1.0000   1.0000
     1.0000   1.0000   1.0000   1.0000   1.0000   1.0000   1.0000   1.0000
     1.0000   1.0000   1.0000   1.0000   1.0000   1.0000   1.0000   1.0000
     1.0000   1.0000   1.0000   1.0000   1.0000   1.0000   1.0000   1.0000
     1.0000   1.0000   1.0000   1.0000   1.0000   1.0000   1.0000   1.0000
     1.0000   1.0000   1.0000   1.0000   1.0000   1.0000   1.0000   1.0000
     1.0000   1.0000   1.0000   1.0000   1.0000   1.0000   1.0000   1.0000
     1.0000   1.0000   1.0000   1.0000   1.0000   1.0000   1.0000   1.0000
     1.0000   1.0000   1.0000   1.0000   1.0000   1.0000   1.0000   1.0000
     1.0000   1.0000   1.0000   1.0000   1.0000   1.0000   1.0000   1.0000

          k = 0.0574 0.0341 0.0652 ( 27238 PWs)   bands (ev):

   -24.0435 -24.0432 -24.0263 -24.0232 -23.6289 -23.6288 -23.6246 -23.6221
   -19.2290 -19.2282 -19.2173 -19.2141 -18.8321 -18.8313 -18.8059 -18.8052
   -18.2968 -18.2874 -17.2678 -17.2513 -17.0927 -17.0902 -16.1096 -16.1022
   -12.1601 -12.1582 -12.0605 -12.0303 -11.8892 -11.8700 -11.8542 -11.8486
    -8.9286  -8.8779  -8.3030  -8.2873  -7.5753  -7.5630  -7.5006  -7.4459
    -7.0506  -6.9725  -6.5987  -6.5668  -6.5380  -6.4951  -6.3855  -6.3336
    -6.2885  -6.2400  -6.0054  -5.9905  -5.9184  -5.8949  -5.8241  -5.7942
    -5.6668  -5.6429  -5.5168  -5.4891  -5.1347  -5.0680  -4.9812  -4.9526
    -4.4087  -4.3908  -4.3622  -4.3339  -4.0130  -3.9907  -3.8939  -3.8870
    -3.7741  -3.7504  -3.6357  -3.6022  -3.2129  -3.2035  -3.0892  -3.0630
    -0.8151  -0.7937  -0.3210  -0.3053  -0.2570  -0.2449  -0.1141  -0.1049
    -0.0139  -0.0086   0.1944   0.2063   0.2428   0.2546   0.3448   0.3849
     0.4719   0.4819   0.5963   0.6530   0.7455   0.7792   0.8481   0.8629
     0.9556   0.9795   1.0358   1.0523   1.3048   1.3187   1.3668   1.3822

     occupation numbers 
     1.0000   1.0000   1.0000   1.0000   1.0000   1.0000   1.0000   1.0000
     1.0000   1.0000   1.0000   1.0000   1.0000   1.0000   1.0000   1.0000
     1.0000   1.0000   1.0000   1.0000   1.0000   1.0000   1.0000   1.0000
     1.0000   1.0000   1.0000   1.0000   1.0000   1.0000   1.0000   1.0000
     1.0000   1.0000   1.0000   1.0000   1.0000   1.0000   1.0000   1.0000
     1.0000   1.0000   1.0000   1.0000   1.0000   1.0000   1.0000   1.0000
     1.0000   1.0000   1.0000   1.0000   1.0000   1.0000   1.0000   1.0000
     1.0000   1.0000   1.0000   1.0000   1.0000   1.0000   1.0000   1.0000
     1.0000   1.0000   1.0000   1.0000   1.0000   1.0000   1.0000   1.0000
     1.0000   1.0000   1.0000   1.0000   1.0000   1.0000   1.0000   1.0000
     1.0000   1.0000   1.0000   1.0000   1.0000   1.0000   1.0000   1.0000
     1.0000   1.0000   1.0000   1.0000   1.0000   1.0000   1.0000   1.0000
     1.0000   1.0000   1.0000   1.0000   1.0000   1.0000   1.0000   1.0000
     1.0000   1.0000   1.0000   1.0000   1.0000   1.0000   1.0000   1.0000

          k = 0.0574 0.0341-0.0395 ( 27236 PWs)   bands (ev):

   -24.0458 -24.0429 -24.0260 -24.0216 -23.6317 -23.6315 -23.6214 -23.6197
   -19.2276 -19.2273 -19.2179 -19.2159 -18.8332 -18.8323 -18.8048 -18.8041
   -18.2984 -18.2849 -17.2714 -17.2470 -17.0958 -17.0932 -16.1074 -16.0977
   -12.1638 -12.1615 -12.0751 -12.0306 -11.8900 -11.8677 -11.8484 -11.8406
    -8.9195  -8.8606  -8.3005  -8.2877  -7.5781  -7.5625  -7.5158  -7.4403
    -7.0542  -6.9693  -6.5988  -6.5753  -6.5484  -6.5119  -6.4446  -6.3811
    -6.2533  -6.2102  -5.9986  -5.9685  -5.9045  -5.9008  -5.8170  -5.7921
    -5.6502  -5.6322  -5.5190  -5.4866  -5.1473  -5.0956  -4.9484  -4.9266
    -4.4278  -4.4134  -4.3396  -4.3233  -4.0265  -4.0065  -3.8648  -3.8548
    -3.7686  -3.7585  -3.6723  -3.6206  -3.2125  -3.1998  -3.0896  -3.0683
    -0.7703  -0.7396  -0.3161  -0.2984  -0.2589  -0.2434  -0.1275  -0.1172
    -0.0769  -0.0511   0.1326   0.1669   0.2353   0.2526   0.2921   0.3104
     0.5561   0.5876   0.6571   0.6645   0.7528   0.7743   0.8439   0.8494
     0.9641   0.9834   1.0610   1.0837   1.3182   1.3243   1.3376   1.3480

     occupation numbers 
     1.0000   1.0000   1.0000   1.0000   1.0000   1.0000   1.0000   1.0000
     1.0000   1.0000   1.0000   1.0000   1.0000   1.0000   1.0000   1.0000
     1.0000   1.0000   1.0000   1.0000   1.0000   1.0000   1.0000   1.0000
     1.0000   1.0000   1.0000   1.0000   1.0000   1.0000   1.0000   1.0000
     1.0000   1.0000   1.0000   1.0000   1.0000   1.0000   1.0000   1.0000
     1.0000   1.0000   1.0000   1.0000   1.0000   1.0000   1.0000   1.0000
     1.0000   1.0000   1.0000   1.0000   1.0000   1.0000   1.0000   1.0000
     1.0000   1.0000   1.0000   1.0000   1.0000   1.0000   1.0000   1.0000
     1.0000   1.0000   1.0000   1.0000   1.0000   1.0000   1.0000   1.0000
     1.0000   1.0000   1.0000   1.0000   1.0000   1.0000   1.0000   1.0000
     1.0000   1.0000   1.0000   1.0000   1.0000   1.0000   1.0000   1.0000
     1.0000   1.0000   1.0000   1.0000   1.0000   1.0000   1.0000   1.0000
     1.0000   1.0000   1.0000   1.0000   1.0000   1.0000   1.0000   1.0000
     1.0000   1.0000   1.0000   1.0000   1.0000   1.0000   1.0000   1.0000

          k = 0.0574 0.0341-0.0046 ( 27205 PWs)   bands (ev):

   -24.0466 -24.0427 -24.0255 -24.0221 -23.6318 -23.6307 -23.6209 -23.6202
   -19.2274 -19.2266 -19.2173 -19.2164 -18.8255 -18.8249 -18.8110 -18.8109
   -18.2938 -18.2840 -17.2688 -17.2507 -17.1064 -17.1055 -16.0982 -16.0919
   -12.1507 -12.1496 -12.0702 -12.0329 -11.9041 -11.8826 -11.8426 -11.8410
    -8.9077  -8.8735  -8.3074  -8.3044  -7.5873  -7.5838  -7.5518  -7.5089
    -6.9932  -6.9595  -6.6088  -6.5981  -6.5017  -6.4988  -6.3879  -6.3669
    -6.1739  -6.1672  -5.9821  -5.9650  -5.8788  -5.8682  -5.7757  -5.7690
    -5.6735  -5.6585  -5.5950  -5.5923  -5.1258  -5.1157  -4.9101  -4.9072
    -4.4784  -4.4647  -4.4157  -4.3942  -4.0448  -4.0353  -3.7930  -3.7894
    -3.7275  -3.6935  -3.6848  -3.6662  -3.1887  -3.1756  -3.0999  -3.0944
    -0.6921  -0.6718  -0.3080  -0.3062  -0.2454  -0.2216  -0.2064  -0.1874
    -0.1057  -0.0872   0.0850   0.1121   0.2068   0.2254   0.3383   0.3563
     0.5772   0.6139   0.6935   0.7151   0.7583   0.7906   0.8780   0.8829
     0.9462   0.9558   1.0333   1.0738   1.3013   1.3022   1.3326   1.3413

     occupation numbers 
     1.0000   1.0000   1.0000   1.0000   1.0000   1.0000   1.0000   1.0000
     1.0000   1.0000   1.0000   1.0000   1.0000   1.0000   1.0000   1.0000
     1.0000   1.0000   1.0000   1.0000   1.0000   1.0000   1.0000   1.0000
     1.0000   1.0000   1.0000   1.0000   1.0000   1.0000   1.0000   1.0000
     1.0000   1.0000   1.0000   1.0000   1.0000   1.0000   1.0000   1.0000
     1.0000   1.0000   1.0000   1.0000   1.0000   1.0000   1.0000   1.0000
     1.0000   1.0000   1.0000   1.0000   1.0000   1.0000   1.0000   1.0000
     1.0000   1.0000   1.0000   1.0000   1.0000   1.0000   1.0000   1.0000
     1.0000   1.0000   1.0000   1.0000   1.0000   1.0000   1.0000   1.0000
     1.0000   1.0000   1.0000   1.0000   1.0000   1.0000   1.0000   1.0000
     1.0000   1.0000   1.0000   1.0000   1.0000   1.0000   1.0000   1.0000
     1.0000   1.0000   1.0000   1.0000   1.0000   1.0000   1.0000   1.0000
     1.0000   1.0000   1.0000   1.0000   1.0000   1.0000   1.0000   1.0000
     1.0000   1.0000   1.0000   1.0000   1.0000   1.0000   1.0000   1.0000

     highest occupied level (ev):     1.3935

!    total energy              =   -1281.94167093 Ry
     Harris-Foulkes estimate   =   -1281.94167149 Ry
     estimated scf accuracy    <       0.00000062 Ry

     total all-electron energy =     -4786.385419 Ry

     The total energy is the sum of the following terms:

     one-electron contribution =    -646.77287956 Ry
     hartree contribution      =     421.50061099 Ry
     xc contribution           =    -260.40931032 Ry
     ewald contribution        =    -465.86389729 Ry
     one-center paw contrib.   =    -330.39619475 Ry

     convergence has been achieved in  13 iterations

     Writing output data file scf.pbe-ec-60-kp444.HMX-792827-nofor.nostress.save

     init_run     :     55.13s CPU    114.42s WALL (       1 calls)
     electrons    :   1586.49s CPU   2330.09s WALL (       1 calls)

     Called by init_run:
     wfcinit      :     33.39s CPU     74.64s WALL (       1 calls)
     potinit      :      7.12s CPU     11.91s WALL (       1 calls)

     Called by electrons:
     c_bands      :   1405.98s CPU   2065.87s WALL (      13 calls)
     sum_band     :    156.14s CPU    231.91s WALL (      13 calls)
     v_of_rho     :      4.85s CPU      8.21s WALL (      14 calls)
     v_h          :      0.33s CPU      0.50s WALL (      14 calls)
     v_xc         :      4.52s CPU      7.71s WALL (      14 calls)
     newd         :      8.85s CPU     12.89s WALL (      14 calls)
     PAW_pot      :      4.62s CPU      5.54s WALL (      14 calls)
     mix_rho      :      4.27s CPU      5.66s WALL (      13 calls)

     Called by c_bands:
     init_us_2    :     14.32s CPU     16.00s WALL (     432 calls)
     cegterg      :   1347.57s CPU   1981.16s WALL (     208 calls)

     Called by sum_band:
     sum_band:bec :      0.34s CPU      0.36s WALL (     208 calls)
     addusdens    :     32.89s CPU     31.66s WALL (      13 calls)

     Called by *egterg:
     h_psi        :    520.33s CPU    881.15s WALL (    1214 calls)
     s_psi        :     85.11s CPU     80.20s WALL (    1214 calls)
     g_psi        :      1.20s CPU      1.49s WALL (     990 calls)
     cdiaghg      :    380.83s CPU    446.67s WALL (    1198 calls)
     cegterg:over :    138.19s CPU    274.53s WALL (     990 calls)
     cegterg:upda :     75.62s CPU     65.83s WALL (     990 calls)
     cegterg:last :     50.74s CPU     62.32s WALL (     240 calls)

     Called by h_psi:
     h_psi:vloc   :    279.63s CPU    484.31s WALL (    1214 calls)
     h_psi:vnl    :    233.37s CPU    388.40s WALL (    1214 calls)
     add_vuspsi   :     93.95s CPU    109.73s WALL (    1214 calls)

     General routines
     calbec       :    176.57s CPU    352.47s WALL (    1422 calls)
     fft          :      5.72s CPU     13.52s WALL (     220 calls)
     ffts         :      0.32s CPU      0.71s WALL (      27 calls)
     fftw         :    264.38s CPU    491.78s WALL (  171722 calls)
     interpolate  :      2.15s CPU      3.29s WALL (      27 calls)
     davcio       :      0.41s CPU     22.52s WALL (      16 calls)

     Parallel routines
     fft_scatter  :    154.53s CPU    367.45s WALL (  171969 calls)

     PAW routines
     PAW_pot      :      4.62s CPU      5.54s WALL (      14 calls)
     PAW_symme    :      0.12s CPU      0.31s WALL (      27 calls)

     PWSCF        : 27m25.35s CPU    41m16.85s WALL


   This run was terminated on:  23:37:18  21May2016            

=------------------------------------------------------------------------------=
   JOB DONE.
=------------------------------------------------------------------------------=
