
     Program PWSCF v.5.3.0 (svn rev. 11974) starts on 21May2016 at 22:41:22 

     This program is part of the open-source Quantum ESPRESSO suite
     for quantum simulation of materials; please cite
         "P. Giannozzi et al., J. Phys.:Condens. Matter 21 395502 (2009);
          URL http://www.quantum-espresso.org", 
     in publications or presentations arising from this work. More details at
     http://www.quantum-espresso.org/quote

     Parallel version (MPI), running on    32 processors
     R & G space division:  proc/nbgrp/npool/nimage =      32
     Waiting for input...
     Reading input from standard input
Warning: card    &IONS ignored
Warning: card TRUST_RADIUS_MAX=0.2 ignored
Warning: card / ignored
Warning: card     &CELL ignored
Warning: card CELL_DYNAMICS='BFGS' ignored
Warning: card / ignored

     Current dimensions of program PWSCF are:
     Max number of different atomic species (ntypx) = 10
     Max number of k-points (npk) =  40000
     Max angular momentum in pseudopotentials (lmaxx) =  3
               file N.pbe-n-kjpaw_psl.1.0.0.UPF: wavefunction(s)  2S renormalized
               file C.pbe-n-kjpaw_psl.1.0.0.UPF: wavefunction(s)  2S 2P renormalized
               file H.pbe-kjpaw_psl.1.0.0.UPF: wavefunction(s)  1S renormalized
               file O.pbe-n-kjpaw_psl.1.0.0.UPF: wavefunction(s)  2S 2P renormalized

     Subspace diagonalization in iterative solution of the eigenvalue problem:
     a serial algorithm will be used


     Parallelization info
     --------------------
     sticks:   dense  smooth     PW     G-vecs:    dense   smooth      PW
     Min         127      51     14                 5179     1302     199
     Max         128      52     15                 5184     1326     202
     Sum        4075    1637    469               165783    42011    6411


     Title: 
     HMX-scf-pbe-n-kjpaw-kp242-ec-20-nofor-nostress-conv-em4                    


     bravais-lattice index     =            0
     lattice parameter (alat)  =       1.8897  a.u.
     unit-cell volume          =    3470.0091 (a.u.)^3
     number of atoms/cell      =           56
     number of atomic types    =            4
     number of electrons       =       224.00
     number of Kohn-Sham states=          112
     kinetic-energy cutoff     =      20.0000  Ry
     charge density cutoff     =     200.0000  Ry
     convergence threshold     =      1.0E-06
     mixing beta               =       0.7000
     number of iterations used =            8  plain     mixing
     Exchange-correlation      =  SLA  PW   PBX  PBC ( 1  4  3  4 0 0)

     celldm(1)=   1.889726  celldm(2)=   0.000000  celldm(3)=   0.000000
     celldm(4)=   0.000000  celldm(5)=   0.000000  celldm(6)=   0.000000

     crystal axes: (cart. coord. in units of alat)
               a(1) = (   6.528900   0.000000   0.000000 )  
               a(2) = (   0.000000  10.987500   0.000000 )  
               a(3) = (  -1.604329   0.000000   7.167954 )  

     reciprocal axes: (cart. coord. in units 2 pi/alat)
               b(1) = (  0.153165 -0.000000  0.034281 )  
               b(2) = (  0.000000  0.091013 -0.000000 )  
               b(3) = (  0.000000  0.000000  0.139510 )  


     PseudoPot. # 1 for  N read from file:
     /users/majewski/.data/PSEUDOPOTENTIALS/N.pbe-n-kjpaw_psl.1.0.0.UPF
     MD5 check sum: c21df8f53e59d08c3548513d559cdda6
     Pseudo is Projector augmented-wave + core cor, Zval =  5.0
     Generated using "atomic" code by A. Dal Corso  v.5.3.0 svn rev. 11974
     Shape of augmentation charge: PSQ
     Using radial grid of 1085 points,  4 beta functions with: 
                l(1) =   0
                l(2) =   0
                l(3) =   1
                l(4) =   1
     Q(r) pseudized with 0 coefficients 


     PseudoPot. # 2 for  C read from file:
     /users/majewski/.data/PSEUDOPOTENTIALS/C.pbe-n-kjpaw_psl.1.0.0.UPF
     MD5 check sum: 2ba8448e293caca687844dde9a1b88a8
     Pseudo is Projector augmented-wave + core cor, Zval =  4.0
     Generated using "atomic" code by A. Dal Corso  v.5.3.0 svn rev. 11974
     Shape of augmentation charge: PSQ
     Using radial grid of 1073 points,  4 beta functions with: 
                l(1) =   0
                l(2) =   0
                l(3) =   1
                l(4) =   1
     Q(r) pseudized with 0 coefficients 


     PseudoPot. # 3 for  H read from file:
     /users/majewski/.data/PSEUDOPOTENTIALS/H.pbe-kjpaw_psl.1.0.0.UPF
     MD5 check sum: bc0feb48a24907a0b97fa6ee2d589a29
     Pseudo is Projector augmented-wave, Zval =  1.0
     Generated using "atomic" code by A. Dal Corso  v.5.3.0 svn rev. 11974
     Shape of augmentation charge: PSQ
     Using radial grid of  929 points,  2 beta functions with: 
                l(1) =   0
                l(2) =   0
     Q(r) pseudized with 0 coefficients 


     PseudoPot. # 4 for  O read from file:
     /users/majewski/.data/PSEUDOPOTENTIALS/O.pbe-n-kjpaw_psl.1.0.0.UPF
     MD5 check sum: 9c0ade6c043cf4a781bde3908a3a8206
     Pseudo is Projector augmented-wave + core cor, Zval =  6.0
     Generated using "atomic" code by A. Dal Corso  v.5.3.0 svn rev. 11974
     Shape of augmentation charge: PSQ
     Using radial grid of 1095 points,  4 beta functions with: 
                l(1) =   0
                l(2) =   0
                l(3) =   1
                l(4) =   1
     Q(r) pseudized with 0 coefficients 


     atomic species   valence    mass     pseudopotential
        N              5.00    14.00670      N( 1.00)
        C              4.00    12.01100      C( 1.00)
        H              1.00     1.00790      H( 1.00)
        O              6.00    15.99940      O( 1.00)

      4 Sym. Ops., with inversion, found ( 2 have fractional translation)


                                    s                        frac. trans.

      isym =  1     identity                                     

 cryst.   s( 1) = (     1          0          0      )
                  (     0          1          0      )
                  (     0          0          1      )

 cart.    s( 1) = (  1.0000000  0.0000000  0.0000000 )
                  (  0.0000000  1.0000000  0.0000000 )
                  (  0.0000000  0.0000000  1.0000000 )


      isym =  2     180 deg rotation - cart. axis [0,1,0]        

 cryst.   s( 2) = (    -1          0          0      )    f =(  0.5000000 )
                  (     0          1          0      )       (  0.5000000 )
                  (     0          0         -1      )       (  0.5000000 )

 cart.    s( 2) = ( -1.0000000  0.0000000 -0.0000000 )    f =(  2.4622854 )
                  (  0.0000000  1.0000000  0.0000000 )       (  5.4937500 )
                  (  0.0000000  0.0000000 -1.0000000 )       (  3.5839768 )


      isym =  3     inversion                                    

 cryst.   s( 3) = (    -1          0          0      )
                  (     0         -1          0      )
                  (     0          0         -1      )

 cart.    s( 3) = ( -1.0000000  0.0000000 -0.0000000 )
                  (  0.0000000 -1.0000000  0.0000000 )
                  (  0.0000000  0.0000000 -1.0000000 )


      isym =  4     inv. 180 deg rotation - cart. axis [0,1,0]   

 cryst.   s( 4) = (     1          0          0      )    f =( -0.5000000 )
                  (     0         -1          0      )       (  0.5000000 )
                  (     0          0          1      )       (  0.5000000 )

 cart.    s( 4) = (  1.0000000  0.0000000  0.0000000 )    f =( -4.0666146 )
                  (  0.0000000 -1.0000000  0.0000000 )       (  5.4937500 )
                  (  0.0000000  0.0000000  1.0000000 )       (  3.5839768 )


   Cartesian axes

     site n.     atom                  positions (alat units)
         1           N   tau(   1) = (  -0.8614487   6.8444434   3.3109495  )
         2           O   tau(   2) = (   1.0746241   7.9096815   3.1371266  )
         3           N   tau(   3) = (   0.0618658   7.7221249   3.8135664  )
         4           N   tau(   4) = (  -2.0647129   5.7697560   5.0587833  )
         5           O   tau(   5) = (  -3.2542440   4.7069351   6.6110753  )
         6           N   tau(   6) = (  -3.2426279   5.5114399   5.6869828  )
         7           O   tau(   7) = (  -0.1753723   8.2085415   4.8971459  )
         8           C   tau(   8) = (  -2.1300386   6.7612680   3.9714764  )
         9           H   tau(   9) = (  -2.8138762   6.5024025   3.3338152  )
        10           H   tau(  10) = (  -2.3673225   7.6286213   4.3344616  )
        11           O   tau(  11) = (  -4.2140784   6.1608011   5.2929603  )
        12           C   tau(  12) = (  -0.5990533   6.2146399   2.0230832  )
        13           H   tau(  13) = (  -1.3903515   5.7475613   1.7138577  )
        14           H   tau(  14) = (  -0.3482788   6.8660888   1.3518761  )
        15           H   tau(  15) = (   3.7183358  -1.3723388  -2.2321008  )
        16           H   tau(  16) = (   2.6762631  -0.2538112  -1.8701191  )
        17           C   tau(  17) = (   3.4675614  -0.7208899  -1.5608936  )
        18           O   tau(  18) = (  -0.1474638  -0.6670511   1.7089835  )
        19           H   tau(  19) = (   1.6992921  -2.1348713   0.7504847  )
        20           H   tau(  20) = (   1.2527385  -1.0086525  -0.2501616  )
        21           C   tau(  21) = (   1.9365761  -1.2675180   0.3874996  )
        22           O   tau(  22) = (   3.8912424  -2.7147915   1.3131691  )
        23           N   tau(  23) = (   0.8239867  -0.0176899   2.1030059  )
        24           O   tau(  24) = (   0.8123707   0.7868149   3.0270985  )
        25           N   tau(  25) = (   2.0019018  -0.2760060   1.4748065  )
        26           N   tau(  26) = (   4.1284804  -2.2283749   0.2295896  )
        27           O   tau(  27) = (   5.1412387  -2.4159315  -0.4468502  )
        28           N   tau(  28) = (   3.2051660  -1.3506934  -0.2730274  )
        29           H   tau(  29) = (  -1.2560505   4.1214113   5.8160776  )
        30           H   tau(  30) = (  -0.2139778   5.2399388   5.4540959  )
        31           C   tau(  31) = (  -1.0052760   4.7728601   5.1448704  )
        32           O   tau(  32) = (   2.6097491   4.8266989   1.8749933  )
        33           H   tau(  33) = (   0.7629932   3.3588788   2.8334921  )
        34           H   tau(  34) = (   1.2095469   4.4850975   3.8341384  )
        35           C   tau(  35) = (   0.5257093   4.2262320   3.1964773  )
        36           O   tau(  36) = (  -1.4289570   2.7789585   2.2708077  )
        37           N   tau(  37) = (   1.6382987   5.4760601   1.4809709  )
        38           O   tau(  38) = (   1.6499147   6.2805649   0.5568783  )
        39           N   tau(  39) = (   0.4603836   5.2177440   2.1091704  )
        40           N   tau(  40) = (  -1.6661950   3.2653751   3.3543873  )
        41           O   tau(  41) = (  -2.6789534   3.0778185   4.0308271  )
        42           N   tau(  42) = (  -0.7428806   4.1430566   3.8570042  )
        43           H   tau(  43) = (   2.8105642   1.3723388   2.2321008  )
        44           H   tau(  44) = (   3.8526369   0.2538112   1.8701191  )
        45           C   tau(  45) = (   3.0613386   0.7208899   1.5608936  )
        46           O   tau(  46) = (   6.6763638   0.6670511  -1.7089835  )
        47           H   tau(  47) = (   4.8296079   2.1348713  -0.7504847  )
        48           H   tau(  48) = (   5.2761615   1.0086525   0.2501616  )
        49           C   tau(  49) = (   4.5923239   1.2675180  -0.3874996  )
        50           O   tau(  50) = (   2.6376576   2.7147915  -1.3131691  )
        51           N   tau(  51) = (   5.7049133   0.0176899  -2.1030059  )
        52           O   tau(  52) = (   5.7165293  -0.7868149  -3.0270985  )
        53           N   tau(  53) = (   4.5269982   0.2760060  -1.4748065  )
        54           N   tau(  54) = (   2.4004196   2.2283749  -0.2295896  )
        55           O   tau(  55) = (   1.3876613   2.4159315   0.4468502  )
        56           N   tau(  56) = (   3.3237340   1.3506934   0.2730274  )

   Crystallographic axes

     site n.     atom                  positions (cryst. coord.)
         1           N   tau(   1) = ( -0.0184400  0.6229300  0.4619100  )
         2           O   tau(   2) = (  0.2721400  0.7198800  0.4376600  )
         3           N   tau(   3) = (  0.1402100  0.7028100  0.5320300  )
         4           N   tau(   4) = ( -0.1428200  0.5251200  0.7057500  )
         5           O   tau(   5) = ( -0.2718000  0.4283900  0.9223100  )
         6           N   tau(   6) = ( -0.3017000  0.5016100  0.7933900  )
         7           O   tau(   7) = (  0.1410200  0.7470800  0.6832000  )
         8           C   tau(   8) = ( -0.1901000  0.6153600  0.5540600  )
         9           H   tau(   9) = ( -0.3167000  0.5918000  0.4651000  )
        10           H   tau(  10) = ( -0.2140000  0.6943000  0.6047000  )
        11           O   tau(  11) = ( -0.4640000  0.5607100  0.7384200  )
        12           C   tau(  12) = ( -0.0224000  0.5656100  0.2822400  )
        13           H   tau(  13) = ( -0.1542000  0.5231000  0.2391000  )
        14           H   tau(  14) = ( -0.0070000  0.6249000  0.1886000  )
        15           H   tau(  15) = (  0.4930000 -0.1249000 -0.3114000  )
        16           H   tau(  16) = (  0.3458000 -0.0231000 -0.2609000  )
        17           C   tau(  17) = (  0.4776000 -0.0656100 -0.2177600  )
        18           O   tau(  18) = (  0.0360000 -0.0607100  0.2384200  )
        19           H   tau(  19) = (  0.2860000 -0.1943000  0.1047000  )
        20           H   tau(  20) = (  0.1833000 -0.0918000 -0.0349000  )
        21           C   tau(  21) = (  0.3099000 -0.1153600  0.0540600  )
        22           O   tau(  22) = (  0.6410200 -0.2470800  0.1832000  )
        23           N   tau(  23) = (  0.1983000 -0.0016100  0.2933900  )
        24           O   tau(  24) = (  0.2282000  0.0716100  0.4223100  )
        25           N   tau(  25) = (  0.3571800 -0.0251200  0.2057500  )
        26           N   tau(  26) = (  0.6402100 -0.2028100  0.0320300  )
        27           O   tau(  27) = (  0.7721400 -0.2198800 -0.0623400  )
        28           N   tau(  28) = (  0.4815600 -0.1229300 -0.0380900  )
        29           H   tau(  29) = (  0.0070000  0.3751000  0.8114000  )
        30           H   tau(  30) = (  0.1542000  0.4769000  0.7609000  )
        31           C   tau(  31) = (  0.0224000  0.4343900  0.7177600  )
        32           O   tau(  32) = (  0.4640000  0.4392900  0.2615800  )
        33           H   tau(  33) = (  0.2140000  0.3057000  0.3953000  )
        34           H   tau(  34) = (  0.3167000  0.4082000  0.5349000  )
        35           C   tau(  35) = (  0.1901000  0.3846400  0.4459400  )
        36           O   tau(  36) = ( -0.1410200  0.2529200  0.3168000  )
        37           N   tau(  37) = (  0.3017000  0.4983900  0.2066100  )
        38           O   tau(  38) = (  0.2718000  0.5716100  0.0776900  )
        39           N   tau(  39) = (  0.1428200  0.4748800  0.2942500  )
        40           N   tau(  40) = ( -0.1402100  0.2971900  0.4679700  )
        41           O   tau(  41) = ( -0.2721400  0.2801200  0.5623400  )
        42           N   tau(  42) = (  0.0184400  0.3770700  0.5380900  )
        43           H   tau(  43) = (  0.5070000  0.1249000  0.3114000  )
        44           H   tau(  44) = (  0.6542000  0.0231000  0.2609000  )
        45           C   tau(  45) = (  0.5224000  0.0656100  0.2177600  )
        46           O   tau(  46) = (  0.9640000  0.0607100 -0.2384200  )
        47           H   tau(  47) = (  0.7140000  0.1943000 -0.1047000  )
        48           H   tau(  48) = (  0.8167000  0.0918000  0.0349000  )
        49           C   tau(  49) = (  0.6901000  0.1153600 -0.0540600  )
        50           O   tau(  50) = (  0.3589800  0.2470800 -0.1832000  )
        51           N   tau(  51) = (  0.8017000  0.0016100 -0.2933900  )
        52           O   tau(  52) = (  0.7718000 -0.0716100 -0.4223100  )
        53           N   tau(  53) = (  0.6428200  0.0251200 -0.2057500  )
        54           N   tau(  54) = (  0.3597900  0.2028100 -0.0320300  )
        55           O   tau(  55) = (  0.2278600  0.2198800  0.0623400  )
        56           N   tau(  56) = (  0.5184400  0.1229300  0.0380900  )

     number of k points=    16
                       cart. coord. in units 2pi/alat
        k(    1) = (   0.0191456   0.0113766   0.0217239), wk =   0.1250000
        k(    2) = (   0.0191456   0.0113766   0.0566014), wk =   0.1250000
        k(    3) = (   0.0191456   0.0113766  -0.0480310), wk =   0.1250000
        k(    4) = (   0.0191456   0.0113766  -0.0131536), wk =   0.1250000
        k(    5) = (   0.0191456   0.0341297   0.0217239), wk =   0.1250000
        k(    6) = (   0.0191456   0.0341297   0.0566014), wk =   0.1250000
        k(    7) = (   0.0191456   0.0341297  -0.0480310), wk =   0.1250000
        k(    8) = (   0.0191456   0.0341297  -0.0131536), wk =   0.1250000
        k(    9) = (   0.0574369   0.0113766   0.0302942), wk =   0.1250000
        k(   10) = (   0.0574369   0.0113766   0.0651717), wk =   0.1250000
        k(   11) = (   0.0574369   0.0113766  -0.0394607), wk =   0.1250000
        k(   12) = (   0.0574369   0.0113766  -0.0045832), wk =   0.1250000
        k(   13) = (   0.0574369   0.0341297   0.0302942), wk =   0.1250000
        k(   14) = (   0.0574369   0.0341297   0.0651717), wk =   0.1250000
        k(   15) = (   0.0574369   0.0341297  -0.0394607), wk =   0.1250000
        k(   16) = (   0.0574369   0.0341297  -0.0045832), wk =   0.1250000

                       cryst. coord.
        k(    1) = (   0.1250000   0.1250000   0.1250000), wk =   0.1250000
        k(    2) = (   0.1250000   0.1250000   0.3750000), wk =   0.1250000
        k(    3) = (   0.1250000   0.1250000  -0.3750000), wk =   0.1250000
        k(    4) = (   0.1250000   0.1250000  -0.1250000), wk =   0.1250000
        k(    5) = (   0.1250000   0.3750000   0.1250000), wk =   0.1250000
        k(    6) = (   0.1250000   0.3750000   0.3750000), wk =   0.1250000
        k(    7) = (   0.1250000   0.3750000  -0.3750000), wk =   0.1250000
        k(    8) = (   0.1250000   0.3750000  -0.1250000), wk =   0.1250000
        k(    9) = (   0.3750000   0.1250000   0.1250000), wk =   0.1250000
        k(   10) = (   0.3750000   0.1250000   0.3750000), wk =   0.1250000
        k(   11) = (   0.3750000   0.1250000  -0.3750000), wk =   0.1250000
        k(   12) = (   0.3750000   0.1250000  -0.1250000), wk =   0.1250000
        k(   13) = (   0.3750000   0.3750000   0.1250000), wk =   0.1250000
        k(   14) = (   0.3750000   0.3750000   0.3750000), wk =   0.1250000
        k(   15) = (   0.3750000   0.3750000  -0.3750000), wk =   0.1250000
        k(   16) = (   0.3750000   0.3750000  -0.1250000), wk =   0.1250000

     Dense  grid:   165783 G-vectors     FFT dimensions: (  60,  96,  64)

     Smooth grid:    42011 G-vectors     FFT dimensions: (  36,  60,  40)

     Largest allocated arrays     est. size (Mb)     dimensions
        Kohn-Sham Wavefunctions         0.29 Mb     (     172,  112)
        NL pseudopotentials             0.92 Mb     (     172,  352)
        Each V/rho on FFT grid          0.18 Mb     (   11520)
        Each G-vector array             0.04 Mb     (    5180)
        G-vector shells                 0.04 Mb     (    4934)
     Largest temporary arrays     est. size (Mb)     dimensions
        Auxiliary wavefunctions         1.18 Mb     (     172,  448)
        Each subspace H/S matrix        3.06 Mb     (     448,  448)
        Each <psi_i|beta_j> matrix      0.60 Mb     (     352,  112)
        Arrays for rho mixing           1.41 Mb     (   11520,    8)

     Check: negative/imaginary core charge=   -0.000042    0.000000

     Initial potential from superposition of free atoms

     starting charge  223.99937, renormalised to  224.00000
     Starting wfc are  176 randomized atomic wfcs
     Checking if some PAW data can be deallocated... 
       node    0, deallocated PAW data for type:  2
       node    0, deallocated PAW data for type:  3
       node    1, deallocated PAW data for type:  2
       node    1, deallocated PAW data for type:  3
       node    1, deallocated PAW data for type:  4
       node    2, deallocated PAW data for type:  2
       node    2, deallocated PAW data for type:  3
       node    3, deallocated PAW data for type:  1
       node    3, deallocated PAW data for type:  3
       node    4, deallocated PAW data for type:  1
       node    4, deallocated PAW data for type:  2
       node    4, deallocated PAW data for type:  4
       node    5, deallocated PAW data for type:  1
       node    5, deallocated PAW data for type:  3
       node    6, deallocated PAW data for type:  1
       node    6, deallocated PAW data for type:  2
       node    6, deallocated PAW data for type:  4
       node    7, deallocated PAW data for type:  1
       node    7, deallocated PAW data for type:  2
       node    7, deallocated PAW data for type:  4
       node    8, deallocated PAW data for type:  1
       node    8, deallocated PAW data for type:  3
       node    9, deallocated PAW data for type:  1
       node    9, deallocated PAW data for type:  2
       node    9, deallocated PAW data for type:  4
       node   10, deallocated PAW data for type:  1
       node   10, deallocated PAW data for type:  3
       node   11, deallocated PAW data for type:  2
       node   11, deallocated PAW data for type:  3
       node   12, deallocated PAW data for type:  2
       node   12, deallocated PAW data for type:  3
       node   12, deallocated PAW data for type:  4
       node   13, deallocated PAW data for type:  2
       node   13, deallocated PAW data for type:  3
       node   14, deallocated PAW data for type:  1
       node   14, deallocated PAW data for type:  2
       node   14, deallocated PAW data for type:  4
       node   15, deallocated PAW data for type:  1
       node   15, deallocated PAW data for type:  3
       node   16, deallocated PAW data for type:  1
       node   16, deallocated PAW data for type:  2
       node   16, deallocated PAW data for type:  4
       node   17, deallocated PAW data for type:  1
       node   17, deallocated PAW data for type:  3
       node   18, deallocated PAW data for type:  2
       node   18, deallocated PAW data for type:  3
       node   19, deallocated PAW data for type:  2
       node   19, deallocated PAW data for type:  3
       node   19, deallocated PAW data for type:  4
       node   20, deallocated PAW data for type:  2
       node   20, deallocated PAW data for type:  3
       node   21, deallocated PAW data for type:  1
       node   21, deallocated PAW data for type:  2
       node   21, deallocated PAW data for type:  4
       node   22, deallocated PAW data for type:  1
       node   22, deallocated PAW data for type:  3
       node   23, deallocated PAW data for type:  1
       node   23, deallocated PAW data for type:  2
       node   23, deallocated PAW data for type:  4
       node   24, deallocated PAW data for type:  1
       node   24, deallocated PAW data for type:  3
       node   24, deallocated PAW data for type:  4
       node   25, deallocated PAW data for type:  1
       node   25, deallocated PAW data for type:  2
       node   25, deallocated PAW data for type:  3
       node   26, deallocated PAW data for type:  2
       node   26, deallocated PAW data for type:  3
       node   26, deallocated PAW data for type:  4
       node   27, deallocated PAW data for type:  1
       node   27, deallocated PAW data for type:  2
       node   27, deallocated PAW data for type:  3
       node   28, deallocated PAW data for type:  2
       node   28, deallocated PAW data for type:  3
       node   28, deallocated PAW data for type:  4
       node   29, deallocated PAW data for type:  2
       node   29, deallocated PAW data for type:  3
       node   29, deallocated PAW data for type:  4
       node   30, deallocated PAW data for type:  1
       node   30, deallocated PAW data for type:  2
       node   30, deallocated PAW data for type:  3
       node   31, deallocated PAW data for type:  2
       node   31, deallocated PAW data for type:  3
       node   31, deallocated PAW data for type:  4

     total cpu time spent up to now is       38.6 secs

     per-process dynamical memory:    19.4 Mb

     Self-consistent Calculation

     iteration #  1     ecut=    20.00 Ry     beta=0.70
     Davidson diagonalization with overlap
     ethr =  1.00E-02,  avg # of iterations =  2.1

     total cpu time spent up to now is      102.7 secs

     total energy              =   -1241.93119993 Ry
     Harris-Foulkes estimate   =   -1251.27621435 Ry
     estimated scf accuracy    <      13.18096084 Ry

     iteration #  2     ecut=    20.00 Ry     beta=0.70
     Davidson diagonalization with overlap
     ethr =  5.88E-03,  avg # of iterations =  4.0

     total cpu time spent up to now is      199.4 secs

     total energy              =   -1241.39767579 Ry
     Harris-Foulkes estimate   =   -1252.05210633 Ry
     estimated scf accuracy    <      23.45068475 Ry

     iteration #  3     ecut=    20.00 Ry     beta=0.70
     Davidson diagonalization with overlap
     ethr =  5.88E-03,  avg # of iterations =  3.0

     total cpu time spent up to now is      272.6 secs

     total energy              =   -1246.97922760 Ry
     Harris-Foulkes estimate   =   -1247.93168646 Ry
     estimated scf accuracy    <       2.34021842 Ry

     iteration #  4     ecut=    20.00 Ry     beta=0.70
     Davidson diagonalization with overlap
     ethr =  1.04E-03,  avg # of iterations =  2.6

     negative rho (up, down):  3.335E-03 0.000E+00

     total cpu time spent up to now is      317.3 secs

     total energy              =   -1247.25287506 Ry
     Harris-Foulkes estimate   =   -1247.31941065 Ry
     estimated scf accuracy    <       0.16565861 Ry

     iteration #  5     ecut=    20.00 Ry     beta=0.70
     Davidson diagonalization with overlap
     ethr =  7.40E-05,  avg # of iterations =  3.6

     negative rho (up, down):  4.643E-03 0.000E+00

     total cpu time spent up to now is      399.8 secs

     total energy              =   -1247.27986863 Ry
     Harris-Foulkes estimate   =   -1247.29388364 Ry
     estimated scf accuracy    <       0.02514279 Ry

     iteration #  6     ecut=    20.00 Ry     beta=0.70
     Davidson diagonalization with overlap
     ethr =  1.12E-05,  avg # of iterations =  3.0

     negative rho (up, down):  4.893E-03 0.000E+00

     total cpu time spent up to now is      470.6 secs

     total energy              =   -1247.28629589 Ry
     Harris-Foulkes estimate   =   -1247.28884286 Ry
     estimated scf accuracy    <       0.00533040 Ry

     iteration #  7     ecut=    20.00 Ry     beta=0.70
     Davidson diagonalization with overlap
     ethr =  2.38E-06,  avg # of iterations =  4.0

     negative rho (up, down):  4.915E-03 0.000E+00

     total cpu time spent up to now is      560.5 secs

     total energy              =   -1247.28738611 Ry
     Harris-Foulkes estimate   =   -1247.28788186 Ry
     estimated scf accuracy    <       0.00104912 Ry

     iteration #  8     ecut=    20.00 Ry     beta=0.70
     Davidson diagonalization with overlap
     ethr =  4.68E-07,  avg # of iterations =  3.0

     negative rho (up, down):  4.938E-03 0.000E+00

     total cpu time spent up to now is      615.0 secs

     total energy              =   -1247.28761801 Ry
     Harris-Foulkes estimate   =   -1247.28764354 Ry
     estimated scf accuracy    <       0.00005725 Ry

     iteration #  9     ecut=    20.00 Ry     beta=0.70
     Davidson diagonalization with overlap
     ethr =  2.56E-08,  avg # of iterations =  3.1

     negative rho (up, down):  4.942E-03 0.000E+00

     total cpu time spent up to now is      702.7 secs

     total energy              =   -1247.28763065 Ry
     Harris-Foulkes estimate   =   -1247.28763645 Ry
     estimated scf accuracy    <       0.00001230 Ry

     iteration # 10     ecut=    20.00 Ry     beta=0.70
     Davidson diagonalization with overlap
     ethr =  5.49E-09,  avg # of iterations =  3.1

     negative rho (up, down):  4.943E-03 0.000E+00

     total cpu time spent up to now is      778.4 secs

     total energy              =   -1247.28763374 Ry
     Harris-Foulkes estimate   =   -1247.28763428 Ry
     estimated scf accuracy    <       0.00000150 Ry

     iteration # 11     ecut=    20.00 Ry     beta=0.70
     Davidson diagonalization with overlap
     ethr =  6.70E-10,  avg # of iterations =  3.9

     negative rho (up, down):  4.944E-03 0.000E+00

     total cpu time spent up to now is      862.4 secs

     End of self-consistent calculation

          k = 0.0191 0.0114 0.0217 (  5245 PWs)   bands (ev):

   -26.7698 -26.7686 -26.7630 -26.7618 -26.3754 -26.3706 -26.3605 -26.3530
   -23.1538 -23.1501 -23.1454 -23.1435 -22.8190 -22.8134 -22.8063 -22.8021
   -18.2668 -18.2328 -17.3633 -17.3036 -17.2182 -17.2112 -16.4095 -16.4008
   -12.3914 -12.2781 -12.1734 -12.0154 -11.9683 -11.9386 -11.4596 -11.4564
    -9.8725  -9.8154  -8.7566  -8.6883  -8.3095  -8.2578  -7.8358  -7.7608
    -7.1132  -7.0722  -6.9228  -6.8639  -6.4552  -6.4442  -6.3181  -6.2758
    -6.0353  -5.9613  -5.9061  -5.7797  -5.7572  -5.6889  -5.5578  -5.5239
    -5.4855  -5.4209  -5.3511  -5.2874  -5.1898  -5.0925  -4.9402  -4.8988
    -3.7795  -3.7139  -3.6164  -3.5707  -3.4838  -3.2890  -2.9320  -2.9110
    -2.8247  -2.7529  -2.6457  -2.6127  -2.1742  -2.1723  -2.1113  -2.0680
     0.0537   0.1031   0.6433   0.7091   0.8028   0.9188   0.9495   0.9880
     1.0226   1.1538   1.2080   1.2296   1.3575   1.3973   1.6284   1.6536
     1.7045   1.7607   1.9440   1.9938   2.0850   2.1227   2.3444   2.4068
     2.4377   2.4886   2.5416   2.6978   2.7367   2.8218   2.8361   2.9299

     occupation numbers 
     1.0000   1.0000   1.0000   1.0000   1.0000   1.0000   1.0000   1.0000
     1.0000   1.0000   1.0000   1.0000   1.0000   1.0000   1.0000   1.0000
     1.0000   1.0000   1.0000   1.0000   1.0000   1.0000   1.0000   1.0000
     1.0000   1.0000   1.0000   1.0000   1.0000   1.0000   1.0000   1.0000
     1.0000   1.0000   1.0000   1.0000   1.0000   1.0000   1.0000   1.0000
     1.0000   1.0000   1.0000   1.0000   1.0000   1.0000   1.0000   1.0000
     1.0000   1.0000   1.0000   1.0000   1.0000   1.0000   1.0000   1.0000
     1.0000   1.0000   1.0000   1.0000   1.0000   1.0000   1.0000   1.0000
     1.0000   1.0000   1.0000   1.0000   1.0000   1.0000   1.0000   1.0000
     1.0000   1.0000   1.0000   1.0000   1.0000   1.0000   1.0000   1.0000
     1.0000   1.0000   1.0000   1.0000   1.0000   1.0000   1.0000   1.0000
     1.0000   1.0000   1.0000   1.0000   1.0000   1.0000   1.0000   1.0000
     1.0000   1.0000   1.0000   1.0000   1.0000   1.0000   1.0000   1.0000
     1.0000   1.0000   1.0000   1.0000   1.0000   1.0000   1.0000   1.0000

          k = 0.0191 0.0114 0.0566 (  5247 PWs)   bands (ev):

   -26.7717 -26.7701 -26.7667 -26.7626 -26.3728 -26.3722 -26.3651 -26.3609
   -23.1582 -23.1512 -23.1486 -23.1431 -22.8204 -22.8179 -22.8094 -22.7995
   -18.2545 -18.2508 -17.3383 -17.3319 -17.2132 -17.2046 -16.4119 -16.4054
   -12.3238 -12.2983 -12.1051 -12.0821 -12.0003 -11.9831 -11.4615 -11.4560
    -9.8466  -9.8240  -8.7120  -8.7026  -8.3413  -8.2595  -7.8285  -7.7690
    -7.1341  -7.0827  -6.9100  -6.8753  -6.4922  -6.4713  -6.3329  -6.2887
    -6.0301  -5.9932  -5.9384  -5.8123  -5.7304  -5.7078  -5.5683  -5.5366
    -5.4552  -5.4329  -5.3090  -5.2586  -5.2200  -5.0542  -4.9851  -4.9053
    -3.7879  -3.7041  -3.5091  -3.4923  -3.4031  -3.3403  -3.0007  -2.9896
    -2.8244  -2.7757  -2.6338  -2.6177  -2.2367  -2.2041  -2.0871  -2.0384
     0.1296   0.1738   0.6210   0.6908   0.7363   0.8190   0.8952   0.9149
     0.9832   1.0784   1.1680   1.2689   1.3810   1.4302   1.5518   1.6001
     1.8034   1.8665   1.9078   1.9954   2.1444   2.1948   2.2187   2.3400
     2.4952   2.5111   2.5860   2.6462   2.7479   2.8193   2.8402   3.0547

     occupation numbers 
     1.0000   1.0000   1.0000   1.0000   1.0000   1.0000   1.0000   1.0000
     1.0000   1.0000   1.0000   1.0000   1.0000   1.0000   1.0000   1.0000
     1.0000   1.0000   1.0000   1.0000   1.0000   1.0000   1.0000   1.0000
     1.0000   1.0000   1.0000   1.0000   1.0000   1.0000   1.0000   1.0000
     1.0000   1.0000   1.0000   1.0000   1.0000   1.0000   1.0000   1.0000
     1.0000   1.0000   1.0000   1.0000   1.0000   1.0000   1.0000   1.0000
     1.0000   1.0000   1.0000   1.0000   1.0000   1.0000   1.0000   1.0000
     1.0000   1.0000   1.0000   1.0000   1.0000   1.0000   1.0000   1.0000
     1.0000   1.0000   1.0000   1.0000   1.0000   1.0000   1.0000   1.0000
     1.0000   1.0000   1.0000   1.0000   1.0000   1.0000   1.0000   1.0000
     1.0000   1.0000   1.0000   1.0000   1.0000   1.0000   1.0000   1.0000
     1.0000   1.0000   1.0000   1.0000   1.0000   1.0000   1.0000   1.0000
     1.0000   1.0000   1.0000   1.0000   1.0000   1.0000   1.0000   1.0000
     1.0000   1.0000   1.0000   1.0000   1.0000   1.0000   1.0000   1.0000

          k = 0.0191 0.0114-0.0480 (  5237 PWs)   bands (ev):

   -26.7716 -26.7664 -26.7629 -26.7618 -26.3740 -26.3717 -26.3606 -26.3549
   -23.1579 -23.1507 -23.1430 -23.1359 -22.8205 -22.8129 -22.8046 -22.7957
   -18.2636 -18.2362 -17.3607 -17.3061 -17.2143 -17.2067 -16.4144 -16.3942
   -12.3548 -12.2708 -12.1519 -12.0298 -11.9964 -11.9893 -11.4620 -11.4596
    -9.8524  -9.7854  -8.7406  -8.6558  -8.3224  -8.2945  -7.8243  -7.7409
    -7.1413  -7.0757  -6.9177  -6.8962  -6.4906  -6.4348  -6.3290  -6.2877
    -6.0170  -5.9512  -5.8977  -5.8447  -5.7252  -5.6266  -5.5954  -5.5450
    -5.4465  -5.4042  -5.2535  -5.2139  -5.1479  -5.0936  -4.9520  -4.9044
    -3.7636  -3.6570  -3.5530  -3.4485  -3.3699  -3.3385  -2.9951  -2.9771
    -2.8267  -2.7951  -2.6774  -2.5742  -2.2215  -2.1995  -2.0647  -2.0554
     0.2170   0.3225   0.6335   0.6877   0.7425   0.7856   0.8428   0.8669
     0.9832   1.1179   1.1978   1.2638   1.3953   1.4429   1.5336   1.6570
     1.8092   1.9222   1.9695   2.0356   2.0845   2.2323   2.2603   2.3108
     2.4250   2.5835   2.6485   2.6700   2.7754   2.8025   3.0360   3.0985

     occupation numbers 
     1.0000   1.0000   1.0000   1.0000   1.0000   1.0000   1.0000   1.0000
     1.0000   1.0000   1.0000   1.0000   1.0000   1.0000   1.0000   1.0000
     1.0000   1.0000   1.0000   1.0000   1.0000   1.0000   1.0000   1.0000
     1.0000   1.0000   1.0000   1.0000   1.0000   1.0000   1.0000   1.0000
     1.0000   1.0000   1.0000   1.0000   1.0000   1.0000   1.0000   1.0000
     1.0000   1.0000   1.0000   1.0000   1.0000   1.0000   1.0000   1.0000
     1.0000   1.0000   1.0000   1.0000   1.0000   1.0000   1.0000   1.0000
     1.0000   1.0000   1.0000   1.0000   1.0000   1.0000   1.0000   1.0000
     1.0000   1.0000   1.0000   1.0000   1.0000   1.0000   1.0000   1.0000
     1.0000   1.0000   1.0000   1.0000   1.0000   1.0000   1.0000   1.0000
     1.0000   1.0000   1.0000   1.0000   1.0000   1.0000   1.0000   1.0000
     1.0000   1.0000   1.0000   1.0000   1.0000   1.0000   1.0000   1.0000
     1.0000   1.0000   1.0000   1.0000   1.0000   1.0000   1.0000   1.0000
     1.0000   1.0000   1.0000   1.0000   1.0000   1.0000   1.0000   1.0000

          k = 0.0191 0.0114-0.0132 (  5233 PWs)   bands (ev):

   -26.7734 -26.7662 -26.7627 -26.7549 -26.3730 -26.3708 -26.3594 -26.3484
   -23.1547 -23.1439 -23.1358 -23.1309 -22.8266 -22.8098 -22.8049 -22.7917
   -18.2694 -18.2266 -17.3723 -17.2934 -17.2167 -17.2134 -16.4117 -16.3887
   -12.4077 -12.2720 -12.1834 -11.9907 -11.9558 -11.9504 -11.4585 -11.4561
    -9.8612  -9.7834  -8.7643  -8.6883  -8.3179  -8.2773  -7.8063  -7.7156
    -7.0992  -7.0862  -6.9172  -6.8572  -6.4518  -6.4412  -6.3079  -6.2732
    -6.0409  -5.9113  -5.8708  -5.8166  -5.7546  -5.6368  -5.5668  -5.5221
    -5.4706  -5.4197  -5.2875  -5.2628  -5.1436  -5.0488  -4.9334  -4.8467
    -3.7469  -3.6840  -3.5983  -3.5662  -3.4961  -3.2864  -2.9263  -2.9073
    -2.8586  -2.7550  -2.6333  -2.5929  -2.1823  -2.1611  -2.0802  -2.0724
     0.1760   0.2003   0.7007   0.7818   0.8300   0.8935   0.9070   0.9468
     1.0180   1.1114   1.1562   1.2030   1.3121   1.3942   1.6206   1.7127
     1.7993   1.8401   2.0117   2.0414   2.1008   2.1514   2.3894   2.4548
     2.4936   2.5214   2.5666   2.6801   2.7298   2.8490   2.9139   3.0200

     occupation numbers 
     1.0000   1.0000   1.0000   1.0000   1.0000   1.0000   1.0000   1.0000
     1.0000   1.0000   1.0000   1.0000   1.0000   1.0000   1.0000   1.0000
     1.0000   1.0000   1.0000   1.0000   1.0000   1.0000   1.0000   1.0000
     1.0000   1.0000   1.0000   1.0000   1.0000   1.0000   1.0000   1.0000
     1.0000   1.0000   1.0000   1.0000   1.0000   1.0000   1.0000   1.0000
     1.0000   1.0000   1.0000   1.0000   1.0000   1.0000   1.0000   1.0000
     1.0000   1.0000   1.0000   1.0000   1.0000   1.0000   1.0000   1.0000
     1.0000   1.0000   1.0000   1.0000   1.0000   1.0000   1.0000   1.0000
     1.0000   1.0000   1.0000   1.0000   1.0000   1.0000   1.0000   1.0000
     1.0000   1.0000   1.0000   1.0000   1.0000   1.0000   1.0000   1.0000
     1.0000   1.0000   1.0000   1.0000   1.0000   1.0000   1.0000   1.0000
     1.0000   1.0000   1.0000   1.0000   1.0000   1.0000   1.0000   1.0000
     1.0000   1.0000   1.0000   1.0000   1.0000   1.0000   1.0000   1.0000
     1.0000   1.0000   1.0000   1.0000   1.0000   1.0000   1.0000   1.0000

          k = 0.0191 0.0341 0.0217 (  5249 PWs)   bands (ev):

   -26.7685 -26.7661 -26.7632 -26.7629 -26.3740 -26.3691 -26.3574 -26.3555
   -23.1595 -23.1534 -23.1422 -23.1384 -22.8227 -22.8157 -22.8091 -22.8076
   -18.2572 -18.2426 -17.3490 -17.3224 -17.2127 -17.2120 -16.4070 -16.4019
   -12.3789 -12.3334 -12.1100 -12.0451 -11.9630 -11.9460 -11.4594 -11.4570
    -9.8572  -9.8365  -8.7285  -8.7094  -8.3006  -8.2819  -7.8018  -7.7562
    -7.1068  -7.0879  -6.9030  -6.8761  -6.4650  -6.4584  -6.3042  -6.2894
    -6.0084  -5.9681  -5.8851  -5.8550  -5.7849  -5.7188  -5.5387  -5.5161
    -5.4868  -5.4379  -5.3113  -5.2563  -5.2019  -5.1433  -4.9685  -4.8905
    -3.7877  -3.7321  -3.6236  -3.5884  -3.4200  -3.3450  -2.9208  -2.9131
    -2.8068  -2.7697  -2.6422  -2.6241  -2.1785  -2.1710  -2.0956  -2.0802
     0.0622   0.0969   0.7049   0.7603   0.8191   0.8531   0.8889   0.9252
     1.0047   1.0712   1.2050   1.2254   1.4189   1.4491   1.6247   1.6401
     1.6881   1.7263   1.8934   1.9191   2.1033   2.1208   2.3203   2.4015
     2.4325   2.4465   2.6024   2.6452   2.7348   2.8023   2.8366   2.9251

     occupation numbers 
     1.0000   1.0000   1.0000   1.0000   1.0000   1.0000   1.0000   1.0000
     1.0000   1.0000   1.0000   1.0000   1.0000   1.0000   1.0000   1.0000
     1.0000   1.0000   1.0000   1.0000   1.0000   1.0000   1.0000   1.0000
     1.0000   1.0000   1.0000   1.0000   1.0000   1.0000   1.0000   1.0000
     1.0000   1.0000   1.0000   1.0000   1.0000   1.0000   1.0000   1.0000
     1.0000   1.0000   1.0000   1.0000   1.0000   1.0000   1.0000   1.0000
     1.0000   1.0000   1.0000   1.0000   1.0000   1.0000   1.0000   1.0000
     1.0000   1.0000   1.0000   1.0000   1.0000   1.0000   1.0000   1.0000
     1.0000   1.0000   1.0000   1.0000   1.0000   1.0000   1.0000   1.0000
     1.0000   1.0000   1.0000   1.0000   1.0000   1.0000   1.0000   1.0000
     1.0000   1.0000   1.0000   1.0000   1.0000   1.0000   1.0000   1.0000
     1.0000   1.0000   1.0000   1.0000   1.0000   1.0000   1.0000   1.0000
     1.0000   1.0000   1.0000   1.0000   1.0000   1.0000   1.0000   1.0000
     1.0000   1.0000   1.0000   1.0000   1.0000   1.0000   1.0000   1.0000

          k = 0.0191 0.0341 0.0566 (  5247 PWs)   bands (ev):

   -26.7726 -26.7686 -26.7643 -26.7610 -26.3757 -26.3731 -26.3627 -26.3589
   -23.1542 -23.1534 -23.1518 -23.1460 -22.8176 -22.8132 -22.8111 -22.8022
   -18.2531 -18.2503 -17.3388 -17.3345 -17.2118 -17.2076 -16.4094 -16.4058
   -12.3147 -12.3031 -12.1051 -12.0938 -11.9976 -11.9886 -11.4593 -11.4566
    -9.8373  -9.8263  -8.7233  -8.7130  -8.3269  -8.2923  -7.7873  -7.7769
    -7.1283  -7.1090  -6.9077  -6.8856  -6.4906  -6.4784  -6.3210  -6.3089
    -6.0058  -5.9874  -5.8766  -5.8098  -5.7411  -5.7337  -5.6159  -5.5625
    -5.4068  -5.3729  -5.3429  -5.2954  -5.1857  -5.0726  -4.9592  -4.9029
    -3.7361  -3.6773  -3.5381  -3.5324  -3.3547  -3.3390  -2.9839  -2.9785
    -2.8016  -2.7887  -2.6266  -2.6186  -2.2147  -2.2099  -2.0779  -2.0594
     0.1447   0.1676   0.6576   0.7512   0.7635   0.7855   0.8129   0.8872
     1.0920   1.1329   1.2123   1.2980   1.3203   1.4217   1.5222   1.5516
     1.7964   1.8154   1.9536   1.9731   2.1499   2.1600   2.2334   2.2798
     2.4766   2.5476   2.5795   2.6054   2.8253   2.8376   2.9169   3.0185

     occupation numbers 
     1.0000   1.0000   1.0000   1.0000   1.0000   1.0000   1.0000   1.0000
     1.0000   1.0000   1.0000   1.0000   1.0000   1.0000   1.0000   1.0000
     1.0000   1.0000   1.0000   1.0000   1.0000   1.0000   1.0000   1.0000
     1.0000   1.0000   1.0000   1.0000   1.0000   1.0000   1.0000   1.0000
     1.0000   1.0000   1.0000   1.0000   1.0000   1.0000   1.0000   1.0000
     1.0000   1.0000   1.0000   1.0000   1.0000   1.0000   1.0000   1.0000
     1.0000   1.0000   1.0000   1.0000   1.0000   1.0000   1.0000   1.0000
     1.0000   1.0000   1.0000   1.0000   1.0000   1.0000   1.0000   1.0000
     1.0000   1.0000   1.0000   1.0000   1.0000   1.0000   1.0000   1.0000
     1.0000   1.0000   1.0000   1.0000   1.0000   1.0000   1.0000   1.0000
     1.0000   1.0000   1.0000   1.0000   1.0000   1.0000   1.0000   1.0000
     1.0000   1.0000   1.0000   1.0000   1.0000   1.0000   1.0000   1.0000
     1.0000   1.0000   1.0000   1.0000   1.0000   1.0000   1.0000   1.0000
     1.0000   1.0000   1.0000   1.0000   1.0000   1.0000   1.0000   1.0000

          k = 0.0191 0.0341-0.0480 (  5236 PWs)   bands (ev):

   -26.7694 -26.7667 -26.7647 -26.7593 -26.3745 -26.3709 -26.3577 -26.3538
   -23.1586 -23.1551 -23.1364 -23.1323 -22.8218 -22.8138 -22.8069 -22.8008
   -18.2564 -18.2441 -17.3461 -17.3232 -17.2123 -17.2091 -16.4082 -16.3984
   -12.3361 -12.3091 -12.1063 -12.0596 -11.9950 -11.9898 -11.4605 -11.4593
    -9.8195  -9.8041  -8.7149  -8.6862  -8.3232  -8.3046  -7.7974  -7.7490
    -7.0999  -7.0894  -6.9014  -6.8878  -6.4848  -6.4743  -6.3202  -6.3050
    -5.9998  -5.9505  -5.8929  -5.8242  -5.7223  -5.6783  -5.6032  -5.5742
    -5.3969  -5.3387  -5.3018  -5.2430  -5.1454  -5.0899  -4.9741  -4.9177
    -3.7237  -3.6646  -3.5150  -3.4611  -3.3742  -3.3538  -2.9881  -2.9789
    -2.8059  -2.7911  -2.6629  -2.6075  -2.2109  -2.1951  -2.0715  -2.0585
     0.2497   0.3009   0.6052   0.6811   0.7314   0.7580   0.8641   0.8831
     1.0371   1.1001   1.2253   1.2911   1.3540   1.3764   1.5431   1.6183
     1.8474   1.9159   1.9618   1.9910   2.1223   2.1772   2.2901   2.3443
     2.4468   2.5165   2.6404   2.6691   2.7812   2.8570   2.9669   3.0910

     occupation numbers 
     1.0000   1.0000   1.0000   1.0000   1.0000   1.0000   1.0000   1.0000
     1.0000   1.0000   1.0000   1.0000   1.0000   1.0000   1.0000   1.0000
     1.0000   1.0000   1.0000   1.0000   1.0000   1.0000   1.0000   1.0000
     1.0000   1.0000   1.0000   1.0000   1.0000   1.0000   1.0000   1.0000
     1.0000   1.0000   1.0000   1.0000   1.0000   1.0000   1.0000   1.0000
     1.0000   1.0000   1.0000   1.0000   1.0000   1.0000   1.0000   1.0000
     1.0000   1.0000   1.0000   1.0000   1.0000   1.0000   1.0000   1.0000
     1.0000   1.0000   1.0000   1.0000   1.0000   1.0000   1.0000   1.0000
     1.0000   1.0000   1.0000   1.0000   1.0000   1.0000   1.0000   1.0000
     1.0000   1.0000   1.0000   1.0000   1.0000   1.0000   1.0000   1.0000
     1.0000   1.0000   1.0000   1.0000   1.0000   1.0000   1.0000   1.0000
     1.0000   1.0000   1.0000   1.0000   1.0000   1.0000   1.0000   1.0000
     1.0000   1.0000   1.0000   1.0000   1.0000   1.0000   1.0000   1.0000
     1.0000   1.0000   1.0000   1.0000   1.0000   1.0000   1.0000   1.0000

          k = 0.0191 0.0341-0.0132 (  5241 PWs)   bands (ev):

   -26.7710 -26.7673 -26.7637 -26.7599 -26.3752 -26.3728 -26.3557 -26.3512
   -23.1520 -23.1448 -23.1437 -23.1340 -22.8227 -22.8150 -22.8044 -22.8008
   -18.2578 -18.2394 -17.3500 -17.3164 -17.2188 -17.2163 -16.4063 -16.3959
   -12.3879 -12.3401 -12.1004 -12.0258 -11.9628 -11.9580 -11.4581 -11.4555
    -9.8426  -9.8207  -8.7421  -8.7092  -8.2956  -8.2809  -7.7864  -7.7462
    -7.0990  -7.0902  -6.9113  -6.8808  -6.4545  -6.4392  -6.3129  -6.3007
    -6.0080  -5.9564  -5.9073  -5.8649  -5.7410  -5.6906  -5.5418  -5.4970
    -5.4777  -5.4369  -5.2838  -5.2434  -5.1823  -5.1234  -4.9474  -4.9066
    -3.7567  -3.6926  -3.5677  -3.5553  -3.4470  -3.3588  -2.9163  -2.9097
    -2.8138  -2.7735  -2.6408  -2.6267  -2.1841  -2.1692  -2.0919  -2.0870
     0.1406   0.1604   0.6822   0.7193   0.7486   0.8339   0.8805   0.9519
     0.9695   1.0523   1.1485   1.2344   1.3141   1.3916   1.6593   1.7228
     1.8492   1.8693   1.9316   1.9634   2.0503   2.1394   2.4101   2.4547
     2.4759   2.5034   2.5625   2.6436   2.7398   2.7707   2.9056   2.9696

     occupation numbers 
     1.0000   1.0000   1.0000   1.0000   1.0000   1.0000   1.0000   1.0000
     1.0000   1.0000   1.0000   1.0000   1.0000   1.0000   1.0000   1.0000
     1.0000   1.0000   1.0000   1.0000   1.0000   1.0000   1.0000   1.0000
     1.0000   1.0000   1.0000   1.0000   1.0000   1.0000   1.0000   1.0000
     1.0000   1.0000   1.0000   1.0000   1.0000   1.0000   1.0000   1.0000
     1.0000   1.0000   1.0000   1.0000   1.0000   1.0000   1.0000   1.0000
     1.0000   1.0000   1.0000   1.0000   1.0000   1.0000   1.0000   1.0000
     1.0000   1.0000   1.0000   1.0000   1.0000   1.0000   1.0000   1.0000
     1.0000   1.0000   1.0000   1.0000   1.0000   1.0000   1.0000   1.0000
     1.0000   1.0000   1.0000   1.0000   1.0000   1.0000   1.0000   1.0000
     1.0000   1.0000   1.0000   1.0000   1.0000   1.0000   1.0000   1.0000
     1.0000   1.0000   1.0000   1.0000   1.0000   1.0000   1.0000   1.0000
     1.0000   1.0000   1.0000   1.0000   1.0000   1.0000   1.0000   1.0000
     1.0000   1.0000   1.0000   1.0000   1.0000   1.0000   1.0000   1.0000

          k = 0.0574 0.0114 0.0303 (  5236 PWs)   bands (ev):

   -26.7669 -26.7662 -26.7626 -26.7553 -26.3702 -26.3659 -26.3635 -26.3599
   -23.1565 -23.1507 -23.1404 -23.1338 -22.8146 -22.8112 -22.8054 -22.7980
   -18.2563 -18.2536 -17.3328 -17.3315 -17.2192 -17.2103 -16.4072 -16.3986
   -12.3007 -12.2741 -12.0921 -12.0704 -11.9571 -11.9351 -11.4512 -11.4499
    -9.8297  -9.8271  -8.7527  -8.7393  -8.2950  -8.2538  -7.8580  -7.7961
    -7.1554  -7.0688  -7.0045  -6.9652  -6.4601  -6.4222  -6.3453  -6.3166
    -5.9554  -5.9509  -5.8874  -5.8174  -5.7320  -5.6930  -5.5446  -5.5277
    -5.4672  -5.4479  -5.3699  -5.2839  -5.0987  -5.0685  -4.8743  -4.8418
    -3.8014  -3.7042  -3.5450  -3.5271  -3.2797  -3.1982  -2.9005  -2.8899
    -2.7744  -2.7588  -2.7388  -2.7200  -2.2236  -2.2017  -2.0872  -2.0711
     0.1239   0.1490   0.6573   0.7286   0.8707   0.9177   0.9249   0.9741
     0.9992   1.1144   1.2134   1.2688   1.3155   1.4128   1.6006   1.6532
     1.8263   1.8794   1.9180   2.0534   2.1099   2.1581   2.2783   2.3285
     2.4155   2.5070   2.5475   2.6587   2.8414   2.8669   2.8945   2.9364

     occupation numbers 
     1.0000   1.0000   1.0000   1.0000   1.0000   1.0000   1.0000   1.0000
     1.0000   1.0000   1.0000   1.0000   1.0000   1.0000   1.0000   1.0000
     1.0000   1.0000   1.0000   1.0000   1.0000   1.0000   1.0000   1.0000
     1.0000   1.0000   1.0000   1.0000   1.0000   1.0000   1.0000   1.0000
     1.0000   1.0000   1.0000   1.0000   1.0000   1.0000   1.0000   1.0000
     1.0000   1.0000   1.0000   1.0000   1.0000   1.0000   1.0000   1.0000
     1.0000   1.0000   1.0000   1.0000   1.0000   1.0000   1.0000   1.0000
     1.0000   1.0000   1.0000   1.0000   1.0000   1.0000   1.0000   1.0000
     1.0000   1.0000   1.0000   1.0000   1.0000   1.0000   1.0000   1.0000
     1.0000   1.0000   1.0000   1.0000   1.0000   1.0000   1.0000   1.0000
     1.0000   1.0000   1.0000   1.0000   1.0000   1.0000   1.0000   1.0000
     1.0000   1.0000   1.0000   1.0000   1.0000   1.0000   1.0000   1.0000
     1.0000   1.0000   1.0000   1.0000   1.0000   1.0000   1.0000   1.0000
     1.0000   1.0000   1.0000   1.0000   1.0000   1.0000   1.0000   1.0000

          k = 0.0574 0.0114 0.0652 (  5254 PWs)   bands (ev):

   -26.7698 -26.7694 -26.7648 -26.7619 -26.3737 -26.3723 -26.3677 -26.3644
   -23.1681 -23.1603 -23.1545 -23.1520 -22.8260 -22.8228 -22.8045 -22.7982
   -18.2702 -18.2463 -17.3591 -17.3075 -17.2111 -17.2009 -16.4269 -16.3950
   -12.2938 -12.2643 -12.1210 -12.0392 -12.0037 -11.9631 -11.4565 -11.4546
    -9.8830  -9.8146  -8.7791  -8.7270  -8.3625  -8.2506  -7.9424  -7.7917
    -7.2300  -7.0775  -7.0124  -6.9480  -6.5088  -6.4573  -6.3837  -6.3491
    -5.9999  -5.9923  -5.9526  -5.8595  -5.7867  -5.6408  -5.5757  -5.4840
    -5.4477  -5.3839  -5.3614  -5.2695  -5.1707  -5.0090  -4.9646  -4.9029
    -3.8299  -3.6753  -3.5150  -3.5012  -3.1970  -3.1589  -2.9640  -2.9193
    -2.8546  -2.8289  -2.7580  -2.7011  -2.2826  -2.1989  -2.0819  -2.0485
     0.0244   0.0436   0.6774   0.7931   0.8331   0.8737   0.9024   0.9836
     1.0444   1.1393   1.1934   1.2777   1.3274   1.3989   1.4698   1.6268
     1.7316   1.7951   1.8646   1.9617   1.9952   2.1975   2.3094   2.3186
     2.3879   2.4712   2.5090   2.5731   2.8122   2.8192   2.8606   3.0505

     occupation numbers 
     1.0000   1.0000   1.0000   1.0000   1.0000   1.0000   1.0000   1.0000
     1.0000   1.0000   1.0000   1.0000   1.0000   1.0000   1.0000   1.0000
     1.0000   1.0000   1.0000   1.0000   1.0000   1.0000   1.0000   1.0000
     1.0000   1.0000   1.0000   1.0000   1.0000   1.0000   1.0000   1.0000
     1.0000   1.0000   1.0000   1.0000   1.0000   1.0000   1.0000   1.0000
     1.0000   1.0000   1.0000   1.0000   1.0000   1.0000   1.0000   1.0000
     1.0000   1.0000   1.0000   1.0000   1.0000   1.0000   1.0000   1.0000
     1.0000   1.0000   1.0000   1.0000   1.0000   1.0000   1.0000   1.0000
     1.0000   1.0000   1.0000   1.0000   1.0000   1.0000   1.0000   1.0000
     1.0000   1.0000   1.0000   1.0000   1.0000   1.0000   1.0000   1.0000
     1.0000   1.0000   1.0000   1.0000   1.0000   1.0000   1.0000   1.0000
     1.0000   1.0000   1.0000   1.0000   1.0000   1.0000   1.0000   1.0000
     1.0000   1.0000   1.0000   1.0000   1.0000   1.0000   1.0000   1.0000
     1.0000   1.0000   1.0000   1.0000   1.0000   1.0000   1.0000   1.0000

          k = 0.0574 0.0114-0.0395 (  5251 PWs)   bands (ev):

   -26.7703 -26.7698 -26.7638 -26.7596 -26.3774 -26.3760 -26.3658 -26.3622
   -23.1691 -23.1616 -23.1562 -23.1500 -22.8267 -22.8215 -22.8017 -22.7931
   -18.2750 -18.2403 -17.3696 -17.2977 -17.2145 -17.2036 -16.4283 -16.3918
   -12.3182 -12.2365 -12.1477 -12.0199 -11.9963 -11.9543 -11.4563 -11.4538
    -9.8835  -9.7869  -8.7833  -8.7051  -8.3558  -8.2980  -7.9234  -7.7842
    -7.2100  -7.0782  -7.0033  -6.9684  -6.5046  -6.4441  -6.3998  -6.3492
    -6.0015  -5.9855  -5.9602  -5.8880  -5.7508  -5.6845  -5.5681  -5.4916
    -5.4291  -5.3772  -5.3622  -5.2312  -5.1623  -5.0459  -4.9474  -4.9025
    -3.7642  -3.6732  -3.5494  -3.4766  -3.2023  -3.1816  -2.9541  -2.9194
    -2.8726  -2.8377  -2.7709  -2.6746  -2.2814  -2.2061  -2.0695  -2.0571
     0.0600   0.1394   0.7414   0.7787   0.8039   0.8238   0.9174   0.9626
     1.0033   1.0732   1.2249   1.3022   1.3469   1.4416   1.4932   1.5001
     1.8360   1.8713   1.9175   1.9416   2.0153   2.1765   2.2921   2.3143
     2.3731   2.4630   2.5693   2.6028   2.7569   2.7756   2.8803   3.0303

     occupation numbers 
     1.0000   1.0000   1.0000   1.0000   1.0000   1.0000   1.0000   1.0000
     1.0000   1.0000   1.0000   1.0000   1.0000   1.0000   1.0000   1.0000
     1.0000   1.0000   1.0000   1.0000   1.0000   1.0000   1.0000   1.0000
     1.0000   1.0000   1.0000   1.0000   1.0000   1.0000   1.0000   1.0000
     1.0000   1.0000   1.0000   1.0000   1.0000   1.0000   1.0000   1.0000
     1.0000   1.0000   1.0000   1.0000   1.0000   1.0000   1.0000   1.0000
     1.0000   1.0000   1.0000   1.0000   1.0000   1.0000   1.0000   1.0000
     1.0000   1.0000   1.0000   1.0000   1.0000   1.0000   1.0000   1.0000
     1.0000   1.0000   1.0000   1.0000   1.0000   1.0000   1.0000   1.0000
     1.0000   1.0000   1.0000   1.0000   1.0000   1.0000   1.0000   1.0000
     1.0000   1.0000   1.0000   1.0000   1.0000   1.0000   1.0000   1.0000
     1.0000   1.0000   1.0000   1.0000   1.0000   1.0000   1.0000   1.0000
     1.0000   1.0000   1.0000   1.0000   1.0000   1.0000   1.0000   1.0000
     1.0000   1.0000   1.0000   1.0000   1.0000   1.0000   1.0000   1.0000

          k = 0.0574 0.0114-0.0046 (  5225 PWs)   bands (ev):

   -26.7671 -26.7643 -26.7589 -26.7531 -26.3718 -26.3680 -26.3623 -26.3581
   -23.1502 -23.1463 -23.1435 -23.1369 -22.8121 -22.8055 -22.7963 -22.7936
   -18.2645 -18.2384 -17.3560 -17.3043 -17.2200 -17.2178 -16.4087 -16.3882
   -12.3282 -12.2469 -12.1316 -12.0198 -11.9498 -11.9341 -11.4513 -11.4489
    -9.8342  -9.7701  -8.7828  -8.7264  -8.3132  -8.2955  -7.8245  -7.7815
    -7.1169  -7.0890  -6.9860  -6.9692  -6.4373  -6.3993  -6.3449  -6.3393
    -5.9752  -5.9203  -5.8643  -5.8152  -5.6976  -5.6532  -5.6050  -5.4958
    -5.4358  -5.4209  -5.3345  -5.2628  -5.1389  -5.0277  -4.8455  -4.8181
    -3.7482  -3.6755  -3.5470  -3.5267  -3.2611  -3.2134  -2.8855  -2.8677
    -2.8256  -2.7676  -2.7100  -2.6793  -2.2285  -2.2054  -2.0726  -2.0673
     0.2261   0.2968   0.6645   0.7284   0.8388   0.8647   0.8801   0.9128
     1.0299   1.1455   1.2542   1.3193   1.3432   1.3751   1.6181   1.6488
     1.7919   1.9691   2.0230   2.0849   2.1198   2.1694   2.3120   2.4379
     2.5043   2.5408   2.5723   2.6017   2.8063   2.8792   2.9220   3.0189

     occupation numbers 
     1.0000   1.0000   1.0000   1.0000   1.0000   1.0000   1.0000   1.0000
     1.0000   1.0000   1.0000   1.0000   1.0000   1.0000   1.0000   1.0000
     1.0000   1.0000   1.0000   1.0000   1.0000   1.0000   1.0000   1.0000
     1.0000   1.0000   1.0000   1.0000   1.0000   1.0000   1.0000   1.0000
     1.0000   1.0000   1.0000   1.0000   1.0000   1.0000   1.0000   1.0000
     1.0000   1.0000   1.0000   1.0000   1.0000   1.0000   1.0000   1.0000
     1.0000   1.0000   1.0000   1.0000   1.0000   1.0000   1.0000   1.0000
     1.0000   1.0000   1.0000   1.0000   1.0000   1.0000   1.0000   1.0000
     1.0000   1.0000   1.0000   1.0000   1.0000   1.0000   1.0000   1.0000
     1.0000   1.0000   1.0000   1.0000   1.0000   1.0000   1.0000   1.0000
     1.0000   1.0000   1.0000   1.0000   1.0000   1.0000   1.0000   1.0000
     1.0000   1.0000   1.0000   1.0000   1.0000   1.0000   1.0000   1.0000
     1.0000   1.0000   1.0000   1.0000   1.0000   1.0000   1.0000   1.0000
     1.0000   1.0000   1.0000   1.0000   1.0000   1.0000   1.0000   1.0000

          k = 0.0574 0.0341 0.0303 (  5232 PWs)   bands (ev):

   -26.7648 -26.7617 -26.7605 -26.7584 -26.3681 -26.3665 -26.3643 -26.3633
   -23.1578 -23.1522 -23.1421 -23.1388 -22.8086 -22.8043 -22.7996 -22.7921
   -18.2550 -18.2535 -17.3314 -17.3286 -17.2172 -17.2139 -16.4056 -16.4022
   -12.2986 -12.2900 -12.0792 -12.0661 -11.9490 -11.9410 -11.4497 -11.4486
    -9.8308  -9.8200  -8.7492  -8.7385  -8.2926  -8.2626  -7.8432  -7.8248
    -7.1293  -7.0851  -6.9978  -6.9774  -6.4387  -6.4334  -6.3398  -6.3154
    -5.9421  -5.9351  -5.8424  -5.8219  -5.7387  -5.7164  -5.5434  -5.5129
    -5.4637  -5.4469  -5.3573  -5.3056  -5.0893  -5.0686  -4.8490  -4.8238
    -3.7620  -3.7307  -3.5694  -3.5626  -3.2010  -3.1694  -2.8893  -2.8727
    -2.7871  -2.7728  -2.7235  -2.7158  -2.2267  -2.2132  -2.0842  -2.0667
     0.1257   0.1347   0.6895   0.7626   0.8231   0.8691   0.9950   1.0249
     1.0704   1.1229   1.2463   1.3405   1.3815   1.4307   1.5719   1.6372
     1.8497   1.8944   1.9374   2.0115   2.1377   2.1947   2.2962   2.3115
     2.4745   2.4808   2.5731   2.6682   2.8536   2.9208   2.9281   2.9894

     occupation numbers 
     1.0000   1.0000   1.0000   1.0000   1.0000   1.0000   1.0000   1.0000
     1.0000   1.0000   1.0000   1.0000   1.0000   1.0000   1.0000   1.0000
     1.0000   1.0000   1.0000   1.0000   1.0000   1.0000   1.0000   1.0000
     1.0000   1.0000   1.0000   1.0000   1.0000   1.0000   1.0000   1.0000
     1.0000   1.0000   1.0000   1.0000   1.0000   1.0000   1.0000   1.0000
     1.0000   1.0000   1.0000   1.0000   1.0000   1.0000   1.0000   1.0000
     1.0000   1.0000   1.0000   1.0000   1.0000   1.0000   1.0000   1.0000
     1.0000   1.0000   1.0000   1.0000   1.0000   1.0000   1.0000   1.0000
     1.0000   1.0000   1.0000   1.0000   1.0000   1.0000   1.0000   1.0000
     1.0000   1.0000   1.0000   1.0000   1.0000   1.0000   1.0000   1.0000
     1.0000   1.0000   1.0000   1.0000   1.0000   1.0000   1.0000   1.0000
     1.0000   1.0000   1.0000   1.0000   1.0000   1.0000   1.0000   1.0000
     1.0000   1.0000   1.0000   1.0000   1.0000   1.0000   1.0000   1.0000
     1.0000   1.0000   1.0000   1.0000   1.0000   1.0000   1.0000   1.0000

          k = 0.0574 0.0341 0.0652 (  5250 PWs)   bands (ev):

   -26.7735 -26.7682 -26.7627 -26.7624 -26.3735 -26.3710 -26.3694 -26.3650
   -23.1666 -23.1619 -23.1549 -23.1498 -22.8201 -22.8190 -22.8045 -22.8009
   -18.2637 -18.2539 -17.3416 -17.3204 -17.2109 -17.2036 -16.4205 -16.4057
   -12.2824 -12.2692 -12.0919 -12.0577 -11.9937 -11.9734 -11.4541 -11.4525
    -9.8489  -9.8274  -8.7696  -8.7450  -8.3220  -8.2782  -7.8836  -7.8395
    -7.1802  -7.1179  -7.0098  -6.9771  -6.4888  -6.4751  -6.3681  -6.3396
    -6.0097  -5.9935  -5.8934  -5.8421  -5.7412  -5.6920  -5.5810  -5.5137
    -5.4245  -5.3944  -5.3536  -5.2950  -5.1387  -5.0760  -4.9526  -4.8942
    -3.7924  -3.7108  -3.5038  -3.4825  -3.1852  -3.1592  -2.9500  -2.9403
    -2.8537  -2.8381  -2.7321  -2.7084  -2.2715  -2.2436  -2.0628  -2.0588
     0.0429   0.0504   0.6503   0.7460   0.8050   0.8766   0.9529   1.0095
     1.0926   1.1927   1.2458   1.2971   1.4062   1.4323   1.5052   1.5528
     1.7290   1.7378   1.9228   1.9815   2.0271   2.1078   2.2988   2.3349
     2.4143   2.4448   2.5296   2.6207   2.8186   2.8378   2.8719   2.9686

     occupation numbers 
     1.0000   1.0000   1.0000   1.0000   1.0000   1.0000   1.0000   1.0000
     1.0000   1.0000   1.0000   1.0000   1.0000   1.0000   1.0000   1.0000
     1.0000   1.0000   1.0000   1.0000   1.0000   1.0000   1.0000   1.0000
     1.0000   1.0000   1.0000   1.0000   1.0000   1.0000   1.0000   1.0000
     1.0000   1.0000   1.0000   1.0000   1.0000   1.0000   1.0000   1.0000
     1.0000   1.0000   1.0000   1.0000   1.0000   1.0000   1.0000   1.0000
     1.0000   1.0000   1.0000   1.0000   1.0000   1.0000   1.0000   1.0000
     1.0000   1.0000   1.0000   1.0000   1.0000   1.0000   1.0000   1.0000
     1.0000   1.0000   1.0000   1.0000   1.0000   1.0000   1.0000   1.0000
     1.0000   1.0000   1.0000   1.0000   1.0000   1.0000   1.0000   1.0000
     1.0000   1.0000   1.0000   1.0000   1.0000   1.0000   1.0000   1.0000
     1.0000   1.0000   1.0000   1.0000   1.0000   1.0000   1.0000   1.0000
     1.0000   1.0000   1.0000   1.0000   1.0000   1.0000   1.0000   1.0000
     1.0000   1.0000   1.0000   1.0000   1.0000   1.0000   1.0000   1.0000

          k = 0.0574 0.0341-0.0395 (  5253 PWs)   bands (ev):

   -26.7724 -26.7665 -26.7631 -26.7609 -26.3773 -26.3717 -26.3651 -26.3625
   -23.1706 -23.1641 -23.1536 -23.1487 -22.8252 -22.8196 -22.8078 -22.8003
   -18.2659 -18.2522 -17.3459 -17.3166 -17.2123 -17.2085 -16.4179 -16.4036
   -12.3007 -12.2733 -12.0965 -12.0420 -11.9873 -11.9762 -11.4555 -11.4529
    -9.8459  -9.8087  -8.7639  -8.7351  -8.3267  -8.3024  -7.8959  -7.8247
    -7.1507  -7.1070  -7.0022  -6.9855  -6.5111  -6.4858  -6.3756  -6.3493
    -6.0217  -5.9908  -5.9214  -5.8704  -5.7085  -5.6667  -5.6125  -5.5704
    -5.4273  -5.3939  -5.3513  -5.2846  -5.1877  -5.0986  -4.9256  -4.8749
    -3.7632  -3.7297  -3.4857  -3.4610  -3.2028  -3.1817  -2.9376  -2.9194
    -2.8628  -2.8412  -2.7669  -2.7229  -2.2616  -2.2250  -2.0775  -2.0663
     0.1168   0.1646   0.6068   0.6412   0.7184   0.7717   0.9193   0.9623
     1.0769   1.1495   1.2370   1.2637   1.3644   1.4399   1.4929   1.5632
     1.8021   1.8713   1.9226   1.9787   2.0008   2.0849   2.3167   2.3587
     2.3982   2.4401   2.5737   2.6151   2.7475   2.7668   2.8444   2.9134

     occupation numbers 
     1.0000   1.0000   1.0000   1.0000   1.0000   1.0000   1.0000   1.0000
     1.0000   1.0000   1.0000   1.0000   1.0000   1.0000   1.0000   1.0000
     1.0000   1.0000   1.0000   1.0000   1.0000   1.0000   1.0000   1.0000
     1.0000   1.0000   1.0000   1.0000   1.0000   1.0000   1.0000   1.0000
     1.0000   1.0000   1.0000   1.0000   1.0000   1.0000   1.0000   1.0000
     1.0000   1.0000   1.0000   1.0000   1.0000   1.0000   1.0000   1.0000
     1.0000   1.0000   1.0000   1.0000   1.0000   1.0000   1.0000   1.0000
     1.0000   1.0000   1.0000   1.0000   1.0000   1.0000   1.0000   1.0000
     1.0000   1.0000   1.0000   1.0000   1.0000   1.0000   1.0000   1.0000
     1.0000   1.0000   1.0000   1.0000   1.0000   1.0000   1.0000   1.0000
     1.0000   1.0000   1.0000   1.0000   1.0000   1.0000   1.0000   1.0000
     1.0000   1.0000   1.0000   1.0000   1.0000   1.0000   1.0000   1.0000
     1.0000   1.0000   1.0000   1.0000   1.0000   1.0000   1.0000   1.0000
     1.0000   1.0000   1.0000   1.0000   1.0000   1.0000   1.0000   1.0000

          k = 0.0574 0.0341-0.0046 (  5233 PWs)   bands (ev):

   -26.7682 -26.7631 -26.7547 -26.7526 -26.3731 -26.3674 -26.3611 -26.3600
   -23.1465 -23.1461 -23.1430 -23.1386 -22.8177 -22.8108 -22.8018 -22.7960
   -18.2589 -18.2474 -17.3410 -17.3194 -17.2194 -17.2165 -16.4026 -16.3938
   -12.3163 -12.2854 -12.0905 -12.0433 -11.9479 -11.9436 -11.4504 -11.4481
    -9.8293  -9.7979  -8.7509  -8.7187  -8.3161  -8.2903  -7.8278  -7.8044
    -7.1060  -7.0874  -7.0000  -6.9826  -6.4354  -6.4067  -6.3490  -6.3317
    -5.9793  -5.9537  -5.8700  -5.8081  -5.6840  -5.6693  -5.6120  -5.5542
    -5.4601  -5.4056  -5.3426  -5.2961  -5.0993  -5.0898  -4.8345  -4.8147
    -3.7295  -3.6951  -3.5520  -3.5197  -3.2365  -3.2048  -2.8997  -2.8819
    -2.8120  -2.7774  -2.7355  -2.7030  -2.2164  -2.2114  -2.0851  -2.0774
     0.2537   0.2643   0.6371   0.7068   0.7748   0.8262   0.8431   0.8850
     1.0553   1.1040   1.2096   1.2685   1.3271   1.4605   1.5733   1.5900
     1.8147   1.9303   2.0216   2.0717   2.1221   2.1643   2.3219   2.4100
     2.4681   2.5088   2.5113   2.5518   2.8357   2.8701   2.9534   2.9759

     occupation numbers 
     1.0000   1.0000   1.0000   1.0000   1.0000   1.0000   1.0000   1.0000
     1.0000   1.0000   1.0000   1.0000   1.0000   1.0000   1.0000   1.0000
     1.0000   1.0000   1.0000   1.0000   1.0000   1.0000   1.0000   1.0000
     1.0000   1.0000   1.0000   1.0000   1.0000   1.0000   1.0000   1.0000
     1.0000   1.0000   1.0000   1.0000   1.0000   1.0000   1.0000   1.0000
     1.0000   1.0000   1.0000   1.0000   1.0000   1.0000   1.0000   1.0000
     1.0000   1.0000   1.0000   1.0000   1.0000   1.0000   1.0000   1.0000
     1.0000   1.0000   1.0000   1.0000   1.0000   1.0000   1.0000   1.0000
     1.0000   1.0000   1.0000   1.0000   1.0000   1.0000   1.0000   1.0000
     1.0000   1.0000   1.0000   1.0000   1.0000   1.0000   1.0000   1.0000
     1.0000   1.0000   1.0000   1.0000   1.0000   1.0000   1.0000   1.0000
     1.0000   1.0000   1.0000   1.0000   1.0000   1.0000   1.0000   1.0000
     1.0000   1.0000   1.0000   1.0000   1.0000   1.0000   1.0000   1.0000
     1.0000   1.0000   1.0000   1.0000   1.0000   1.0000   1.0000   1.0000

     highest occupied level (ev):     3.0985

!    total energy              =   -1247.28763398 Ry
     Harris-Foulkes estimate   =   -1247.28763412 Ry
     estimated scf accuracy    <       0.00000018 Ry

     total all-electron energy =     -4751.731382 Ry

     The total energy is the sum of the following terms:

     one-electron contribution =    -586.36200341 Ry
     hartree contribution      =     385.64052316 Ry
     xc contribution           =    -251.56996865 Ry
     ewald contribution        =    -465.86389714 Ry
     one-center paw contrib.   =    -329.13228794 Ry

     convergence has been achieved in  11 iterations

     Writing output data file scf.pbe-ec-20-kp444.HMX-792827-nofor.nostress.save

     init_run     :     15.17s CPU     34.56s WALL (       1 calls)
     electrons    :    478.76s CPU    825.18s WALL (       1 calls)

     Called by init_run:
     wfcinit      :     11.04s CPU     25.67s WALL (       1 calls)
     potinit      :      1.39s CPU      1.79s WALL (       1 calls)

     Called by electrons:
     c_bands      :    446.95s CPU    766.95s WALL (      11 calls)
     sum_band     :     25.08s CPU     46.03s WALL (      11 calls)
     v_of_rho     :      0.52s CPU      0.85s WALL (      12 calls)
     v_h          :      0.02s CPU      0.04s WALL (      12 calls)
     v_xc         :      0.49s CPU      0.81s WALL (      12 calls)
     newd         :      1.29s CPU      2.59s WALL (      12 calls)
     PAW_pot      :      3.90s CPU      4.96s WALL (      12 calls)
     mix_rho      :      0.73s CPU      1.49s WALL (      11 calls)

     Called by c_bands:
     init_us_2    :      1.75s CPU      2.13s WALL (     368 calls)
     cegterg      :    439.75s CPU    751.50s WALL (     176 calls)

     Called by sum_band:
     sum_band:bec :      0.25s CPU      0.28s WALL (     176 calls)
     addusdens    :      2.33s CPU      4.08s WALL (      11 calls)

     Called by *egterg:
     h_psi        :    114.94s CPU    261.28s WALL (     757 calls)
     s_psi        :     16.77s CPU     19.63s WALL (     757 calls)
     g_psi        :      0.22s CPU      0.21s WALL (     565 calls)
     cdiaghg      :    233.07s CPU    277.13s WALL (     741 calls)
     cegterg:over :     35.15s CPU     88.01s WALL (     565 calls)
     cegterg:upda :     14.67s CPU     15.40s WALL (     565 calls)
     cegterg:last :      6.42s CPU      8.22s WALL (     176 calls)

     Called by h_psi:
     h_psi:vloc   :     66.91s CPU    165.59s WALL (     757 calls)
     h_psi:vnl    :     47.42s CPU     94.92s WALL (     757 calls)
     add_vuspsi   :     18.39s CPU     27.05s WALL (     757 calls)

     General routines
     calbec       :     37.92s CPU     87.81s WALL (     933 calls)
     fft          :      1.20s CPU      5.20s WALL (     188 calls)
     ffts         :      0.05s CPU      0.12s WALL (      23 calls)
     fftw         :     71.82s CPU    175.86s WALL (  141284 calls)
     interpolate  :      0.39s CPU      1.09s WALL (      23 calls)
     davcio       :      0.06s CPU      3.70s WALL (      16 calls)

     Parallel routines
     fft_scatter  :     53.45s CPU    158.01s WALL (  141495 calls)

     PAW routines
     PAW_pot      :      3.90s CPU      4.96s WALL (      12 calls)
     PAW_symme    :      0.06s CPU      0.20s WALL (      23 calls)

     PWSCF        :  8m16.04s CPU    14m34.80s WALL


   This run was terminated on:  22:55:57  21May2016            

=------------------------------------------------------------------------------=
   JOB DONE.
=------------------------------------------------------------------------------=
