
     Program PWSCF v.5.3.0 (svn rev. 11974) starts on 22May2016 at  3: 2:17 

     This program is part of the open-source Quantum ESPRESSO suite
     for quantum simulation of materials; please cite
         "P. Giannozzi et al., J. Phys.:Condens. Matter 21 395502 (2009);
          URL http://www.quantum-espresso.org", 
     in publications or presentations arising from this work. More details at
     http://www.quantum-espresso.org/quote

     Parallel version (MPI), running on    32 processors
     R & G space division:  proc/nbgrp/npool/nimage =      32
     Waiting for input...
     Reading input from standard input
Warning: card    &IONS ignored
Warning: card TRUST_RADIUS_MAX=0.2 ignored
Warning: card / ignored
Warning: card     &CELL ignored
Warning: card CELL_DYNAMICS='BFGS' ignored
Warning: card / ignored

     Current dimensions of program PWSCF are:
     Max number of different atomic species (ntypx) = 10
     Max number of k-points (npk) =  40000
     Max angular momentum in pseudopotentials (lmaxx) =  3
               file N.pbe-n-kjpaw_psl.1.0.0.UPF: wavefunction(s)  2S renormalized
               file C.pbe-n-kjpaw_psl.1.0.0.UPF: wavefunction(s)  2S 2P renormalized
               file H.pbe-kjpaw_psl.1.0.0.UPF: wavefunction(s)  1S renormalized
               file O.pbe-n-kjpaw_psl.1.0.0.UPF: wavefunction(s)  2S 2P renormalized

     Subspace diagonalization in iterative solution of the eigenvalue problem:
     a serial algorithm will be used


     Parallelization info
     --------------------
     sticks:   dense  smooth     PW     G-vecs:    dense   smooth      PW
     Min         891     357     93                95925    24223    3276
     Max         892     358     94                95927    24294    3279
     Sum       28529   11425   3003              3069631   776471  104901


     Title: 
     HMX-scf-pbe-n-kjpaw-kp242-ec-140-nofor-nostress-conv-em4                   


     bravais-lattice index     =            0
     lattice parameter (alat)  =       1.8897  a.u.
     unit-cell volume          =    3470.0091 (a.u.)^3
     number of atoms/cell      =           56
     number of atomic types    =            4
     number of electrons       =       224.00
     number of Kohn-Sham states=          112
     kinetic-energy cutoff     =     140.0000  Ry
     charge density cutoff     =    1400.0000  Ry
     convergence threshold     =      1.0E-06
     mixing beta               =       0.7000
     number of iterations used =            8  plain     mixing
     Exchange-correlation      =  SLA  PW   PBX  PBC ( 1  4  3  4 0 0)

     celldm(1)=   1.889726  celldm(2)=   0.000000  celldm(3)=   0.000000
     celldm(4)=   0.000000  celldm(5)=   0.000000  celldm(6)=   0.000000

     crystal axes: (cart. coord. in units of alat)
               a(1) = (   6.528900   0.000000   0.000000 )  
               a(2) = (   0.000000  10.987500   0.000000 )  
               a(3) = (  -1.604329   0.000000   7.167954 )  

     reciprocal axes: (cart. coord. in units 2 pi/alat)
               b(1) = (  0.153165 -0.000000  0.034281 )  
               b(2) = (  0.000000  0.091013 -0.000000 )  
               b(3) = (  0.000000  0.000000  0.139510 )  


     PseudoPot. # 1 for  N read from file:
     /users/majewski/.data/PSEUDOPOTENTIALS/N.pbe-n-kjpaw_psl.1.0.0.UPF
     MD5 check sum: c21df8f53e59d08c3548513d559cdda6
     Pseudo is Projector augmented-wave + core cor, Zval =  5.0
     Generated using "atomic" code by A. Dal Corso  v.5.3.0 svn rev. 11974
     Shape of augmentation charge: PSQ
     Using radial grid of 1085 points,  4 beta functions with: 
                l(1) =   0
                l(2) =   0
                l(3) =   1
                l(4) =   1
     Q(r) pseudized with 0 coefficients 


     PseudoPot. # 2 for  C read from file:
     /users/majewski/.data/PSEUDOPOTENTIALS/C.pbe-n-kjpaw_psl.1.0.0.UPF
     MD5 check sum: 2ba8448e293caca687844dde9a1b88a8
     Pseudo is Projector augmented-wave + core cor, Zval =  4.0
     Generated using "atomic" code by A. Dal Corso  v.5.3.0 svn rev. 11974
     Shape of augmentation charge: PSQ
     Using radial grid of 1073 points,  4 beta functions with: 
                l(1) =   0
                l(2) =   0
                l(3) =   1
                l(4) =   1
     Q(r) pseudized with 0 coefficients 


     PseudoPot. # 3 for  H read from file:
     /users/majewski/.data/PSEUDOPOTENTIALS/H.pbe-kjpaw_psl.1.0.0.UPF
     MD5 check sum: bc0feb48a24907a0b97fa6ee2d589a29
     Pseudo is Projector augmented-wave, Zval =  1.0
     Generated using "atomic" code by A. Dal Corso  v.5.3.0 svn rev. 11974
     Shape of augmentation charge: PSQ
     Using radial grid of  929 points,  2 beta functions with: 
                l(1) =   0
                l(2) =   0
     Q(r) pseudized with 0 coefficients 


     PseudoPot. # 4 for  O read from file:
     /users/majewski/.data/PSEUDOPOTENTIALS/O.pbe-n-kjpaw_psl.1.0.0.UPF
     MD5 check sum: 9c0ade6c043cf4a781bde3908a3a8206
     Pseudo is Projector augmented-wave + core cor, Zval =  6.0
     Generated using "atomic" code by A. Dal Corso  v.5.3.0 svn rev. 11974
     Shape of augmentation charge: PSQ
     Using radial grid of 1095 points,  4 beta functions with: 
                l(1) =   0
                l(2) =   0
                l(3) =   1
                l(4) =   1
     Q(r) pseudized with 0 coefficients 


     atomic species   valence    mass     pseudopotential
        N              5.00    14.00670      N( 1.00)
        C              4.00    12.01100      C( 1.00)
        H              1.00     1.00790      H( 1.00)
        O              6.00    15.99940      O( 1.00)

      4 Sym. Ops., with inversion, found ( 2 have fractional translation)


                                    s                        frac. trans.

      isym =  1     identity                                     

 cryst.   s( 1) = (     1          0          0      )
                  (     0          1          0      )
                  (     0          0          1      )

 cart.    s( 1) = (  1.0000000  0.0000000  0.0000000 )
                  (  0.0000000  1.0000000  0.0000000 )
                  (  0.0000000  0.0000000  1.0000000 )


      isym =  2     180 deg rotation - cart. axis [0,1,0]        

 cryst.   s( 2) = (    -1          0          0      )    f =(  0.5000000 )
                  (     0          1          0      )       (  0.5000000 )
                  (     0          0         -1      )       (  0.5000000 )

 cart.    s( 2) = ( -1.0000000  0.0000000 -0.0000000 )    f =(  2.4622854 )
                  (  0.0000000  1.0000000  0.0000000 )       (  5.4937500 )
                  (  0.0000000  0.0000000 -1.0000000 )       (  3.5839768 )


      isym =  3     inversion                                    

 cryst.   s( 3) = (    -1          0          0      )
                  (     0         -1          0      )
                  (     0          0         -1      )

 cart.    s( 3) = ( -1.0000000  0.0000000 -0.0000000 )
                  (  0.0000000 -1.0000000  0.0000000 )
                  (  0.0000000  0.0000000 -1.0000000 )


      isym =  4     inv. 180 deg rotation - cart. axis [0,1,0]   

 cryst.   s( 4) = (     1          0          0      )    f =( -0.5000000 )
                  (     0         -1          0      )       (  0.5000000 )
                  (     0          0          1      )       (  0.5000000 )

 cart.    s( 4) = (  1.0000000  0.0000000  0.0000000 )    f =( -4.0666146 )
                  (  0.0000000 -1.0000000  0.0000000 )       (  5.4937500 )
                  (  0.0000000  0.0000000  1.0000000 )       (  3.5839768 )


   Cartesian axes

     site n.     atom                  positions (alat units)
         1           N   tau(   1) = (  -0.8614487   6.8444434   3.3109495  )
         2           O   tau(   2) = (   1.0746241   7.9096815   3.1371266  )
         3           N   tau(   3) = (   0.0618658   7.7221249   3.8135664  )
         4           N   tau(   4) = (  -2.0647129   5.7697560   5.0587833  )
         5           O   tau(   5) = (  -3.2542440   4.7069351   6.6110753  )
         6           N   tau(   6) = (  -3.2426279   5.5114399   5.6869828  )
         7           O   tau(   7) = (  -0.1753723   8.2085415   4.8971459  )
         8           C   tau(   8) = (  -2.1300386   6.7612680   3.9714764  )
         9           H   tau(   9) = (  -2.8138762   6.5024025   3.3338152  )
        10           H   tau(  10) = (  -2.3673225   7.6286213   4.3344616  )
        11           O   tau(  11) = (  -4.2140784   6.1608011   5.2929603  )
        12           C   tau(  12) = (  -0.5990533   6.2146399   2.0230832  )
        13           H   tau(  13) = (  -1.3903515   5.7475613   1.7138577  )
        14           H   tau(  14) = (  -0.3482788   6.8660888   1.3518761  )
        15           H   tau(  15) = (   3.7183358  -1.3723388  -2.2321008  )
        16           H   tau(  16) = (   2.6762631  -0.2538112  -1.8701191  )
        17           C   tau(  17) = (   3.4675614  -0.7208899  -1.5608936  )
        18           O   tau(  18) = (  -0.1474638  -0.6670511   1.7089835  )
        19           H   tau(  19) = (   1.6992921  -2.1348713   0.7504847  )
        20           H   tau(  20) = (   1.2527385  -1.0086525  -0.2501616  )
        21           C   tau(  21) = (   1.9365761  -1.2675180   0.3874996  )
        22           O   tau(  22) = (   3.8912424  -2.7147915   1.3131691  )
        23           N   tau(  23) = (   0.8239867  -0.0176899   2.1030059  )
        24           O   tau(  24) = (   0.8123707   0.7868149   3.0270985  )
        25           N   tau(  25) = (   2.0019018  -0.2760060   1.4748065  )
        26           N   tau(  26) = (   4.1284804  -2.2283749   0.2295896  )
        27           O   tau(  27) = (   5.1412387  -2.4159315  -0.4468502  )
        28           N   tau(  28) = (   3.2051660  -1.3506934  -0.2730274  )
        29           H   tau(  29) = (  -1.2560505   4.1214113   5.8160776  )
        30           H   tau(  30) = (  -0.2139778   5.2399388   5.4540959  )
        31           C   tau(  31) = (  -1.0052760   4.7728601   5.1448704  )
        32           O   tau(  32) = (   2.6097491   4.8266989   1.8749933  )
        33           H   tau(  33) = (   0.7629932   3.3588788   2.8334921  )
        34           H   tau(  34) = (   1.2095469   4.4850975   3.8341384  )
        35           C   tau(  35) = (   0.5257093   4.2262320   3.1964773  )
        36           O   tau(  36) = (  -1.4289570   2.7789585   2.2708077  )
        37           N   tau(  37) = (   1.6382987   5.4760601   1.4809709  )
        38           O   tau(  38) = (   1.6499147   6.2805649   0.5568783  )
        39           N   tau(  39) = (   0.4603836   5.2177440   2.1091704  )
        40           N   tau(  40) = (  -1.6661950   3.2653751   3.3543873  )
        41           O   tau(  41) = (  -2.6789534   3.0778185   4.0308271  )
        42           N   tau(  42) = (  -0.7428806   4.1430566   3.8570042  )
        43           H   tau(  43) = (   2.8105642   1.3723388   2.2321008  )
        44           H   tau(  44) = (   3.8526369   0.2538112   1.8701191  )
        45           C   tau(  45) = (   3.0613386   0.7208899   1.5608936  )
        46           O   tau(  46) = (   6.6763638   0.6670511  -1.7089835  )
        47           H   tau(  47) = (   4.8296079   2.1348713  -0.7504847  )
        48           H   tau(  48) = (   5.2761615   1.0086525   0.2501616  )
        49           C   tau(  49) = (   4.5923239   1.2675180  -0.3874996  )
        50           O   tau(  50) = (   2.6376576   2.7147915  -1.3131691  )
        51           N   tau(  51) = (   5.7049133   0.0176899  -2.1030059  )
        52           O   tau(  52) = (   5.7165293  -0.7868149  -3.0270985  )
        53           N   tau(  53) = (   4.5269982   0.2760060  -1.4748065  )
        54           N   tau(  54) = (   2.4004196   2.2283749  -0.2295896  )
        55           O   tau(  55) = (   1.3876613   2.4159315   0.4468502  )
        56           N   tau(  56) = (   3.3237340   1.3506934   0.2730274  )

   Crystallographic axes

     site n.     atom                  positions (cryst. coord.)
         1           N   tau(   1) = ( -0.0184400  0.6229300  0.4619100  )
         2           O   tau(   2) = (  0.2721400  0.7198800  0.4376600  )
         3           N   tau(   3) = (  0.1402100  0.7028100  0.5320300  )
         4           N   tau(   4) = ( -0.1428200  0.5251200  0.7057500  )
         5           O   tau(   5) = ( -0.2718000  0.4283900  0.9223100  )
         6           N   tau(   6) = ( -0.3017000  0.5016100  0.7933900  )
         7           O   tau(   7) = (  0.1410200  0.7470800  0.6832000  )
         8           C   tau(   8) = ( -0.1901000  0.6153600  0.5540600  )
         9           H   tau(   9) = ( -0.3167000  0.5918000  0.4651000  )
        10           H   tau(  10) = ( -0.2140000  0.6943000  0.6047000  )
        11           O   tau(  11) = ( -0.4640000  0.5607100  0.7384200  )
        12           C   tau(  12) = ( -0.0224000  0.5656100  0.2822400  )
        13           H   tau(  13) = ( -0.1542000  0.5231000  0.2391000  )
        14           H   tau(  14) = ( -0.0070000  0.6249000  0.1886000  )
        15           H   tau(  15) = (  0.4930000 -0.1249000 -0.3114000  )
        16           H   tau(  16) = (  0.3458000 -0.0231000 -0.2609000  )
        17           C   tau(  17) = (  0.4776000 -0.0656100 -0.2177600  )
        18           O   tau(  18) = (  0.0360000 -0.0607100  0.2384200  )
        19           H   tau(  19) = (  0.2860000 -0.1943000  0.1047000  )
        20           H   tau(  20) = (  0.1833000 -0.0918000 -0.0349000  )
        21           C   tau(  21) = (  0.3099000 -0.1153600  0.0540600  )
        22           O   tau(  22) = (  0.6410200 -0.2470800  0.1832000  )
        23           N   tau(  23) = (  0.1983000 -0.0016100  0.2933900  )
        24           O   tau(  24) = (  0.2282000  0.0716100  0.4223100  )
        25           N   tau(  25) = (  0.3571800 -0.0251200  0.2057500  )
        26           N   tau(  26) = (  0.6402100 -0.2028100  0.0320300  )
        27           O   tau(  27) = (  0.7721400 -0.2198800 -0.0623400  )
        28           N   tau(  28) = (  0.4815600 -0.1229300 -0.0380900  )
        29           H   tau(  29) = (  0.0070000  0.3751000  0.8114000  )
        30           H   tau(  30) = (  0.1542000  0.4769000  0.7609000  )
        31           C   tau(  31) = (  0.0224000  0.4343900  0.7177600  )
        32           O   tau(  32) = (  0.4640000  0.4392900  0.2615800  )
        33           H   tau(  33) = (  0.2140000  0.3057000  0.3953000  )
        34           H   tau(  34) = (  0.3167000  0.4082000  0.5349000  )
        35           C   tau(  35) = (  0.1901000  0.3846400  0.4459400  )
        36           O   tau(  36) = ( -0.1410200  0.2529200  0.3168000  )
        37           N   tau(  37) = (  0.3017000  0.4983900  0.2066100  )
        38           O   tau(  38) = (  0.2718000  0.5716100  0.0776900  )
        39           N   tau(  39) = (  0.1428200  0.4748800  0.2942500  )
        40           N   tau(  40) = ( -0.1402100  0.2971900  0.4679700  )
        41           O   tau(  41) = ( -0.2721400  0.2801200  0.5623400  )
        42           N   tau(  42) = (  0.0184400  0.3770700  0.5380900  )
        43           H   tau(  43) = (  0.5070000  0.1249000  0.3114000  )
        44           H   tau(  44) = (  0.6542000  0.0231000  0.2609000  )
        45           C   tau(  45) = (  0.5224000  0.0656100  0.2177600  )
        46           O   tau(  46) = (  0.9640000  0.0607100 -0.2384200  )
        47           H   tau(  47) = (  0.7140000  0.1943000 -0.1047000  )
        48           H   tau(  48) = (  0.8167000  0.0918000  0.0349000  )
        49           C   tau(  49) = (  0.6901000  0.1153600 -0.0540600  )
        50           O   tau(  50) = (  0.3589800  0.2470800 -0.1832000  )
        51           N   tau(  51) = (  0.8017000  0.0016100 -0.2933900  )
        52           O   tau(  52) = (  0.7718000 -0.0716100 -0.4223100  )
        53           N   tau(  53) = (  0.6428200  0.0251200 -0.2057500  )
        54           N   tau(  54) = (  0.3597900  0.2028100 -0.0320300  )
        55           O   tau(  55) = (  0.2278600  0.2198800  0.0623400  )
        56           N   tau(  56) = (  0.5184400  0.1229300  0.0380900  )

     number of k points=    16
                       cart. coord. in units 2pi/alat
        k(    1) = (   0.0191456   0.0113766   0.0217239), wk =   0.1250000
        k(    2) = (   0.0191456   0.0113766   0.0566014), wk =   0.1250000
        k(    3) = (   0.0191456   0.0113766  -0.0480310), wk =   0.1250000
        k(    4) = (   0.0191456   0.0113766  -0.0131536), wk =   0.1250000
        k(    5) = (   0.0191456   0.0341297   0.0217239), wk =   0.1250000
        k(    6) = (   0.0191456   0.0341297   0.0566014), wk =   0.1250000
        k(    7) = (   0.0191456   0.0341297  -0.0480310), wk =   0.1250000
        k(    8) = (   0.0191456   0.0341297  -0.0131536), wk =   0.1250000
        k(    9) = (   0.0574369   0.0113766   0.0302942), wk =   0.1250000
        k(   10) = (   0.0574369   0.0113766   0.0651717), wk =   0.1250000
        k(   11) = (   0.0574369   0.0113766  -0.0394607), wk =   0.1250000
        k(   12) = (   0.0574369   0.0113766  -0.0045832), wk =   0.1250000
        k(   13) = (   0.0574369   0.0341297   0.0302942), wk =   0.1250000
        k(   14) = (   0.0574369   0.0341297   0.0651717), wk =   0.1250000
        k(   15) = (   0.0574369   0.0341297  -0.0394607), wk =   0.1250000
        k(   16) = (   0.0574369   0.0341297  -0.0045832), wk =   0.1250000

                       cryst. coord.
        k(    1) = (   0.1250000   0.1250000   0.1250000), wk =   0.1250000
        k(    2) = (   0.1250000   0.1250000   0.3750000), wk =   0.1250000
        k(    3) = (   0.1250000   0.1250000  -0.3750000), wk =   0.1250000
        k(    4) = (   0.1250000   0.1250000  -0.1250000), wk =   0.1250000
        k(    5) = (   0.1250000   0.3750000   0.1250000), wk =   0.1250000
        k(    6) = (   0.1250000   0.3750000   0.3750000), wk =   0.1250000
        k(    7) = (   0.1250000   0.3750000  -0.3750000), wk =   0.1250000
        k(    8) = (   0.1250000   0.3750000  -0.1250000), wk =   0.1250000
        k(    9) = (   0.3750000   0.1250000   0.1250000), wk =   0.1250000
        k(   10) = (   0.3750000   0.1250000   0.3750000), wk =   0.1250000
        k(   11) = (   0.3750000   0.1250000  -0.3750000), wk =   0.1250000
        k(   12) = (   0.3750000   0.1250000  -0.1250000), wk =   0.1250000
        k(   13) = (   0.3750000   0.3750000   0.1250000), wk =   0.1250000
        k(   14) = (   0.3750000   0.3750000   0.3750000), wk =   0.1250000
        k(   15) = (   0.3750000   0.3750000  -0.3750000), wk =   0.1250000
        k(   16) = (   0.3750000   0.3750000  -0.1250000), wk =   0.1250000

     Dense  grid:  3069631 G-vectors     FFT dimensions: ( 150, 250, 180)

     Smooth grid:   776471 G-vectors     FFT dimensions: (  96, 160, 108)

     Largest allocated arrays     est. size (Mb)     dimensions
        Kohn-Sham Wavefunctions         5.21 Mb     (    3049,  112)
        NL pseudopotentials            16.38 Mb     (    3049,  352)
        Each V/rho on FFT grid          3.43 Mb     (  225000)
        Each G-vector array             0.73 Mb     (   95926)
        G-vector shells                 0.72 Mb     (   93962)
     Largest temporary arrays     est. size (Mb)     dimensions
        Auxiliary wavefunctions        20.84 Mb     (    3049,  448)
        Each subspace H/S matrix        3.06 Mb     (     448,  448)
        Each <psi_i|beta_j> matrix      0.60 Mb     (     352,  112)
        Arrays for rho mixing          27.47 Mb     (  225000,    8)

     Initial potential from superposition of free atoms

     starting charge  223.99937, renormalised to  224.00000
     Starting wfc are  176 randomized atomic wfcs
     Checking if some PAW data can be deallocated... 
       node    0, deallocated PAW data for type:  2
       node    0, deallocated PAW data for type:  3
       node    1, deallocated PAW data for type:  2
       node    1, deallocated PAW data for type:  3
       node    1, deallocated PAW data for type:  4
       node    2, deallocated PAW data for type:  2
       node    2, deallocated PAW data for type:  3
       node    3, deallocated PAW data for type:  1
       node    3, deallocated PAW data for type:  3
       node    4, deallocated PAW data for type:  1
       node    4, deallocated PAW data for type:  2
       node    4, deallocated PAW data for type:  4
       node    5, deallocated PAW data for type:  1
       node    5, deallocated PAW data for type:  3
       node    6, deallocated PAW data for type:  1
       node    6, deallocated PAW data for type:  2
       node    6, deallocated PAW data for type:  4
       node    7, deallocated PAW data for type:  1
       node    7, deallocated PAW data for type:  2
       node    7, deallocated PAW data for type:  4
       node    8, deallocated PAW data for type:  1
       node    8, deallocated PAW data for type:  3
       node    9, deallocated PAW data for type:  1
       node    9, deallocated PAW data for type:  2
       node    9, deallocated PAW data for type:  4
       node   10, deallocated PAW data for type:  1
       node   10, deallocated PAW data for type:  3
       node   11, deallocated PAW data for type:  2
       node   11, deallocated PAW data for type:  3
       node   12, deallocated PAW data for type:  2
       node   12, deallocated PAW data for type:  3
       node   12, deallocated PAW data for type:  4
       node   13, deallocated PAW data for type:  2
       node   13, deallocated PAW data for type:  3
       node   14, deallocated PAW data for type:  1
       node   14, deallocated PAW data for type:  2
       node   14, deallocated PAW data for type:  4
       node   15, deallocated PAW data for type:  1
       node   15, deallocated PAW data for type:  3
       node   16, deallocated PAW data for type:  1
       node   16, deallocated PAW data for type:  2
       node   16, deallocated PAW data for type:  4
       node   17, deallocated PAW data for type:  1
       node   17, deallocated PAW data for type:  3
       node   18, deallocated PAW data for type:  2
       node   18, deallocated PAW data for type:  3
       node   19, deallocated PAW data for type:  2
       node   19, deallocated PAW data for type:  3
       node   19, deallocated PAW data for type:  4
       node   20, deallocated PAW data for type:  2
       node   20, deallocated PAW data for type:  3
       node   21, deallocated PAW data for type:  1
       node   21, deallocated PAW data for type:  2
       node   21, deallocated PAW data for type:  4
       node   22, deallocated PAW data for type:  1
       node   22, deallocated PAW data for type:  3
       node   23, deallocated PAW data for type:  1
       node   23, deallocated PAW data for type:  2
       node   23, deallocated PAW data for type:  4
       node   24, deallocated PAW data for type:  1
       node   24, deallocated PAW data for type:  3
       node   24, deallocated PAW data for type:  4
       node   25, deallocated PAW data for type:  1
       node   25, deallocated PAW data for type:  2
       node   25, deallocated PAW data for type:  3
       node   26, deallocated PAW data for type:  2
       node   26, deallocated PAW data for type:  3
       node   26, deallocated PAW data for type:  4
       node   27, deallocated PAW data for type:  1
       node   27, deallocated PAW data for type:  2
       node   27, deallocated PAW data for type:  3
       node   28, deallocated PAW data for type:  2
       node   28, deallocated PAW data for type:  3
       node   28, deallocated PAW data for type:  4
       node   29, deallocated PAW data for type:  2
       node   29, deallocated PAW data for type:  3
       node   29, deallocated PAW data for type:  4
       node   30, deallocated PAW data for type:  1
       node   30, deallocated PAW data for type:  2
       node   30, deallocated PAW data for type:  3
       node   31, deallocated PAW data for type:  2
       node   31, deallocated PAW data for type:  3
       node   31, deallocated PAW data for type:  4

     total cpu time spent up to now is      358.0 secs

     per-process dynamical memory:   172.5 Mb

     Self-consistent Calculation

     iteration #  1     ecut=   140.00 Ry     beta=0.70
     Davidson diagonalization with overlap
     ethr =  1.00E-02,  avg # of iterations =  3.0

     total cpu time spent up to now is     1238.8 secs

     total energy              =   -1279.59930197 Ry
     Harris-Foulkes estimate   =   -1283.96393663 Ry
     estimated scf accuracy    <       6.72823087 Ry

     iteration #  2     ecut=   140.00 Ry     beta=0.70
     Davidson diagonalization with overlap
     ethr =  3.00E-03,  avg # of iterations =  4.0

     total cpu time spent up to now is     2241.7 secs

     total energy              =   -1280.27222103 Ry
     Harris-Foulkes estimate   =   -1283.75125929 Ry
     estimated scf accuracy    <       6.99554545 Ry

     iteration #  3     ecut=   140.00 Ry     beta=0.70
     Davidson diagonalization with overlap
     ethr =  3.00E-03,  avg # of iterations =  4.8

     total cpu time spent up to now is     2885.9 secs

     total energy              =   -1281.77326539 Ry
     Harris-Foulkes estimate   =   -1282.00064807 Ry
     estimated scf accuracy    <       0.41968526 Ry

     iteration #  4     ecut=   140.00 Ry     beta=0.70
     Davidson diagonalization with overlap
     ethr =  1.87E-04,  avg # of iterations =  4.9

     total cpu time spent up to now is     3746.4 secs

     total energy              =   -1281.93060067 Ry
     Harris-Foulkes estimate   =   -1282.01355889 Ry
     estimated scf accuracy    <       0.18037639 Ry

     iteration #  5     ecut=   140.00 Ry     beta=0.70
     Davidson diagonalization with overlap
     ethr =  8.05E-05,  avg # of iterations =  4.0

     total cpu time spent up to now is     4388.6 secs

     total energy              =   -1281.96767922 Ry
     Harris-Foulkes estimate   =   -1281.97682621 Ry
     estimated scf accuracy    <       0.02280826 Ry

     iteration #  6     ecut=   140.00 Ry     beta=0.70
     Davidson diagonalization with overlap
     ethr =  1.02E-05,  avg # of iterations =  6.3

     total cpu time spent up to now is     5012.8 secs

     total energy              =   -1281.97078969 Ry
     Harris-Foulkes estimate   =   -1281.97236931 Ry
     estimated scf accuracy    <       0.00363954 Ry

     iteration #  7     ecut=   140.00 Ry     beta=0.70
     Davidson diagonalization with overlap
     ethr =  1.62E-06,  avg # of iterations =  4.6

     total cpu time spent up to now is     5853.6 secs

     total energy              =   -1281.97230258 Ry
     Harris-Foulkes estimate   =   -1281.97277717 Ry
     estimated scf accuracy    <       0.00122678 Ry

     iteration #  8     ecut=   140.00 Ry     beta=0.70
     Davidson diagonalization with overlap
     ethr =  5.48E-07,  avg # of iterations =  6.8

     total cpu time spent up to now is     6509.1 secs

     total energy              =   -1281.97244169 Ry
     Harris-Foulkes estimate   =   -1281.97250360 Ry
     estimated scf accuracy    <       0.00017330 Ry

     iteration #  9     ecut=   140.00 Ry     beta=0.70
     Davidson diagonalization with overlap
     ethr =  7.74E-08,  avg # of iterations =  4.0

     total cpu time spent up to now is     7348.2 secs

     total energy              =   -1281.97253838 Ry
     Harris-Foulkes estimate   =   -1281.97256301 Ry
     estimated scf accuracy    <       0.00008193 Ry

     iteration # 10     ecut=   140.00 Ry     beta=0.70
     Davidson diagonalization with overlap
     ethr =  3.66E-08,  avg # of iterations =  1.0

     total cpu time spent up to now is     7850.6 secs

     total energy              =   -1281.97252461 Ry
     Harris-Foulkes estimate   =   -1281.97254090 Ry
     estimated scf accuracy    <       0.00003989 Ry

     iteration # 11     ecut=   140.00 Ry     beta=0.70
     Davidson diagonalization with overlap
     ethr =  1.78E-08,  avg # of iterations =  4.0

     total cpu time spent up to now is     8656.7 secs

     total energy              =   -1281.97254589 Ry
     Harris-Foulkes estimate   =   -1281.97255672 Ry
     estimated scf accuracy    <       0.00005130 Ry

     iteration # 12     ecut=   140.00 Ry     beta=0.70
     Davidson diagonalization with overlap
     ethr =  1.78E-08,  avg # of iterations =  1.0

     total cpu time spent up to now is     9208.6 secs

     total energy              =   -1281.97253743 Ry
     Harris-Foulkes estimate   =   -1281.97254644 Ry
     estimated scf accuracy    <       0.00003347 Ry

     iteration # 13     ecut=   140.00 Ry     beta=0.70
     Davidson diagonalization with overlap
     ethr =  1.49E-08,  avg # of iterations =  5.0

     total cpu time spent up to now is     9861.4 secs

     total energy              =   -1281.97254605 Ry
     Harris-Foulkes estimate   =   -1281.97254786 Ry
     estimated scf accuracy    <       0.00000631 Ry

     iteration # 14     ecut=   140.00 Ry     beta=0.70
     Davidson diagonalization with overlap
     ethr =  2.82E-09,  avg # of iterations =  1.0

     total cpu time spent up to now is    10273.7 secs

     total energy              =   -1281.97254524 Ry
     Harris-Foulkes estimate   =   -1281.97254622 Ry
     estimated scf accuracy    <       0.00000338 Ry

     iteration # 15     ecut=   140.00 Ry     beta=0.70
     Davidson diagonalization with overlap
     ethr =  1.51E-09,  avg # of iterations =  5.0

     total cpu time spent up to now is    10882.1 secs

     End of self-consistent calculation

          k = 0.0191 0.0114 0.0217 ( 97049 PWs)   bands (ev):

   -24.0556 -24.0371 -24.0280 -24.0181 -23.6326 -23.6245 -23.6208 -23.6200
   -19.2309 -19.2258 -19.2189 -19.2073 -18.8193 -18.8186 -18.8150 -18.8142
   -18.2943 -18.2699 -17.2872 -17.2404 -17.1002 -17.0998 -16.1024 -16.0898
   -12.1497 -12.1468 -12.1346 -12.0213 -11.9711 -11.9009 -11.8458 -11.8243
    -8.9235  -8.8832  -8.3215  -8.2855  -7.6006  -7.5606  -7.4880  -7.4865
    -6.8775  -6.7710  -6.6203  -6.5677  -6.5577  -6.4169  -6.3683  -6.3091
    -6.1623  -6.1397  -6.0998  -5.9622  -5.9345  -5.8616  -5.7792  -5.7401
    -5.7034  -5.6781  -5.5893  -5.5669  -5.1458  -5.0373  -4.9507  -4.9345
    -4.5129  -4.4751  -4.4443  -4.4147  -4.2516  -4.1642  -3.8792  -3.8701
    -3.7164  -3.6390  -3.5750  -3.5514  -3.1899  -3.1534  -3.1087  -3.0856
    -0.8028  -0.7917  -0.3491  -0.3390  -0.2519  -0.1873  -0.1253  -0.0939
    -0.0433  -0.0095   0.1738   0.2032   0.2159   0.2473   0.3734   0.3878
     0.4346   0.4530   0.6148   0.6660   0.7476   0.8106   0.8568   0.8834
     0.9000   1.0182   1.0583   1.1334   1.2004   1.3295   1.3673   1.3850

     occupation numbers 
     1.0000   1.0000   1.0000   1.0000   1.0000   1.0000   1.0000   1.0000
     1.0000   1.0000   1.0000   1.0000   1.0000   1.0000   1.0000   1.0000
     1.0000   1.0000   1.0000   1.0000   1.0000   1.0000   1.0000   1.0000
     1.0000   1.0000   1.0000   1.0000   1.0000   1.0000   1.0000   1.0000
     1.0000   1.0000   1.0000   1.0000   1.0000   1.0000   1.0000   1.0000
     1.0000   1.0000   1.0000   1.0000   1.0000   1.0000   1.0000   1.0000
     1.0000   1.0000   1.0000   1.0000   1.0000   1.0000   1.0000   1.0000
     1.0000   1.0000   1.0000   1.0000   1.0000   1.0000   1.0000   1.0000
     1.0000   1.0000   1.0000   1.0000   1.0000   1.0000   1.0000   1.0000
     1.0000   1.0000   1.0000   1.0000   1.0000   1.0000   1.0000   1.0000
     1.0000   1.0000   1.0000   1.0000   1.0000   1.0000   1.0000   1.0000
     1.0000   1.0000   1.0000   1.0000   1.0000   1.0000   1.0000   1.0000
     1.0000   1.0000   1.0000   1.0000   1.0000   1.0000   1.0000   1.0000
     1.0000   1.0000   1.0000   1.0000   1.0000   1.0000   1.0000   1.0000

          k = 0.0191 0.0114 0.0566 ( 97104 PWs)   bands (ev):

   -24.0485 -24.0420 -24.0243 -24.0230 -23.6319 -23.6289 -23.6203 -23.6178
   -19.2288 -19.2242 -19.2198 -19.2112 -18.8249 -18.8243 -18.8103 -18.8095
   -18.2833 -18.2828 -17.2653 -17.2626 -17.0959 -17.0931 -16.0986 -16.0969
   -12.1587 -12.1581 -12.0816 -12.0618 -11.9305 -11.9214 -11.8541 -11.8448
    -8.9020  -8.8666  -8.3028  -8.2780  -7.6152  -7.5653  -7.4672  -7.3971
    -6.9219  -6.7987  -6.6253  -6.6065  -6.5725  -6.4390  -6.3901  -6.3725
    -6.2342  -6.2084  -5.9783  -5.9449  -5.9270  -5.8456  -5.8257  -5.7932
    -5.7521  -5.7078  -5.5086  -5.4731  -5.1506  -5.0773  -4.9458  -4.9067
    -4.4423  -4.4340  -4.4211  -4.3372  -4.1760  -4.1498  -3.9809  -3.9634
    -3.7143  -3.6817  -3.5389  -3.5272  -3.2115  -3.2066  -3.0896  -3.0628
    -0.7708  -0.7313  -0.3596  -0.3469  -0.2524  -0.2059  -0.1673  -0.1207
    -0.0965  -0.0435   0.0642   0.1296   0.2415   0.2884   0.3441   0.3567
     0.5369   0.5949   0.6352   0.6747   0.7670   0.7771   0.8153   0.8624
     0.9743   1.0189   1.0913   1.1224   1.2227   1.2909   1.3667   1.3826

     occupation numbers 
     1.0000   1.0000   1.0000   1.0000   1.0000   1.0000   1.0000   1.0000
     1.0000   1.0000   1.0000   1.0000   1.0000   1.0000   1.0000   1.0000
     1.0000   1.0000   1.0000   1.0000   1.0000   1.0000   1.0000   1.0000
     1.0000   1.0000   1.0000   1.0000   1.0000   1.0000   1.0000   1.0000
     1.0000   1.0000   1.0000   1.0000   1.0000   1.0000   1.0000   1.0000
     1.0000   1.0000   1.0000   1.0000   1.0000   1.0000   1.0000   1.0000
     1.0000   1.0000   1.0000   1.0000   1.0000   1.0000   1.0000   1.0000
     1.0000   1.0000   1.0000   1.0000   1.0000   1.0000   1.0000   1.0000
     1.0000   1.0000   1.0000   1.0000   1.0000   1.0000   1.0000   1.0000
     1.0000   1.0000   1.0000   1.0000   1.0000   1.0000   1.0000   1.0000
     1.0000   1.0000   1.0000   1.0000   1.0000   1.0000   1.0000   1.0000
     1.0000   1.0000   1.0000   1.0000   1.0000   1.0000   1.0000   1.0000
     1.0000   1.0000   1.0000   1.0000   1.0000   1.0000   1.0000   1.0000
     1.0000   1.0000   1.0000   1.0000   1.0000   1.0000   1.0000   1.0000

          k = 0.0191 0.0114-0.0480 ( 97075 PWs)   bands (ev):

   -24.0505 -24.0405 -24.0278 -24.0191 -23.6333 -23.6309 -23.6179 -23.6167
   -19.2270 -19.2248 -19.2175 -19.2148 -18.8269 -18.8258 -18.8085 -18.8077
   -18.2942 -18.2707 -17.2853 -17.2428 -17.0993 -17.0952 -16.1020 -16.0870
   -12.1690 -12.1568 -12.1134 -12.0298 -11.9606 -11.8864 -11.8582 -11.8435
    -8.9123  -8.8281  -8.2906  -8.2866  -7.6094  -7.5938  -7.4815  -7.3711
    -6.9260  -6.8219  -6.6339  -6.6084  -6.5216  -6.4939  -6.4088  -6.3780
    -6.2616  -6.2228  -5.9850  -5.9664  -5.8484  -5.8106  -5.8103  -5.7942
    -5.7729  -5.6929  -5.5203  -5.4639  -5.1452  -5.0732  -4.9324  -4.9031
    -4.4741  -4.4300  -4.3803  -4.3356  -4.2130  -4.1557  -3.9756  -3.9319
    -3.7301  -3.6868  -3.5836  -3.5091  -3.2152  -3.1992  -3.0804  -3.0724
    -0.7087  -0.6482  -0.3471  -0.3401  -0.2804  -0.2598  -0.2016  -0.1563
    -0.1198  -0.0956   0.0225   0.1101   0.2570   0.2951   0.3036   0.3463
     0.5734   0.6593   0.6765   0.6979   0.7184   0.8252   0.8324   0.8477
     0.9717   1.0246   1.1011   1.1591   1.2353   1.2592   1.3468   1.3695

     occupation numbers 
     1.0000   1.0000   1.0000   1.0000   1.0000   1.0000   1.0000   1.0000
     1.0000   1.0000   1.0000   1.0000   1.0000   1.0000   1.0000   1.0000
     1.0000   1.0000   1.0000   1.0000   1.0000   1.0000   1.0000   1.0000
     1.0000   1.0000   1.0000   1.0000   1.0000   1.0000   1.0000   1.0000
     1.0000   1.0000   1.0000   1.0000   1.0000   1.0000   1.0000   1.0000
     1.0000   1.0000   1.0000   1.0000   1.0000   1.0000   1.0000   1.0000
     1.0000   1.0000   1.0000   1.0000   1.0000   1.0000   1.0000   1.0000
     1.0000   1.0000   1.0000   1.0000   1.0000   1.0000   1.0000   1.0000
     1.0000   1.0000   1.0000   1.0000   1.0000   1.0000   1.0000   1.0000
     1.0000   1.0000   1.0000   1.0000   1.0000   1.0000   1.0000   1.0000
     1.0000   1.0000   1.0000   1.0000   1.0000   1.0000   1.0000   1.0000
     1.0000   1.0000   1.0000   1.0000   1.0000   1.0000   1.0000   1.0000
     1.0000   1.0000   1.0000   1.0000   1.0000   1.0000   1.0000   1.0000
     1.0000   1.0000   1.0000   1.0000   1.0000   1.0000   1.0000   1.0000

          k = 0.0191 0.0114-0.0132 ( 97012 PWs)   bands (ev):

   -24.0564 -24.0371 -24.0288 -24.0164 -23.6342 -23.6274 -23.6183 -23.6179
   -19.2302 -19.2248 -19.2192 -19.2090 -18.8234 -18.8220 -18.8109 -18.8107
   -18.2985 -18.2644 -17.2954 -17.2323 -17.1039 -17.1015 -16.1026 -16.0832
   -12.1664 -12.1478 -12.1363 -12.0227 -11.9688 -11.8905 -11.8438 -11.8249
    -8.9352  -8.8434  -8.3148  -8.2888  -7.6049  -7.5836  -7.5215  -7.4381
    -6.8420  -6.8262  -6.6319  -6.5659  -6.5315  -6.4663  -6.3766  -6.3232
    -6.2190  -6.1735  -6.0231  -5.9714  -5.8941  -5.8452  -5.7554  -5.7476
    -5.7067  -5.6785  -5.5817  -5.5598  -5.1129  -5.0689  -4.9505  -4.9048
    -4.5120  -4.4659  -4.4471  -4.4292  -4.2547  -4.1771  -3.8849  -3.8114
    -3.7752  -3.6478  -3.5813  -3.5474  -3.1946  -3.1534  -3.1013  -3.0888
    -0.7526  -0.7350  -0.3371  -0.3305  -0.2497  -0.2041  -0.1248  -0.1086
    -0.0943  -0.0557   0.0582   0.1164   0.1921   0.2660   0.3181   0.3846
     0.5515   0.5927   0.6123   0.6932   0.7333   0.8137   0.8699   0.8800
     0.9133   0.9973   1.0842   1.1617   1.1999   1.3104   1.3535   1.3696

     occupation numbers 
     1.0000   1.0000   1.0000   1.0000   1.0000   1.0000   1.0000   1.0000
     1.0000   1.0000   1.0000   1.0000   1.0000   1.0000   1.0000   1.0000
     1.0000   1.0000   1.0000   1.0000   1.0000   1.0000   1.0000   1.0000
     1.0000   1.0000   1.0000   1.0000   1.0000   1.0000   1.0000   1.0000
     1.0000   1.0000   1.0000   1.0000   1.0000   1.0000   1.0000   1.0000
     1.0000   1.0000   1.0000   1.0000   1.0000   1.0000   1.0000   1.0000
     1.0000   1.0000   1.0000   1.0000   1.0000   1.0000   1.0000   1.0000
     1.0000   1.0000   1.0000   1.0000   1.0000   1.0000   1.0000   1.0000
     1.0000   1.0000   1.0000   1.0000   1.0000   1.0000   1.0000   1.0000
     1.0000   1.0000   1.0000   1.0000   1.0000   1.0000   1.0000   1.0000
     1.0000   1.0000   1.0000   1.0000   1.0000   1.0000   1.0000   1.0000
     1.0000   1.0000   1.0000   1.0000   1.0000   1.0000   1.0000   1.0000
     1.0000   1.0000   1.0000   1.0000   1.0000   1.0000   1.0000   1.0000
     1.0000   1.0000   1.0000   1.0000   1.0000   1.0000   1.0000   1.0000

          k = 0.0191 0.0341 0.0217 ( 97067 PWs)   bands (ev):

   -24.0513 -24.0443 -24.0233 -24.0198 -23.6302 -23.6268 -23.6206 -23.6203
   -19.2305 -19.2289 -19.2139 -19.2096 -18.8191 -18.8188 -18.8147 -18.8144
   -18.2874 -18.2773 -17.2733 -17.2539 -17.1002 -17.0999 -16.0986 -16.0934
   -12.1493 -12.1484 -12.1110 -12.0702 -11.9342 -11.9108 -11.8397 -11.8307
    -8.9126  -8.8959  -8.3117  -8.2968  -7.5927  -7.5756  -7.4802  -7.4796
    -6.8532  -6.8061  -6.5832  -6.5658  -6.5481  -6.4719  -6.3492  -6.3296
    -6.1682  -6.1591  -6.0291  -5.9805  -5.9369  -5.9072  -5.7827  -5.7693
    -5.6701  -5.6530  -5.5745  -5.5582  -5.1037  -5.0401  -4.9923  -4.9687
    -4.5008  -4.4924  -4.4157  -4.4057  -4.2394  -4.1972  -3.8670  -3.8626
    -3.7006  -3.6647  -3.5693  -3.5551  -3.1831  -3.1691  -3.0977  -3.0893
    -0.7966  -0.7919  -0.3412  -0.3303  -0.2558  -0.2153  -0.1408  -0.1345
    -0.0103   0.0026   0.1963   0.2053   0.2387   0.2470   0.3871   0.3995
     0.4090   0.4361   0.6289   0.6534   0.7378   0.7600   0.8722   0.8897
     0.9434   0.9898   1.0908   1.1200   1.2328   1.2850   1.3763   1.3822

     occupation numbers 
     1.0000   1.0000   1.0000   1.0000   1.0000   1.0000   1.0000   1.0000
     1.0000   1.0000   1.0000   1.0000   1.0000   1.0000   1.0000   1.0000
     1.0000   1.0000   1.0000   1.0000   1.0000   1.0000   1.0000   1.0000
     1.0000   1.0000   1.0000   1.0000   1.0000   1.0000   1.0000   1.0000
     1.0000   1.0000   1.0000   1.0000   1.0000   1.0000   1.0000   1.0000
     1.0000   1.0000   1.0000   1.0000   1.0000   1.0000   1.0000   1.0000
     1.0000   1.0000   1.0000   1.0000   1.0000   1.0000   1.0000   1.0000
     1.0000   1.0000   1.0000   1.0000   1.0000   1.0000   1.0000   1.0000
     1.0000   1.0000   1.0000   1.0000   1.0000   1.0000   1.0000   1.0000
     1.0000   1.0000   1.0000   1.0000   1.0000   1.0000   1.0000   1.0000
     1.0000   1.0000   1.0000   1.0000   1.0000   1.0000   1.0000   1.0000
     1.0000   1.0000   1.0000   1.0000   1.0000   1.0000   1.0000   1.0000
     1.0000   1.0000   1.0000   1.0000   1.0000   1.0000   1.0000   1.0000
     1.0000   1.0000   1.0000   1.0000   1.0000   1.0000   1.0000   1.0000

          k = 0.0191 0.0341 0.0566 ( 97105 PWs)   bands (ev):

   -24.0464 -24.0437 -24.0242 -24.0236 -23.6307 -23.6295 -23.6198 -23.6188
   -19.2285 -19.2271 -19.2157 -19.2127 -18.8247 -18.8244 -18.8100 -18.8097
   -18.2832 -18.2830 -17.2648 -17.2636 -17.0948 -17.0937 -16.0981 -16.0974
   -12.1580 -12.1574 -12.0789 -12.0706 -11.9239 -11.9194 -11.8534 -11.8494
    -8.8918  -8.8772  -8.2960  -8.2857  -7.5989  -7.5785  -7.4469  -7.4187
    -6.9022  -6.8567  -6.6188  -6.6120  -6.5129  -6.4602  -6.4049  -6.3862
    -6.1898  -6.1730  -5.9998  -5.9637  -5.9050  -5.8708  -5.8202  -5.8042
    -5.7455  -5.7115  -5.5160  -5.4981  -5.0879  -5.0380  -4.9960  -4.9589
    -4.4256  -4.4138  -4.3963  -4.3586  -4.1817  -4.1687  -3.9725  -3.9657
    -3.7010  -3.6865  -3.5369  -3.5314  -3.2048  -3.2007  -3.0907  -3.0776
    -0.7589  -0.7427  -0.3519  -0.3427  -0.2576  -0.2266  -0.1706  -0.1483
    -0.0687  -0.0447   0.1126   0.1351   0.2449   0.2671   0.3370   0.3487
     0.5516   0.5776   0.6466   0.6655   0.7715   0.7813   0.8171   0.8473
     0.9817   1.0028   1.1050   1.1177   1.2445   1.2722   1.3706   1.3771

     occupation numbers 
     1.0000   1.0000   1.0000   1.0000   1.0000   1.0000   1.0000   1.0000
     1.0000   1.0000   1.0000   1.0000   1.0000   1.0000   1.0000   1.0000
     1.0000   1.0000   1.0000   1.0000   1.0000   1.0000   1.0000   1.0000
     1.0000   1.0000   1.0000   1.0000   1.0000   1.0000   1.0000   1.0000
     1.0000   1.0000   1.0000   1.0000   1.0000   1.0000   1.0000   1.0000
     1.0000   1.0000   1.0000   1.0000   1.0000   1.0000   1.0000   1.0000
     1.0000   1.0000   1.0000   1.0000   1.0000   1.0000   1.0000   1.0000
     1.0000   1.0000   1.0000   1.0000   1.0000   1.0000   1.0000   1.0000
     1.0000   1.0000   1.0000   1.0000   1.0000   1.0000   1.0000   1.0000
     1.0000   1.0000   1.0000   1.0000   1.0000   1.0000   1.0000   1.0000
     1.0000   1.0000   1.0000   1.0000   1.0000   1.0000   1.0000   1.0000
     1.0000   1.0000   1.0000   1.0000   1.0000   1.0000   1.0000   1.0000
     1.0000   1.0000   1.0000   1.0000   1.0000   1.0000   1.0000   1.0000
     1.0000   1.0000   1.0000   1.0000   1.0000   1.0000   1.0000   1.0000

          k = 0.0191 0.0341-0.0480 ( 97057 PWs)   bands (ev):

   -24.0479 -24.0439 -24.0247 -24.0213 -23.6324 -23.6314 -23.6177 -23.6172
   -19.2272 -19.2264 -19.2158 -19.2148 -18.8266 -18.8261 -18.8082 -18.8079
   -18.2875 -18.2778 -17.2727 -17.2551 -17.0981 -17.0964 -16.0975 -16.0913
   -12.1651 -12.1600 -12.0973 -12.0662 -11.9273 -11.9003 -11.8538 -11.8475
    -8.8887  -8.8539  -8.2908  -8.2888  -7.6006  -7.5954  -7.4525  -7.4056
    -6.8956  -6.8520  -6.6315  -6.6125  -6.5128  -6.5036  -6.4366  -6.4169
    -6.1777  -6.1604  -6.0154  -5.9966  -5.8428  -5.8276  -5.8177  -5.7982
    -5.7463  -5.7089  -5.5107  -5.4822  -5.1192  -5.0663  -4.9597  -4.9235
    -4.4635  -4.4430  -4.3509  -4.3346  -4.2051  -4.1804  -3.9612  -3.9426
    -3.7117  -3.6931  -3.5619  -3.5311  -3.2044  -3.1949  -3.0881  -3.0858
    -0.6927  -0.6681  -0.3463  -0.3409  -0.2539  -0.2414  -0.2188  -0.1877
    -0.1267  -0.1138   0.0751   0.1089   0.2586   0.2741   0.3142   0.3379
     0.5983   0.6324   0.6928   0.7046   0.7317   0.7790   0.8401   0.8465
     0.9865   1.0039   1.1256   1.1476   1.2403   1.2507   1.3534   1.3631

     occupation numbers 
     1.0000   1.0000   1.0000   1.0000   1.0000   1.0000   1.0000   1.0000
     1.0000   1.0000   1.0000   1.0000   1.0000   1.0000   1.0000   1.0000
     1.0000   1.0000   1.0000   1.0000   1.0000   1.0000   1.0000   1.0000
     1.0000   1.0000   1.0000   1.0000   1.0000   1.0000   1.0000   1.0000
     1.0000   1.0000   1.0000   1.0000   1.0000   1.0000   1.0000   1.0000
     1.0000   1.0000   1.0000   1.0000   1.0000   1.0000   1.0000   1.0000
     1.0000   1.0000   1.0000   1.0000   1.0000   1.0000   1.0000   1.0000
     1.0000   1.0000   1.0000   1.0000   1.0000   1.0000   1.0000   1.0000
     1.0000   1.0000   1.0000   1.0000   1.0000   1.0000   1.0000   1.0000
     1.0000   1.0000   1.0000   1.0000   1.0000   1.0000   1.0000   1.0000
     1.0000   1.0000   1.0000   1.0000   1.0000   1.0000   1.0000   1.0000
     1.0000   1.0000   1.0000   1.0000   1.0000   1.0000   1.0000   1.0000
     1.0000   1.0000   1.0000   1.0000   1.0000   1.0000   1.0000   1.0000
     1.0000   1.0000   1.0000   1.0000   1.0000   1.0000   1.0000   1.0000

          k = 0.0191 0.0341-0.0132 ( 97050 PWs)   bands (ev):

   -24.0522 -24.0450 -24.0229 -24.0187 -23.6321 -23.6293 -23.6183 -23.6181
   -19.2297 -19.2280 -19.2145 -19.2108 -18.8230 -18.8224 -18.8108 -18.8107
   -18.2889 -18.2748 -17.2764 -17.2502 -17.1035 -17.1025 -16.0967 -16.0887
   -12.1591 -12.1528 -12.1154 -12.0743 -11.9288 -11.9026 -11.8379 -11.8301
    -8.9100  -8.8721  -8.3088  -8.2981  -7.5995  -7.5894  -7.4932  -7.4597
    -6.8174  -6.8043  -6.6156  -6.5781  -6.5474  -6.5053  -6.3972  -6.3697
    -6.1527  -6.1465  -6.0249  -6.0024  -5.8911  -5.8677  -5.7690  -5.7605
    -5.6663  -5.6594  -5.5691  -5.5539  -5.1108  -5.0819  -4.9542  -4.9291
    -4.5040  -4.4916  -4.4282  -4.4098  -4.2437  -4.2052  -3.8608  -3.8305
    -3.7294  -3.6753  -3.5742  -3.5592  -3.1864  -3.1695  -3.0959  -3.0909
    -0.7448  -0.7375  -0.3323  -0.3231  -0.2513  -0.2139  -0.1434  -0.1368
    -0.0838  -0.0675   0.0874   0.1159   0.2113   0.2447   0.3554   0.3837
     0.5619   0.5867   0.6248   0.6721   0.7212   0.7612   0.8846   0.8850
     0.9495   0.9811   1.1191   1.1504   1.2214   1.2679   1.3615   1.3667

     occupation numbers 
     1.0000   1.0000   1.0000   1.0000   1.0000   1.0000   1.0000   1.0000
     1.0000   1.0000   1.0000   1.0000   1.0000   1.0000   1.0000   1.0000
     1.0000   1.0000   1.0000   1.0000   1.0000   1.0000   1.0000   1.0000
     1.0000   1.0000   1.0000   1.0000   1.0000   1.0000   1.0000   1.0000
     1.0000   1.0000   1.0000   1.0000   1.0000   1.0000   1.0000   1.0000
     1.0000   1.0000   1.0000   1.0000   1.0000   1.0000   1.0000   1.0000
     1.0000   1.0000   1.0000   1.0000   1.0000   1.0000   1.0000   1.0000
     1.0000   1.0000   1.0000   1.0000   1.0000   1.0000   1.0000   1.0000
     1.0000   1.0000   1.0000   1.0000   1.0000   1.0000   1.0000   1.0000
     1.0000   1.0000   1.0000   1.0000   1.0000   1.0000   1.0000   1.0000
     1.0000   1.0000   1.0000   1.0000   1.0000   1.0000   1.0000   1.0000
     1.0000   1.0000   1.0000   1.0000   1.0000   1.0000   1.0000   1.0000
     1.0000   1.0000   1.0000   1.0000   1.0000   1.0000   1.0000   1.0000
     1.0000   1.0000   1.0000   1.0000   1.0000   1.0000   1.0000   1.0000

          k = 0.0574 0.0114 0.0303 ( 97046 PWs)   bands (ev):

   -24.0467 -24.0400 -24.0246 -24.0235 -23.6297 -23.6263 -23.6234 -23.6213
   -19.2283 -19.2243 -19.2205 -19.2120 -18.8223 -18.8210 -18.8129 -18.8128
   -18.2890 -18.2886 -17.2607 -17.2581 -17.1040 -17.1016 -16.0991 -16.0971
   -12.1469 -12.1463 -12.0548 -12.0351 -11.9035 -11.8905 -11.8525 -11.8380
    -8.9208  -8.8880  -8.3217  -8.2992  -7.5923  -7.5723  -7.5468  -7.4999
    -6.9962  -6.9197  -6.6823  -6.5704  -6.5294  -6.4787  -6.3032  -6.2521
    -6.2403  -6.1696  -6.0494  -5.9844  -5.9090  -5.8663  -5.7802  -5.7642
    -5.6921  -5.6469  -5.5977  -5.5889  -5.1625  -5.0529  -4.9339  -4.9268
    -4.4757  -4.4598  -4.4316  -4.3740  -4.0709  -4.0142  -3.8317  -3.8135
    -3.7176  -3.6887  -3.6569  -3.6367  -3.1850  -3.1796  -3.1097  -3.0760
    -0.7597  -0.7382  -0.3270  -0.3221  -0.2342  -0.2099  -0.1307  -0.1131
    -0.0769  -0.0633   0.1103   0.1216   0.2101   0.2230   0.3566   0.3716
     0.5713   0.5767   0.6365   0.6921   0.7699   0.7804   0.8593   0.8705
     0.9237   0.9783   1.0004   1.0594   1.2832   1.3057   1.3494   1.3846

     occupation numbers 
     1.0000   1.0000   1.0000   1.0000   1.0000   1.0000   1.0000   1.0000
     1.0000   1.0000   1.0000   1.0000   1.0000   1.0000   1.0000   1.0000
     1.0000   1.0000   1.0000   1.0000   1.0000   1.0000   1.0000   1.0000
     1.0000   1.0000   1.0000   1.0000   1.0000   1.0000   1.0000   1.0000
     1.0000   1.0000   1.0000   1.0000   1.0000   1.0000   1.0000   1.0000
     1.0000   1.0000   1.0000   1.0000   1.0000   1.0000   1.0000   1.0000
     1.0000   1.0000   1.0000   1.0000   1.0000   1.0000   1.0000   1.0000
     1.0000   1.0000   1.0000   1.0000   1.0000   1.0000   1.0000   1.0000
     1.0000   1.0000   1.0000   1.0000   1.0000   1.0000   1.0000   1.0000
     1.0000   1.0000   1.0000   1.0000   1.0000   1.0000   1.0000   1.0000
     1.0000   1.0000   1.0000   1.0000   1.0000   1.0000   1.0000   1.0000
     1.0000   1.0000   1.0000   1.0000   1.0000   1.0000   1.0000   1.0000
     1.0000   1.0000   1.0000   1.0000   1.0000   1.0000   1.0000   1.0000
     1.0000   1.0000   1.0000   1.0000   1.0000   1.0000   1.0000   1.0000

          k = 0.0574 0.0114 0.0652 ( 97068 PWs)   bands (ev):

   -24.0433 -24.0426 -24.0277 -24.0204 -23.6284 -23.6280 -23.6256 -23.6195
   -19.2283 -19.2251 -19.2209 -19.2120 -18.8319 -18.8298 -18.8056 -18.8038
   -18.3027 -18.2800 -17.2790 -17.2392 -17.0941 -17.0880 -16.1148 -16.0969
   -12.1584 -12.1565 -12.0826 -12.0071 -11.9062 -11.8583 -11.8579 -11.8444
    -8.9636  -8.8408  -8.3161  -8.2784  -7.6013  -7.5745  -7.5081  -7.3898
    -7.0918  -6.8711  -6.6895  -6.5614  -6.5546  -6.4479  -6.4285  -6.3610
    -6.2786  -6.2237  -6.0241  -5.9973  -5.9257  -5.8697  -5.8146  -5.7696
    -5.6760  -5.6172  -5.5467  -5.4781  -5.1711  -5.0157  -5.0000  -4.9369
    -4.4239  -4.4133  -4.3616  -4.3327  -4.0288  -3.9732  -3.8965  -3.8823
    -3.7907  -3.7197  -3.6681  -3.5804  -3.2200  -3.1971  -3.1070  -3.0440
    -0.8336  -0.7811  -0.3341  -0.2994  -0.2360  -0.2036  -0.1319  -0.0969
    -0.0442  -0.0273   0.1771   0.2123   0.2298   0.2487   0.3255   0.4099
     0.4869   0.5058   0.5451   0.6663   0.7558   0.7938   0.8382   0.8625
     0.9620   1.0034   1.0165   1.0442   1.2960   1.3303   1.3550   1.3931

     occupation numbers 
     1.0000   1.0000   1.0000   1.0000   1.0000   1.0000   1.0000   1.0000
     1.0000   1.0000   1.0000   1.0000   1.0000   1.0000   1.0000   1.0000
     1.0000   1.0000   1.0000   1.0000   1.0000   1.0000   1.0000   1.0000
     1.0000   1.0000   1.0000   1.0000   1.0000   1.0000   1.0000   1.0000
     1.0000   1.0000   1.0000   1.0000   1.0000   1.0000   1.0000   1.0000
     1.0000   1.0000   1.0000   1.0000   1.0000   1.0000   1.0000   1.0000
     1.0000   1.0000   1.0000   1.0000   1.0000   1.0000   1.0000   1.0000
     1.0000   1.0000   1.0000   1.0000   1.0000   1.0000   1.0000   1.0000
     1.0000   1.0000   1.0000   1.0000   1.0000   1.0000   1.0000   1.0000
     1.0000   1.0000   1.0000   1.0000   1.0000   1.0000   1.0000   1.0000
     1.0000   1.0000   1.0000   1.0000   1.0000   1.0000   1.0000   1.0000
     1.0000   1.0000   1.0000   1.0000   1.0000   1.0000   1.0000   1.0000
     1.0000   1.0000   1.0000   1.0000   1.0000   1.0000   1.0000   1.0000
     1.0000   1.0000   1.0000   1.0000   1.0000   1.0000   1.0000   1.0000

          k = 0.0574 0.0114-0.0395 ( 97041 PWs)   bands (ev):

   -24.0470 -24.0395 -24.0294 -24.0182 -23.6312 -23.6307 -23.6218 -23.6177
   -19.2265 -19.2249 -19.2203 -19.2148 -18.8330 -18.8308 -18.8045 -18.8026
   -18.3070 -18.2744 -17.2885 -17.2296 -17.0971 -17.0908 -16.1142 -16.0909
   -12.1621 -12.1578 -12.1058 -11.9868 -11.9213 -11.8583 -11.8528 -11.8333
    -8.9595  -8.8169  -8.3104  -8.2797  -7.5977  -7.5836  -7.5299  -7.3767
    -7.1059  -6.8735  -6.6769  -6.5697  -6.5565  -6.5022  -6.4313  -6.3618
    -6.2966  -6.2346  -6.0068  -5.9567  -5.8985  -5.8794  -5.8150  -5.7774
    -5.6561  -5.6138  -5.5564  -5.4763  -5.1611  -5.0360  -4.9733  -4.9272
    -4.4292  -4.3921  -4.3709  -4.3385  -4.0438  -3.9948  -3.8674  -3.8427
    -3.7686  -3.7514  -3.7146  -3.5868  -3.2234  -3.1958  -3.0997  -3.0503
    -0.7939  -0.7200  -0.3263  -0.2785  -0.2410  -0.2219  -0.1413  -0.1199
    -0.1034  -0.0617   0.1010   0.1891   0.2289   0.2762   0.2866   0.3042
     0.5290   0.6093   0.6350   0.6537   0.7467   0.7945   0.8589   0.8752
     0.9532   0.9843   1.0380   1.0959   1.3156   1.3272   1.3334   1.3549

     occupation numbers 
     1.0000   1.0000   1.0000   1.0000   1.0000   1.0000   1.0000   1.0000
     1.0000   1.0000   1.0000   1.0000   1.0000   1.0000   1.0000   1.0000
     1.0000   1.0000   1.0000   1.0000   1.0000   1.0000   1.0000   1.0000
     1.0000   1.0000   1.0000   1.0000   1.0000   1.0000   1.0000   1.0000
     1.0000   1.0000   1.0000   1.0000   1.0000   1.0000   1.0000   1.0000
     1.0000   1.0000   1.0000   1.0000   1.0000   1.0000   1.0000   1.0000
     1.0000   1.0000   1.0000   1.0000   1.0000   1.0000   1.0000   1.0000
     1.0000   1.0000   1.0000   1.0000   1.0000   1.0000   1.0000   1.0000
     1.0000   1.0000   1.0000   1.0000   1.0000   1.0000   1.0000   1.0000
     1.0000   1.0000   1.0000   1.0000   1.0000   1.0000   1.0000   1.0000
     1.0000   1.0000   1.0000   1.0000   1.0000   1.0000   1.0000   1.0000
     1.0000   1.0000   1.0000   1.0000   1.0000   1.0000   1.0000   1.0000
     1.0000   1.0000   1.0000   1.0000   1.0000   1.0000   1.0000   1.0000
     1.0000   1.0000   1.0000   1.0000   1.0000   1.0000   1.0000   1.0000

          k = 0.0574 0.0114-0.0046 ( 97060 PWs)   bands (ev):

   -24.0486 -24.0386 -24.0281 -24.0195 -23.6320 -23.6293 -23.6204 -23.6190
   -19.2267 -19.2245 -19.2184 -19.2158 -18.8251 -18.8236 -18.8103 -18.8099
   -18.3000 -18.2763 -17.2812 -17.2375 -17.1067 -17.1045 -16.1025 -16.0873
   -12.1506 -12.1474 -12.0946 -11.9972 -11.9300 -11.8718 -11.8422 -11.8405
    -8.9316  -8.8488  -8.3100  -8.3069  -7.5905  -7.5823  -7.5787  -7.4760
    -7.0051  -6.9214  -6.6401  -6.6145  -6.5253  -6.5208  -6.3341  -6.2872
    -6.2208  -6.2145  -5.9755  -5.9434  -5.8837  -5.8612  -5.7939  -5.7847
    -5.6677  -5.6570  -5.5976  -5.5879  -5.1209  -5.1032  -4.9159  -4.9052
    -4.4776  -4.4604  -4.4165  -4.3915  -4.0609  -4.0424  -3.7924  -3.7874
    -3.7564  -3.7064  -3.6632  -3.6503  -3.1987  -3.1707  -3.0990  -3.0837
    -0.7077  -0.6584  -0.3230  -0.3135  -0.2311  -0.2261  -0.2037  -0.1845
    -0.0936  -0.0714   0.0541   0.1219   0.1933   0.2309   0.3260   0.3605
     0.5475   0.6221   0.7063   0.7315   0.7547   0.8021   0.8729   0.8940
     0.9280   0.9420   1.0170   1.1054   1.3004   1.3008   1.3268   1.3470

     occupation numbers 
     1.0000   1.0000   1.0000   1.0000   1.0000   1.0000   1.0000   1.0000
     1.0000   1.0000   1.0000   1.0000   1.0000   1.0000   1.0000   1.0000
     1.0000   1.0000   1.0000   1.0000   1.0000   1.0000   1.0000   1.0000
     1.0000   1.0000   1.0000   1.0000   1.0000   1.0000   1.0000   1.0000
     1.0000   1.0000   1.0000   1.0000   1.0000   1.0000   1.0000   1.0000
     1.0000   1.0000   1.0000   1.0000   1.0000   1.0000   1.0000   1.0000
     1.0000   1.0000   1.0000   1.0000   1.0000   1.0000   1.0000   1.0000
     1.0000   1.0000   1.0000   1.0000   1.0000   1.0000   1.0000   1.0000
     1.0000   1.0000   1.0000   1.0000   1.0000   1.0000   1.0000   1.0000
     1.0000   1.0000   1.0000   1.0000   1.0000   1.0000   1.0000   1.0000
     1.0000   1.0000   1.0000   1.0000   1.0000   1.0000   1.0000   1.0000
     1.0000   1.0000   1.0000   1.0000   1.0000   1.0000   1.0000   1.0000
     1.0000   1.0000   1.0000   1.0000   1.0000   1.0000   1.0000   1.0000
     1.0000   1.0000   1.0000   1.0000   1.0000   1.0000   1.0000   1.0000

          k = 0.0574 0.0341 0.0303 ( 97090 PWs)   bands (ev):

   -24.0446 -24.0418 -24.0245 -24.0240 -23.6283 -23.6268 -23.6232 -23.6224
   -19.2282 -19.2270 -19.2165 -19.2135 -18.8219 -18.8213 -18.8128 -18.8128
   -18.2889 -18.2887 -17.2601 -17.2590 -17.1031 -17.1021 -16.0986 -16.0977
   -12.1466 -12.1464 -12.0477 -12.0393 -11.9016 -11.8960 -11.8482 -11.8421
    -8.9112  -8.8976  -8.3118  -8.3023  -7.5853  -7.5776  -7.5377  -7.5176
    -6.9959  -6.9692  -6.6112  -6.5790  -6.5077  -6.4708  -6.3315  -6.2947
    -6.2117  -6.1835  -6.0213  -5.9950  -5.9012  -5.8802  -5.7802  -5.7631
    -5.6769  -5.6642  -5.5924  -5.5844  -5.1332  -5.0879  -4.9375  -4.9334
    -4.4732  -4.4644  -4.4115  -4.3903  -4.0492  -4.0234  -3.8144  -3.8081
    -3.7251  -3.7090  -3.6506  -3.6396  -3.1830  -3.1800  -3.1037  -3.0891
    -0.7505  -0.7416  -0.3170  -0.3102  -0.2616  -0.2420  -0.1142  -0.0936
    -0.0851  -0.0706   0.1251   0.1368   0.2112   0.2235   0.3551   0.3622
     0.5916   0.6019   0.6170   0.6512   0.7729   0.7763   0.8648   0.8816
     0.9398   0.9703   1.0073   1.0350   1.2901   1.2992   1.3605   1.3748

     occupation numbers 
     1.0000   1.0000   1.0000   1.0000   1.0000   1.0000   1.0000   1.0000
     1.0000   1.0000   1.0000   1.0000   1.0000   1.0000   1.0000   1.0000
     1.0000   1.0000   1.0000   1.0000   1.0000   1.0000   1.0000   1.0000
     1.0000   1.0000   1.0000   1.0000   1.0000   1.0000   1.0000   1.0000
     1.0000   1.0000   1.0000   1.0000   1.0000   1.0000   1.0000   1.0000
     1.0000   1.0000   1.0000   1.0000   1.0000   1.0000   1.0000   1.0000
     1.0000   1.0000   1.0000   1.0000   1.0000   1.0000   1.0000   1.0000
     1.0000   1.0000   1.0000   1.0000   1.0000   1.0000   1.0000   1.0000
     1.0000   1.0000   1.0000   1.0000   1.0000   1.0000   1.0000   1.0000
     1.0000   1.0000   1.0000   1.0000   1.0000   1.0000   1.0000   1.0000
     1.0000   1.0000   1.0000   1.0000   1.0000   1.0000   1.0000   1.0000
     1.0000   1.0000   1.0000   1.0000   1.0000   1.0000   1.0000   1.0000
     1.0000   1.0000   1.0000   1.0000   1.0000   1.0000   1.0000   1.0000
     1.0000   1.0000   1.0000   1.0000   1.0000   1.0000   1.0000   1.0000

          k = 0.0574 0.0341 0.0652 ( 97118 PWs)   bands (ev):

   -24.0430 -24.0427 -24.0257 -24.0227 -23.6282 -23.6280 -23.6239 -23.6213
   -19.2285 -19.2276 -19.2167 -19.2135 -18.8313 -18.8304 -18.8050 -18.8043
   -18.2963 -18.2868 -17.2672 -17.2507 -17.0924 -17.0899 -16.1094 -16.1020
   -12.1601 -12.1583 -12.0606 -12.0304 -11.8894 -11.8701 -11.8544 -11.8487
    -8.9289  -8.8782  -8.3035  -8.2878  -7.5756  -7.5634  -7.5011  -7.4465
    -7.0510  -6.9728  -6.5986  -6.5670  -6.5384  -6.4952  -6.3857  -6.3338
    -6.2893  -6.2407  -6.0060  -5.9912  -5.9193  -5.8960  -5.8248  -5.7950
    -5.6676  -5.6436  -5.5169  -5.4894  -5.1349  -5.0682  -4.9814  -4.9527
    -4.4090  -4.3911  -4.3626  -4.3343  -4.0136  -3.9914  -3.8946  -3.8877
    -3.7747  -3.7510  -3.6363  -3.6028  -3.2134  -3.2040  -3.0898  -3.0636
    -0.8155  -0.7939  -0.3216  -0.3059  -0.2575  -0.2454  -0.1147  -0.1056
    -0.0144  -0.0092   0.1940   0.2060   0.2425   0.2543   0.3446   0.3847
     0.4718   0.4817   0.5959   0.6525   0.7452   0.7789   0.8477   0.8625
     0.9551   0.9791   1.0353   1.0519   1.3045   1.3183   1.3665   1.3819

     occupation numbers 
     1.0000   1.0000   1.0000   1.0000   1.0000   1.0000   1.0000   1.0000
     1.0000   1.0000   1.0000   1.0000   1.0000   1.0000   1.0000   1.0000
     1.0000   1.0000   1.0000   1.0000   1.0000   1.0000   1.0000   1.0000
     1.0000   1.0000   1.0000   1.0000   1.0000   1.0000   1.0000   1.0000
     1.0000   1.0000   1.0000   1.0000   1.0000   1.0000   1.0000   1.0000
     1.0000   1.0000   1.0000   1.0000   1.0000   1.0000   1.0000   1.0000
     1.0000   1.0000   1.0000   1.0000   1.0000   1.0000   1.0000   1.0000
     1.0000   1.0000   1.0000   1.0000   1.0000   1.0000   1.0000   1.0000
     1.0000   1.0000   1.0000   1.0000   1.0000   1.0000   1.0000   1.0000
     1.0000   1.0000   1.0000   1.0000   1.0000   1.0000   1.0000   1.0000
     1.0000   1.0000   1.0000   1.0000   1.0000   1.0000   1.0000   1.0000
     1.0000   1.0000   1.0000   1.0000   1.0000   1.0000   1.0000   1.0000
     1.0000   1.0000   1.0000   1.0000   1.0000   1.0000   1.0000   1.0000
     1.0000   1.0000   1.0000   1.0000   1.0000   1.0000   1.0000   1.0000

          k = 0.0574 0.0341-0.0395 ( 97062 PWs)   bands (ev):

   -24.0453 -24.0424 -24.0254 -24.0210 -23.6310 -23.6308 -23.6207 -23.6189
   -19.2270 -19.2267 -19.2173 -19.2154 -18.8324 -18.8314 -18.8039 -18.8032
   -18.2979 -18.2843 -17.2708 -17.2464 -17.0955 -17.0930 -16.1072 -16.0975
   -12.1639 -12.1615 -12.0752 -12.0307 -11.8901 -11.8678 -11.8485 -11.8408
    -8.9198  -8.8609  -8.3010  -8.2882  -7.5784  -7.5628  -7.5163  -7.4409
    -7.0545  -6.9696  -6.5986  -6.5753  -6.5488  -6.5120  -6.4451  -6.3814
    -6.2540  -6.2108  -5.9992  -5.9690  -5.9055  -5.9017  -5.8180  -5.7931
    -5.6510  -5.6328  -5.5190  -5.4868  -5.1474  -5.0957  -4.9487  -4.9268
    -4.4281  -4.4137  -4.3400  -4.3237  -4.0271  -4.0071  -3.8654  -3.8554
    -3.7692  -3.7591  -3.6730  -3.6213  -3.2131  -3.2003  -3.0903  -3.0689
    -0.7708  -0.7400  -0.3166  -0.2989  -0.2594  -0.2439  -0.1281  -0.1178
    -0.0774  -0.0515   0.1324   0.1667   0.2350   0.2523   0.2918   0.3100
     0.5559   0.5874   0.6567   0.6641   0.7524   0.7739   0.8434   0.8489
     0.9637   0.9831   1.0606   1.0832   1.3178   1.3240   1.3372   1.3477

     occupation numbers 
     1.0000   1.0000   1.0000   1.0000   1.0000   1.0000   1.0000   1.0000
     1.0000   1.0000   1.0000   1.0000   1.0000   1.0000   1.0000   1.0000
     1.0000   1.0000   1.0000   1.0000   1.0000   1.0000   1.0000   1.0000
     1.0000   1.0000   1.0000   1.0000   1.0000   1.0000   1.0000   1.0000
     1.0000   1.0000   1.0000   1.0000   1.0000   1.0000   1.0000   1.0000
     1.0000   1.0000   1.0000   1.0000   1.0000   1.0000   1.0000   1.0000
     1.0000   1.0000   1.0000   1.0000   1.0000   1.0000   1.0000   1.0000
     1.0000   1.0000   1.0000   1.0000   1.0000   1.0000   1.0000   1.0000
     1.0000   1.0000   1.0000   1.0000   1.0000   1.0000   1.0000   1.0000
     1.0000   1.0000   1.0000   1.0000   1.0000   1.0000   1.0000   1.0000
     1.0000   1.0000   1.0000   1.0000   1.0000   1.0000   1.0000   1.0000
     1.0000   1.0000   1.0000   1.0000   1.0000   1.0000   1.0000   1.0000
     1.0000   1.0000   1.0000   1.0000   1.0000   1.0000   1.0000   1.0000
     1.0000   1.0000   1.0000   1.0000   1.0000   1.0000   1.0000   1.0000

          k = 0.0574 0.0341-0.0046 ( 97040 PWs)   bands (ev):

   -24.0461 -24.0422 -24.0250 -24.0216 -23.6311 -23.6299 -23.6201 -23.6195
   -19.2268 -19.2260 -19.2167 -19.2158 -18.8246 -18.8240 -18.8101 -18.8100
   -18.2933 -18.2835 -17.2682 -17.2501 -17.1062 -17.1053 -16.0980 -16.0917
   -12.1507 -12.1497 -12.0703 -12.0330 -11.9043 -11.8827 -11.8427 -11.8411
    -8.9080  -8.8738  -8.3079  -8.3049  -7.5876  -7.5841  -7.5524  -7.5095
    -6.9935  -6.9598  -6.6087  -6.5979  -6.5023  -6.4994  -6.3885  -6.3675
    -6.1744  -6.1677  -5.9831  -5.9660  -5.8793  -5.8685  -5.7767  -5.7701
    -5.6741  -5.6593  -5.5950  -5.5924  -5.1260  -5.1159  -4.9104  -4.9074
    -4.4787  -4.4650  -4.4161  -4.3947  -4.0454  -4.0358  -3.7936  -3.7900
    -3.7281  -3.6940  -3.6855  -3.6669  -3.1893  -3.1761  -3.1005  -3.0950
    -0.6926  -0.6722  -0.3085  -0.3068  -0.2458  -0.2220  -0.2069  -0.1878
    -0.1064  -0.0880   0.0846   0.1117   0.2065   0.2250   0.3381   0.3560
     0.5768   0.6135   0.6933   0.7147   0.7579   0.7901   0.8776   0.8824
     0.9458   0.9555   1.0329   1.0734   1.3009   1.3019   1.3322   1.3410

     occupation numbers 
     1.0000   1.0000   1.0000   1.0000   1.0000   1.0000   1.0000   1.0000
     1.0000   1.0000   1.0000   1.0000   1.0000   1.0000   1.0000   1.0000
     1.0000   1.0000   1.0000   1.0000   1.0000   1.0000   1.0000   1.0000
     1.0000   1.0000   1.0000   1.0000   1.0000   1.0000   1.0000   1.0000
     1.0000   1.0000   1.0000   1.0000   1.0000   1.0000   1.0000   1.0000
     1.0000   1.0000   1.0000   1.0000   1.0000   1.0000   1.0000   1.0000
     1.0000   1.0000   1.0000   1.0000   1.0000   1.0000   1.0000   1.0000
     1.0000   1.0000   1.0000   1.0000   1.0000   1.0000   1.0000   1.0000
     1.0000   1.0000   1.0000   1.0000   1.0000   1.0000   1.0000   1.0000
     1.0000   1.0000   1.0000   1.0000   1.0000   1.0000   1.0000   1.0000
     1.0000   1.0000   1.0000   1.0000   1.0000   1.0000   1.0000   1.0000
     1.0000   1.0000   1.0000   1.0000   1.0000   1.0000   1.0000   1.0000
     1.0000   1.0000   1.0000   1.0000   1.0000   1.0000   1.0000   1.0000
     1.0000   1.0000   1.0000   1.0000   1.0000   1.0000   1.0000   1.0000

     highest occupied level (ev):     1.3931

!    total energy              =   -1281.97254603 Ry
     Harris-Foulkes estimate   =   -1281.97254688 Ry
     estimated scf accuracy    <       0.00000093 Ry

     total all-electron energy =     -4786.416294 Ry

     The total energy is the sum of the following terms:

     one-electron contribution =    -646.83221466 Ry
     hartree contribution      =     421.53439605 Ry
     xc contribution           =    -260.41545514 Ry
     ewald contribution        =    -465.86389729 Ry
     one-center paw contrib.   =    -330.39537499 Ry

     convergence has been achieved in  15 iterations

     Writing output data file scf.pbe-ec-140-kp444.HMX-792827-nofor.nostress.save

     init_run     :    230.26s CPU    355.10s WALL (       1 calls)
     electrons    :   7304.64s CPU  10528.33s WALL (       1 calls)

     Called by init_run:
     wfcinit      :    140.39s CPU    226.95s WALL (       1 calls)
     potinit      :     26.58s CPU     34.77s WALL (       1 calls)

     Called by electrons:
     c_bands      :   6315.55s CPU   9071.57s WALL (      15 calls)
     sum_band     :    867.51s CPU   1273.64s WALL (      15 calls)
     v_of_rho     :     28.16s CPU     34.41s WALL (      16 calls)
     v_h          :      2.58s CPU      3.18s WALL (      16 calls)
     v_xc         :     25.58s CPU     31.23s WALL (      16 calls)
     newd         :     61.37s CPU    115.42s WALL (      16 calls)
     PAW_pot      :      5.59s CPU      6.36s WALL (      16 calls)
     mix_rho      :     18.65s CPU     21.12s WALL (      15 calls)

     Called by c_bands:
     init_us_2    :    121.27s CPU    133.11s WALL (     496 calls)
     cegterg      :   6009.42s CPU   8682.00s WALL (     240 calls)

     Called by sum_band:
     sum_band:bec :      0.51s CPU      0.52s WALL (     240 calls)
     addusdens    :    109.57s CPU    215.00s WALL (      15 calls)

     Called by *egterg:
     h_psi        :   3392.83s CPU   5288.98s WALL (    1205 calls)
     s_psi        :    356.18s CPU    321.14s WALL (    1205 calls)
     g_psi        :      5.91s CPU      8.86s WALL (     949 calls)
     cdiaghg      :    419.45s CPU    478.89s WALL (    1189 calls)
     cegterg:over :    547.54s CPU    782.09s WALL (     949 calls)
     cegterg:upda :    692.13s CPU    562.92s WALL (     949 calls)
     cegterg:last :    231.89s CPU    331.77s WALL (     240 calls)

     Called by h_psi:
     h_psi:vloc   :   1813.77s CPU   2998.24s WALL (    1205 calls)
     h_psi:vnl    :   1422.58s CPU   2120.00s WALL (    1205 calls)
     add_vuspsi   :    427.43s CPU    452.95s WALL (    1205 calls)

     General routines
     calbec       :   1157.13s CPU   1926.74s WALL (    1445 calls)
     fft          :     24.07s CPU     36.74s WALL (     252 calls)
     ffts         :      1.21s CPU      1.92s WALL (      31 calls)
     fftw         :   1460.26s CPU   2783.71s WALL (  188822 calls)
     interpolate  :     16.03s CPU     18.00s WALL (      31 calls)
     davcio       :      1.26s CPU     81.85s WALL (      16 calls)

     Parallel routines
     fft_scatter  :    830.46s CPU   2122.54s WALL (  189105 calls)

     PAW routines
     PAW_pot      :      5.59s CPU      6.36s WALL (      16 calls)
     PAW_symme    :      0.06s CPU      0.19s WALL (      31 calls)

     PWSCF        :     2h 5m CPU        3h 3m WALL


   This run was terminated on:   6: 5:19  22May2016            

=------------------------------------------------------------------------------=
   JOB DONE.
=------------------------------------------------------------------------------=
