
     Program PWSCF v.5.3.0 (svn rev. 11974) starts on 22May2016 at 12:57:16 

     This program is part of the open-source Quantum ESPRESSO suite
     for quantum simulation of materials; please cite
         "P. Giannozzi et al., J. Phys.:Condens. Matter 21 395502 (2009);
          URL http://www.quantum-espresso.org", 
     in publications or presentations arising from this work. More details at
     http://www.quantum-espresso.org/quote

     Parallel version (MPI), running on    32 processors
     R & G space division:  proc/nbgrp/npool/nimage =      32
     Waiting for input...
     Reading input from standard input
Warning: card    &IONS ignored
Warning: card TRUST_RADIUS_MAX=0.2 ignored
Warning: card / ignored
Warning: card     &CELL ignored
Warning: card CELL_DYNAMICS='BFGS' ignored
Warning: card / ignored

     Current dimensions of program PWSCF are:
     Max number of different atomic species (ntypx) = 10
     Max number of k-points (npk) =  40000
     Max angular momentum in pseudopotentials (lmaxx) =  3
               file N.pbe-n-kjpaw_psl.1.0.0.UPF: wavefunction(s)  2S renormalized
               file C.pbe-n-kjpaw_psl.1.0.0.UPF: wavefunction(s)  2S 2P renormalized
               file H.pbe-kjpaw_psl.1.0.0.UPF: wavefunction(s)  1S renormalized
               file O.pbe-n-kjpaw_psl.1.0.0.UPF: wavefunction(s)  2S 2P renormalized

     Subspace diagonalization in iterative solution of the eigenvalue problem:
     a serial algorithm will be used


     Parallelization info
     --------------------
     sticks:   dense  smooth     PW     G-vecs:    dense   smooth      PW
     Min        1401     560    146               188960    47766    6361
     Max        1402     561    147               188962    47835    6362
     Sum       44845   17949   4683              6046753  1529719  203559


     Title: 
     HMX-scf-pbe-n-kjpaw-kp242-ec-220-nofor-nostress-conv-em4                   


     bravais-lattice index     =            0
     lattice parameter (alat)  =       1.8897  a.u.
     unit-cell volume          =    3470.0091 (a.u.)^3
     number of atoms/cell      =           56
     number of atomic types    =            4
     number of electrons       =       224.00
     number of Kohn-Sham states=          112
     kinetic-energy cutoff     =     220.0000  Ry
     charge density cutoff     =    2200.0000  Ry
     convergence threshold     =      1.0E-06
     mixing beta               =       0.7000
     number of iterations used =            8  plain     mixing
     Exchange-correlation      =  SLA  PW   PBX  PBC ( 1  4  3  4 0 0)

     celldm(1)=   1.889726  celldm(2)=   0.000000  celldm(3)=   0.000000
     celldm(4)=   0.000000  celldm(5)=   0.000000  celldm(6)=   0.000000

     crystal axes: (cart. coord. in units of alat)
               a(1) = (   6.528900   0.000000   0.000000 )  
               a(2) = (   0.000000  10.987500   0.000000 )  
               a(3) = (  -1.604329   0.000000   7.167954 )  

     reciprocal axes: (cart. coord. in units 2 pi/alat)
               b(1) = (  0.153165 -0.000000  0.034281 )  
               b(2) = (  0.000000  0.091013 -0.000000 )  
               b(3) = (  0.000000  0.000000  0.139510 )  


     PseudoPot. # 1 for  N read from file:
     /users/majewski/.data/PSEUDOPOTENTIALS/N.pbe-n-kjpaw_psl.1.0.0.UPF
     MD5 check sum: c21df8f53e59d08c3548513d559cdda6
     Pseudo is Projector augmented-wave + core cor, Zval =  5.0
     Generated using "atomic" code by A. Dal Corso  v.5.3.0 svn rev. 11974
     Shape of augmentation charge: PSQ
     Using radial grid of 1085 points,  4 beta functions with: 
                l(1) =   0
                l(2) =   0
                l(3) =   1
                l(4) =   1
     Q(r) pseudized with 0 coefficients 


     PseudoPot. # 2 for  C read from file:
     /users/majewski/.data/PSEUDOPOTENTIALS/C.pbe-n-kjpaw_psl.1.0.0.UPF
     MD5 check sum: 2ba8448e293caca687844dde9a1b88a8
     Pseudo is Projector augmented-wave + core cor, Zval =  4.0
     Generated using "atomic" code by A. Dal Corso  v.5.3.0 svn rev. 11974
     Shape of augmentation charge: PSQ
     Using radial grid of 1073 points,  4 beta functions with: 
                l(1) =   0
                l(2) =   0
                l(3) =   1
                l(4) =   1
     Q(r) pseudized with 0 coefficients 


     PseudoPot. # 3 for  H read from file:
     /users/majewski/.data/PSEUDOPOTENTIALS/H.pbe-kjpaw_psl.1.0.0.UPF
     MD5 check sum: bc0feb48a24907a0b97fa6ee2d589a29
     Pseudo is Projector augmented-wave, Zval =  1.0
     Generated using "atomic" code by A. Dal Corso  v.5.3.0 svn rev. 11974
     Shape of augmentation charge: PSQ
     Using radial grid of  929 points,  2 beta functions with: 
                l(1) =   0
                l(2) =   0
     Q(r) pseudized with 0 coefficients 


     PseudoPot. # 4 for  O read from file:
     /users/majewski/.data/PSEUDOPOTENTIALS/O.pbe-n-kjpaw_psl.1.0.0.UPF
     MD5 check sum: 9c0ade6c043cf4a781bde3908a3a8206
     Pseudo is Projector augmented-wave + core cor, Zval =  6.0
     Generated using "atomic" code by A. Dal Corso  v.5.3.0 svn rev. 11974
     Shape of augmentation charge: PSQ
     Using radial grid of 1095 points,  4 beta functions with: 
                l(1) =   0
                l(2) =   0
                l(3) =   1
                l(4) =   1
     Q(r) pseudized with 0 coefficients 


     atomic species   valence    mass     pseudopotential
        N              5.00    14.00670      N( 1.00)
        C              4.00    12.01100      C( 1.00)
        H              1.00     1.00790      H( 1.00)
        O              6.00    15.99940      O( 1.00)

      4 Sym. Ops., with inversion, found ( 2 have fractional translation)


                                    s                        frac. trans.

      isym =  1     identity                                     

 cryst.   s( 1) = (     1          0          0      )
                  (     0          1          0      )
                  (     0          0          1      )

 cart.    s( 1) = (  1.0000000  0.0000000  0.0000000 )
                  (  0.0000000  1.0000000  0.0000000 )
                  (  0.0000000  0.0000000  1.0000000 )


      isym =  2     180 deg rotation - cart. axis [0,1,0]        

 cryst.   s( 2) = (    -1          0          0      )    f =(  0.5000000 )
                  (     0          1          0      )       (  0.5000000 )
                  (     0          0         -1      )       (  0.5000000 )

 cart.    s( 2) = ( -1.0000000  0.0000000 -0.0000000 )    f =(  2.4622854 )
                  (  0.0000000  1.0000000  0.0000000 )       (  5.4937500 )
                  (  0.0000000  0.0000000 -1.0000000 )       (  3.5839768 )


      isym =  3     inversion                                    

 cryst.   s( 3) = (    -1          0          0      )
                  (     0         -1          0      )
                  (     0          0         -1      )

 cart.    s( 3) = ( -1.0000000  0.0000000 -0.0000000 )
                  (  0.0000000 -1.0000000  0.0000000 )
                  (  0.0000000  0.0000000 -1.0000000 )


      isym =  4     inv. 180 deg rotation - cart. axis [0,1,0]   

 cryst.   s( 4) = (     1          0          0      )    f =( -0.5000000 )
                  (     0         -1          0      )       (  0.5000000 )
                  (     0          0          1      )       (  0.5000000 )

 cart.    s( 4) = (  1.0000000  0.0000000  0.0000000 )    f =( -4.0666146 )
                  (  0.0000000 -1.0000000  0.0000000 )       (  5.4937500 )
                  (  0.0000000  0.0000000  1.0000000 )       (  3.5839768 )


   Cartesian axes

     site n.     atom                  positions (alat units)
         1           N   tau(   1) = (  -0.8614487   6.8444434   3.3109495  )
         2           O   tau(   2) = (   1.0746241   7.9096815   3.1371266  )
         3           N   tau(   3) = (   0.0618658   7.7221249   3.8135664  )
         4           N   tau(   4) = (  -2.0647129   5.7697560   5.0587833  )
         5           O   tau(   5) = (  -3.2542440   4.7069351   6.6110753  )
         6           N   tau(   6) = (  -3.2426279   5.5114399   5.6869828  )
         7           O   tau(   7) = (  -0.1753723   8.2085415   4.8971459  )
         8           C   tau(   8) = (  -2.1300386   6.7612680   3.9714764  )
         9           H   tau(   9) = (  -2.8138762   6.5024025   3.3338152  )
        10           H   tau(  10) = (  -2.3673225   7.6286213   4.3344616  )
        11           O   tau(  11) = (  -4.2140784   6.1608011   5.2929603  )
        12           C   tau(  12) = (  -0.5990533   6.2146399   2.0230832  )
        13           H   tau(  13) = (  -1.3903515   5.7475613   1.7138577  )
        14           H   tau(  14) = (  -0.3482788   6.8660888   1.3518761  )
        15           H   tau(  15) = (   3.7183358  -1.3723388  -2.2321008  )
        16           H   tau(  16) = (   2.6762631  -0.2538112  -1.8701191  )
        17           C   tau(  17) = (   3.4675614  -0.7208899  -1.5608936  )
        18           O   tau(  18) = (  -0.1474638  -0.6670511   1.7089835  )
        19           H   tau(  19) = (   1.6992921  -2.1348713   0.7504847  )
        20           H   tau(  20) = (   1.2527385  -1.0086525  -0.2501616  )
        21           C   tau(  21) = (   1.9365761  -1.2675180   0.3874996  )
        22           O   tau(  22) = (   3.8912424  -2.7147915   1.3131691  )
        23           N   tau(  23) = (   0.8239867  -0.0176899   2.1030059  )
        24           O   tau(  24) = (   0.8123707   0.7868149   3.0270985  )
        25           N   tau(  25) = (   2.0019018  -0.2760060   1.4748065  )
        26           N   tau(  26) = (   4.1284804  -2.2283749   0.2295896  )
        27           O   tau(  27) = (   5.1412387  -2.4159315  -0.4468502  )
        28           N   tau(  28) = (   3.2051660  -1.3506934  -0.2730274  )
        29           H   tau(  29) = (  -1.2560505   4.1214113   5.8160776  )
        30           H   tau(  30) = (  -0.2139778   5.2399388   5.4540959  )
        31           C   tau(  31) = (  -1.0052760   4.7728601   5.1448704  )
        32           O   tau(  32) = (   2.6097491   4.8266989   1.8749933  )
        33           H   tau(  33) = (   0.7629932   3.3588788   2.8334921  )
        34           H   tau(  34) = (   1.2095469   4.4850975   3.8341384  )
        35           C   tau(  35) = (   0.5257093   4.2262320   3.1964773  )
        36           O   tau(  36) = (  -1.4289570   2.7789585   2.2708077  )
        37           N   tau(  37) = (   1.6382987   5.4760601   1.4809709  )
        38           O   tau(  38) = (   1.6499147   6.2805649   0.5568783  )
        39           N   tau(  39) = (   0.4603836   5.2177440   2.1091704  )
        40           N   tau(  40) = (  -1.6661950   3.2653751   3.3543873  )
        41           O   tau(  41) = (  -2.6789534   3.0778185   4.0308271  )
        42           N   tau(  42) = (  -0.7428806   4.1430566   3.8570042  )
        43           H   tau(  43) = (   2.8105642   1.3723388   2.2321008  )
        44           H   tau(  44) = (   3.8526369   0.2538112   1.8701191  )
        45           C   tau(  45) = (   3.0613386   0.7208899   1.5608936  )
        46           O   tau(  46) = (   6.6763638   0.6670511  -1.7089835  )
        47           H   tau(  47) = (   4.8296079   2.1348713  -0.7504847  )
        48           H   tau(  48) = (   5.2761615   1.0086525   0.2501616  )
        49           C   tau(  49) = (   4.5923239   1.2675180  -0.3874996  )
        50           O   tau(  50) = (   2.6376576   2.7147915  -1.3131691  )
        51           N   tau(  51) = (   5.7049133   0.0176899  -2.1030059  )
        52           O   tau(  52) = (   5.7165293  -0.7868149  -3.0270985  )
        53           N   tau(  53) = (   4.5269982   0.2760060  -1.4748065  )
        54           N   tau(  54) = (   2.4004196   2.2283749  -0.2295896  )
        55           O   tau(  55) = (   1.3876613   2.4159315   0.4468502  )
        56           N   tau(  56) = (   3.3237340   1.3506934   0.2730274  )

   Crystallographic axes

     site n.     atom                  positions (cryst. coord.)
         1           N   tau(   1) = ( -0.0184400  0.6229300  0.4619100  )
         2           O   tau(   2) = (  0.2721400  0.7198800  0.4376600  )
         3           N   tau(   3) = (  0.1402100  0.7028100  0.5320300  )
         4           N   tau(   4) = ( -0.1428200  0.5251200  0.7057500  )
         5           O   tau(   5) = ( -0.2718000  0.4283900  0.9223100  )
         6           N   tau(   6) = ( -0.3017000  0.5016100  0.7933900  )
         7           O   tau(   7) = (  0.1410200  0.7470800  0.6832000  )
         8           C   tau(   8) = ( -0.1901000  0.6153600  0.5540600  )
         9           H   tau(   9) = ( -0.3167000  0.5918000  0.4651000  )
        10           H   tau(  10) = ( -0.2140000  0.6943000  0.6047000  )
        11           O   tau(  11) = ( -0.4640000  0.5607100  0.7384200  )
        12           C   tau(  12) = ( -0.0224000  0.5656100  0.2822400  )
        13           H   tau(  13) = ( -0.1542000  0.5231000  0.2391000  )
        14           H   tau(  14) = ( -0.0070000  0.6249000  0.1886000  )
        15           H   tau(  15) = (  0.4930000 -0.1249000 -0.3114000  )
        16           H   tau(  16) = (  0.3458000 -0.0231000 -0.2609000  )
        17           C   tau(  17) = (  0.4776000 -0.0656100 -0.2177600  )
        18           O   tau(  18) = (  0.0360000 -0.0607100  0.2384200  )
        19           H   tau(  19) = (  0.2860000 -0.1943000  0.1047000  )
        20           H   tau(  20) = (  0.1833000 -0.0918000 -0.0349000  )
        21           C   tau(  21) = (  0.3099000 -0.1153600  0.0540600  )
        22           O   tau(  22) = (  0.6410200 -0.2470800  0.1832000  )
        23           N   tau(  23) = (  0.1983000 -0.0016100  0.2933900  )
        24           O   tau(  24) = (  0.2282000  0.0716100  0.4223100  )
        25           N   tau(  25) = (  0.3571800 -0.0251200  0.2057500  )
        26           N   tau(  26) = (  0.6402100 -0.2028100  0.0320300  )
        27           O   tau(  27) = (  0.7721400 -0.2198800 -0.0623400  )
        28           N   tau(  28) = (  0.4815600 -0.1229300 -0.0380900  )
        29           H   tau(  29) = (  0.0070000  0.3751000  0.8114000  )
        30           H   tau(  30) = (  0.1542000  0.4769000  0.7609000  )
        31           C   tau(  31) = (  0.0224000  0.4343900  0.7177600  )
        32           O   tau(  32) = (  0.4640000  0.4392900  0.2615800  )
        33           H   tau(  33) = (  0.2140000  0.3057000  0.3953000  )
        34           H   tau(  34) = (  0.3167000  0.4082000  0.5349000  )
        35           C   tau(  35) = (  0.1901000  0.3846400  0.4459400  )
        36           O   tau(  36) = ( -0.1410200  0.2529200  0.3168000  )
        37           N   tau(  37) = (  0.3017000  0.4983900  0.2066100  )
        38           O   tau(  38) = (  0.2718000  0.5716100  0.0776900  )
        39           N   tau(  39) = (  0.1428200  0.4748800  0.2942500  )
        40           N   tau(  40) = ( -0.1402100  0.2971900  0.4679700  )
        41           O   tau(  41) = ( -0.2721400  0.2801200  0.5623400  )
        42           N   tau(  42) = (  0.0184400  0.3770700  0.5380900  )
        43           H   tau(  43) = (  0.5070000  0.1249000  0.3114000  )
        44           H   tau(  44) = (  0.6542000  0.0231000  0.2609000  )
        45           C   tau(  45) = (  0.5224000  0.0656100  0.2177600  )
        46           O   tau(  46) = (  0.9640000  0.0607100 -0.2384200  )
        47           H   tau(  47) = (  0.7140000  0.1943000 -0.1047000  )
        48           H   tau(  48) = (  0.8167000  0.0918000  0.0349000  )
        49           C   tau(  49) = (  0.6901000  0.1153600 -0.0540600  )
        50           O   tau(  50) = (  0.3589800  0.2470800 -0.1832000  )
        51           N   tau(  51) = (  0.8017000  0.0016100 -0.2933900  )
        52           O   tau(  52) = (  0.7718000 -0.0716100 -0.4223100  )
        53           N   tau(  53) = (  0.6428200  0.0251200 -0.2057500  )
        54           N   tau(  54) = (  0.3597900  0.2028100 -0.0320300  )
        55           O   tau(  55) = (  0.2278600  0.2198800  0.0623400  )
        56           N   tau(  56) = (  0.5184400  0.1229300  0.0380900  )

     number of k points=    16
                       cart. coord. in units 2pi/alat
        k(    1) = (   0.0191456   0.0113766   0.0217239), wk =   0.1250000
        k(    2) = (   0.0191456   0.0113766   0.0566014), wk =   0.1250000
        k(    3) = (   0.0191456   0.0113766  -0.0480310), wk =   0.1250000
        k(    4) = (   0.0191456   0.0113766  -0.0131536), wk =   0.1250000
        k(    5) = (   0.0191456   0.0341297   0.0217239), wk =   0.1250000
        k(    6) = (   0.0191456   0.0341297   0.0566014), wk =   0.1250000
        k(    7) = (   0.0191456   0.0341297  -0.0480310), wk =   0.1250000
        k(    8) = (   0.0191456   0.0341297  -0.0131536), wk =   0.1250000
        k(    9) = (   0.0574369   0.0113766   0.0302942), wk =   0.1250000
        k(   10) = (   0.0574369   0.0113766   0.0651717), wk =   0.1250000
        k(   11) = (   0.0574369   0.0113766  -0.0394607), wk =   0.1250000
        k(   12) = (   0.0574369   0.0113766  -0.0045832), wk =   0.1250000
        k(   13) = (   0.0574369   0.0341297   0.0302942), wk =   0.1250000
        k(   14) = (   0.0574369   0.0341297   0.0651717), wk =   0.1250000
        k(   15) = (   0.0574369   0.0341297  -0.0394607), wk =   0.1250000
        k(   16) = (   0.0574369   0.0341297  -0.0045832), wk =   0.1250000

                       cryst. coord.
        k(    1) = (   0.1250000   0.1250000   0.1250000), wk =   0.1250000
        k(    2) = (   0.1250000   0.1250000   0.3750000), wk =   0.1250000
        k(    3) = (   0.1250000   0.1250000  -0.3750000), wk =   0.1250000
        k(    4) = (   0.1250000   0.1250000  -0.1250000), wk =   0.1250000
        k(    5) = (   0.1250000   0.3750000   0.1250000), wk =   0.1250000
        k(    6) = (   0.1250000   0.3750000   0.3750000), wk =   0.1250000
        k(    7) = (   0.1250000   0.3750000  -0.3750000), wk =   0.1250000
        k(    8) = (   0.1250000   0.3750000  -0.1250000), wk =   0.1250000
        k(    9) = (   0.3750000   0.1250000   0.1250000), wk =   0.1250000
        k(   10) = (   0.3750000   0.1250000   0.3750000), wk =   0.1250000
        k(   11) = (   0.3750000   0.1250000  -0.3750000), wk =   0.1250000
        k(   12) = (   0.3750000   0.1250000  -0.1250000), wk =   0.1250000
        k(   13) = (   0.3750000   0.3750000   0.1250000), wk =   0.1250000
        k(   14) = (   0.3750000   0.3750000   0.3750000), wk =   0.1250000
        k(   15) = (   0.3750000   0.3750000  -0.3750000), wk =   0.1250000
        k(   16) = (   0.3750000   0.3750000  -0.1250000), wk =   0.1250000

     Dense  grid:  6046753 G-vectors     FFT dimensions: ( 192, 320, 216)

     Smooth grid:  1529719 G-vectors     FFT dimensions: ( 120, 200, 135)

     Largest allocated arrays     est. size (Mb)     dimensions
        Kohn-Sham Wavefunctions        10.24 Mb     (    5992,  112)
        NL pseudopotentials            32.18 Mb     (    5992,  352)
        Each V/rho on FFT grid          6.56 Mb     (  430080)
        Each G-vector array             1.44 Mb     (  188961)
        G-vector shells                 1.40 Mb     (  183600)
     Largest temporary arrays     est. size (Mb)     dimensions
        Auxiliary wavefunctions        40.96 Mb     (    5992,  448)
        Each subspace H/S matrix        3.06 Mb     (     448,  448)
        Each <psi_i|beta_j> matrix      0.60 Mb     (     352,  112)
        Arrays for rho mixing          52.50 Mb     (  430080,    8)

     Initial potential from superposition of free atoms

     starting charge  223.99937, renormalised to  224.00000
     Starting wfc are  176 randomized atomic wfcs
     Checking if some PAW data can be deallocated... 
       node    0, deallocated PAW data for type:  2
       node    0, deallocated PAW data for type:  3
       node    1, deallocated PAW data for type:  2
       node    1, deallocated PAW data for type:  3
       node    1, deallocated PAW data for type:  4
       node    2, deallocated PAW data for type:  2
       node    2, deallocated PAW data for type:  3
       node    3, deallocated PAW data for type:  1
       node    3, deallocated PAW data for type:  3
       node    4, deallocated PAW data for type:  1
       node    4, deallocated PAW data for type:  2
       node    4, deallocated PAW data for type:  4
       node    5, deallocated PAW data for type:  1
       node    5, deallocated PAW data for type:  3
       node    6, deallocated PAW data for type:  1
       node    6, deallocated PAW data for type:  2
       node    6, deallocated PAW data for type:  4
       node    7, deallocated PAW data for type:  1
       node    7, deallocated PAW data for type:  2
       node    7, deallocated PAW data for type:  4
       node    8, deallocated PAW data for type:  1
       node    8, deallocated PAW data for type:  3
       node    9, deallocated PAW data for type:  1
       node    9, deallocated PAW data for type:  2
       node    9, deallocated PAW data for type:  4
       node   10, deallocated PAW data for type:  1
       node   10, deallocated PAW data for type:  3
       node   11, deallocated PAW data for type:  2
       node   11, deallocated PAW data for type:  3
       node   12, deallocated PAW data for type:  2
       node   12, deallocated PAW data for type:  3
       node   12, deallocated PAW data for type:  4
       node   13, deallocated PAW data for type:  2
       node   13, deallocated PAW data for type:  3
       node   14, deallocated PAW data for type:  1
       node   14, deallocated PAW data for type:  2
       node   14, deallocated PAW data for type:  4
       node   15, deallocated PAW data for type:  1
       node   15, deallocated PAW data for type:  3
       node   16, deallocated PAW data for type:  1
       node   16, deallocated PAW data for type:  2
       node   16, deallocated PAW data for type:  4
       node   17, deallocated PAW data for type:  1
       node   17, deallocated PAW data for type:  3
       node   18, deallocated PAW data for type:  2
       node   18, deallocated PAW data for type:  3
       node   19, deallocated PAW data for type:  2
       node   19, deallocated PAW data for type:  3
       node   19, deallocated PAW data for type:  4
       node   20, deallocated PAW data for type:  2
       node   20, deallocated PAW data for type:  3
       node   21, deallocated PAW data for type:  1
       node   21, deallocated PAW data for type:  2
       node   21, deallocated PAW data for type:  4
       node   22, deallocated PAW data for type:  1
       node   22, deallocated PAW data for type:  3
       node   23, deallocated PAW data for type:  1
       node   23, deallocated PAW data for type:  2
       node   23, deallocated PAW data for type:  4
       node   24, deallocated PAW data for type:  1
       node   24, deallocated PAW data for type:  3
       node   24, deallocated PAW data for type:  4
       node   25, deallocated PAW data for type:  1
       node   25, deallocated PAW data for type:  2
       node   25, deallocated PAW data for type:  3
       node   26, deallocated PAW data for type:  2
       node   26, deallocated PAW data for type:  3
       node   26, deallocated PAW data for type:  4
       node   27, deallocated PAW data for type:  1
       node   27, deallocated PAW data for type:  2
       node   27, deallocated PAW data for type:  3
       node   28, deallocated PAW data for type:  2
       node   28, deallocated PAW data for type:  3
       node   28, deallocated PAW data for type:  4
       node   29, deallocated PAW data for type:  2
       node   29, deallocated PAW data for type:  3
       node   29, deallocated PAW data for type:  4
       node   30, deallocated PAW data for type:  1
       node   30, deallocated PAW data for type:  2
       node   30, deallocated PAW data for type:  3
       node   31, deallocated PAW data for type:  2
       node   31, deallocated PAW data for type:  3
       node   31, deallocated PAW data for type:  4

     total cpu time spent up to now is      692.0 secs

     per-process dynamical memory:   328.0 Mb

     Self-consistent Calculation

     iteration #  1     ecut=   220.00 Ry     beta=0.70
     Davidson diagonalization with overlap
     ethr =  1.00E-02,  avg # of iterations =  3.0

     total cpu time spent up to now is     2751.4 secs

     total energy              =   -1279.59976970 Ry
     Harris-Foulkes estimate   =   -1283.96374067 Ry
     estimated scf accuracy    <       6.72909222 Ry

     iteration #  2     ecut=   220.00 Ry     beta=0.70
     Davidson diagonalization with overlap
     ethr =  3.00E-03,  avg # of iterations =  4.0

     total cpu time spent up to now is     5217.7 secs

     total energy              =   -1280.27309178 Ry
     Harris-Foulkes estimate   =   -1283.75107018 Ry
     estimated scf accuracy    <       6.99334931 Ry

     iteration #  3     ecut=   220.00 Ry     beta=0.70
     Davidson diagonalization with overlap
     ethr =  3.00E-03,  avg # of iterations =  4.8

     total cpu time spent up to now is     7195.8 secs

     total energy              =   -1281.77340223 Ry
     Harris-Foulkes estimate   =   -1282.00114479 Ry
     estimated scf accuracy    <       0.42035018 Ry

     iteration #  4     ecut=   220.00 Ry     beta=0.70
     Davidson diagonalization with overlap
     ethr =  1.88E-04,  avg # of iterations =  4.9

     total cpu time spent up to now is    10164.6 secs

     total energy              =   -1281.93124171 Ry
     Harris-Foulkes estimate   =   -1282.01420077 Ry
     estimated scf accuracy    <       0.18036340 Ry

     iteration #  5     ecut=   220.00 Ry     beta=0.70
     Davidson diagonalization with overlap
     ethr =  8.05E-05,  avg # of iterations =  4.0

     total cpu time spent up to now is    12929.8 secs

     total energy              =   -1281.96831566 Ry
     Harris-Foulkes estimate   =   -1281.97747574 Ry
     estimated scf accuracy    <       0.02283943 Ry

     iteration #  6     ecut=   220.00 Ry     beta=0.70
     Davidson diagonalization with overlap
     ethr =  1.02E-05,  avg # of iterations =  6.3

     total cpu time spent up to now is    17276.8 secs

     total energy              =   -1281.97143893 Ry
     Harris-Foulkes estimate   =   -1281.97301558 Ry
     estimated scf accuracy    <       0.00362886 Ry

     iteration #  7     ecut=   220.00 Ry     beta=0.70
     Davidson diagonalization with overlap
     ethr =  1.62E-06,  avg # of iterations =  4.5

     total cpu time spent up to now is    19511.1 secs

     total energy              =   -1281.97294683 Ry
     Harris-Foulkes estimate   =   -1281.97342310 Ry
     estimated scf accuracy    <       0.00123160 Ry

     iteration #  8     ecut=   220.00 Ry     beta=0.70
     Davidson diagonalization with overlap
     ethr =  5.50E-07,  avg # of iterations =  6.7

     total cpu time spent up to now is    21031.7 secs

     total energy              =   -1281.97308599 Ry
     Harris-Foulkes estimate   =   -1281.97314811 Ry
     estimated scf accuracy    <       0.00017411 Ry

     iteration #  9     ecut=   220.00 Ry     beta=0.70
     Davidson diagonalization with overlap
     ethr =  7.77E-08,  avg # of iterations =  4.0

     total cpu time spent up to now is    23593.2 secs

     total energy              =   -1281.97318367 Ry
     Harris-Foulkes estimate   =   -1281.97320847 Ry
     estimated scf accuracy    <       0.00008274 Ry

     iteration # 10     ecut=   220.00 Ry     beta=0.70
     Davidson diagonalization with overlap
     ethr =  3.69E-08,  avg # of iterations =  1.0

     total cpu time spent up to now is    24834.3 secs

     total energy              =   -1281.97316971 Ry
     Harris-Foulkes estimate   =   -1281.97318621 Ry
     estimated scf accuracy    <       0.00004043 Ry

     iteration # 11     ecut=   220.00 Ry     beta=0.70
     Davidson diagonalization with overlap
     ethr =  1.80E-08,  avg # of iterations =  4.0

     total cpu time spent up to now is    27347.3 secs

     total energy              =   -1281.97319125 Ry
     Harris-Foulkes estimate   =   -1281.97320212 Ry
     estimated scf accuracy    <       0.00005178 Ry

     iteration # 12     ecut=   220.00 Ry     beta=0.70
     Davidson diagonalization with overlap
     ethr =  1.80E-08,  avg # of iterations =  1.0

     total cpu time spent up to now is    28856.7 secs

     total energy              =   -1281.97318264 Ry
     Harris-Foulkes estimate   =   -1281.97319180 Ry
     estimated scf accuracy    <       0.00003390 Ry

     iteration # 13     ecut=   220.00 Ry     beta=0.70
     Davidson diagonalization with overlap

     Program stopped by user request
     Calculation stopped in k-point loop, point #    16
     Calculation stopped in scf loop at iteration #    12

     Writing output data file scf.pbe-ec-220-kp444.HMX-792827-nofor.nostress.save

     init_run     :    533.67s CPU    685.76s WALL (       1 calls)
     electrons    :  20682.95s CPU  30130.35s WALL (       1 calls)

     Called by init_run:
     wfcinit      :    357.54s CPU    440.20s WALL (       1 calls)
     potinit      :     50.36s CPU     56.35s WALL (       1 calls)

     Called by electrons:
     c_bands      :  18457.63s CPU  26879.37s WALL (      13 calls)
     sum_band     :   1851.73s CPU   2814.66s WALL (      12 calls)
     v_of_rho     :     57.81s CPU     77.67s WALL (      13 calls)
     v_h          :      5.17s CPU      5.93s WALL (      13 calls)
     v_xc         :     52.64s CPU     71.74s WALL (      13 calls)
     newd         :    264.09s CPU    477.87s WALL (      13 calls)
     PAW_pot      :      4.85s CPU      5.98s WALL (      13 calls)
     mix_rho      :     33.43s CPU     45.03s WALL (      12 calls)

     Called by c_bands:
     init_us_2    :    398.38s CPU    443.07s WALL (     416 calls)
     cegterg      :  17678.42s CPU  25669.11s WALL (     208 calls)

     Called by sum_band:
     sum_band:bec :      0.61s CPU      0.67s WALL (     192 calls)
     addusdens    :    324.33s CPU    648.61s WALL (      12 calls)

     Called by *egterg:
     h_psi        :  10029.07s CPU  15289.69s WALL (    1075 calls)
     s_psi        :    793.75s CPU    745.38s WALL (    1075 calls)
     g_psi        :     15.04s CPU     23.79s WALL (     851 calls)
     cdiaghg      :    409.35s CPU    604.80s WALL (    1059 calls)
     cegterg:over :   1931.87s CPU   2204.08s WALL (     851 calls)
     cegterg:upda :   3120.82s CPU   2773.33s WALL (     851 calls)
     cegterg:last :    648.40s CPU    920.62s WALL (     208 calls)

     Called by h_psi:
     h_psi:vloc   :   4253.03s CPU   8613.13s WALL (    1075 calls)
     h_psi:vnl    :   5288.87s CPU   6131.27s WALL (    1075 calls)
     add_vuspsi   :   1093.76s CPU   1385.40s WALL (    1075 calls)

     General routines
     calbec       :   4623.97s CPU   5270.54s WALL (    1267 calls)
     fft          :     51.65s CPU     93.45s WALL (     206 calls)
     ffts         :      3.17s CPU      4.58s WALL (      25 calls)
     fftw         :   3104.73s CPU   7794.35s WALL (  165514 calls)
     interpolate  :     33.37s CPU     43.16s WALL (      25 calls)
     davcio       :      2.28s CPU    169.92s WALL (      34 calls)

     Parallel routines
     fft_scatter  :   1776.30s CPU   6383.66s WALL (  165745 calls)

     PAW routines
     PAW_pot      :      4.85s CPU      5.98s WALL (      13 calls)
     PAW_symme    :      0.15s CPU      0.47s WALL (      25 calls)

     PWSCF        :     5h53m CPU        8h36m WALL


   This run was terminated on:  21:34: 6  22May2016            

=------------------------------------------------------------------------------=
   JOB DONE.
=------------------------------------------------------------------------------=

     Program PWSCF v.5.3.0 (svn rev. 11974) starts on 22May2016 at 21:37: 6 

     This program is part of the open-source Quantum ESPRESSO suite
     for quantum simulation of materials; please cite
         "P. Giannozzi et al., J. Phys.:Condens. Matter 21 395502 (2009);
          URL http://www.quantum-espresso.org", 
     in publications or presentations arising from this work. More details at
     http://www.quantum-espresso.org/quote

     Parallel version (MPI), running on    32 processors
     R & G space division:  proc/nbgrp/npool/nimage =      32
     Waiting for input...
     Reading input from standard input
Warning: card    &IONS ignored
Warning: card TRUST_RADIUS_MAX=0.2 ignored
Warning: card / ignored
Warning: card     &CELL ignored
Warning: card CELL_DYNAMICS='BFGS' ignored
Warning: card / ignored

     Current dimensions of program PWSCF are:
     Max number of different atomic species (ntypx) = 10
     Max number of k-points (npk) =  40000
     Max angular momentum in pseudopotentials (lmaxx) =  3

     Atomic positions and unit cell read from directory:
     ./scratch/scf.pbe-ec-220-kp444.HMX-792827-nofor.nostress.save/

               file N.pbe-n-kjpaw_psl.1.0.0.UPF: wavefunction(s)  2S renormalized
               file C.pbe-n-kjpaw_psl.1.0.0.UPF: wavefunction(s)  2S 2P renormalized
               file H.pbe-kjpaw_psl.1.0.0.UPF: wavefunction(s)  1S renormalized
               file O.pbe-n-kjpaw_psl.1.0.0.UPF: wavefunction(s)  2S 2P renormalized

     Subspace diagonalization in iterative solution of the eigenvalue problem:
     a serial algorithm will be used


     Parallelization info
     --------------------
     sticks:   dense  smooth     PW     G-vecs:    dense   smooth      PW
     Min        1401     560    146               188960    47766    6361
     Max        1402     561    147               188962    47835    6362
     Sum       44845   17949   4683              6046753  1529719  203559



     bravais-lattice index     =            0
     lattice parameter (alat)  =       1.8897  a.u.
     unit-cell volume          =    3470.0091 (a.u.)^3
     number of atoms/cell      =           56
     number of atomic types    =            4
     number of electrons       =       224.00
     number of Kohn-Sham states=          112
     kinetic-energy cutoff     =     220.0000  Ry
     charge density cutoff     =    2200.0000  Ry
     convergence threshold     =      1.0E-06
     mixing beta               =       0.7000
     number of iterations used =            8  plain     mixing
     Exchange-correlation      =  SLA  PW   PBX  PBC ( 1  4  3  4 0 0)

     celldm(1)=   1.889726  celldm(2)=   0.000000  celldm(3)=   0.000000
     celldm(4)=   0.000000  celldm(5)=   0.000000  celldm(6)=   0.000000

     crystal axes: (cart. coord. in units of alat)
               a(1) = (   6.528900   0.000000   0.000000 )  
               a(2) = (   0.000000  10.987500   0.000000 )  
               a(3) = (  -1.604329   0.000000   7.167954 )  

     reciprocal axes: (cart. coord. in units 2 pi/alat)
               b(1) = (  0.153165 -0.000000  0.034281 )  
               b(2) = (  0.000000  0.091013 -0.000000 )  
               b(3) = (  0.000000  0.000000  0.139510 )  


     PseudoPot. # 1 for  N read from file:
     /users/majewski/.data/PSEUDOPOTENTIALS/N.pbe-n-kjpaw_psl.1.0.0.UPF
     MD5 check sum: c21df8f53e59d08c3548513d559cdda6
     Pseudo is Projector augmented-wave + core cor, Zval =  5.0
     Generated using "atomic" code by A. Dal Corso  v.5.3.0 svn rev. 11974
     Shape of augmentation charge: PSQ
     Using radial grid of 1085 points,  4 beta functions with: 
                l(1) =   0
                l(2) =   0
                l(3) =   1
                l(4) =   1
     Q(r) pseudized with 0 coefficients 


     PseudoPot. # 2 for  C read from file:
     /users/majewski/.data/PSEUDOPOTENTIALS/C.pbe-n-kjpaw_psl.1.0.0.UPF
     MD5 check sum: 2ba8448e293caca687844dde9a1b88a8
     Pseudo is Projector augmented-wave + core cor, Zval =  4.0
     Generated using "atomic" code by A. Dal Corso  v.5.3.0 svn rev. 11974
     Shape of augmentation charge: PSQ
     Using radial grid of 1073 points,  4 beta functions with: 
                l(1) =   0
                l(2) =   0
                l(3) =   1
                l(4) =   1
     Q(r) pseudized with 0 coefficients 


     PseudoPot. # 3 for  H read from file:
     /users/majewski/.data/PSEUDOPOTENTIALS/H.pbe-kjpaw_psl.1.0.0.UPF
     MD5 check sum: bc0feb48a24907a0b97fa6ee2d589a29
     Pseudo is Projector augmented-wave, Zval =  1.0
     Generated using "atomic" code by A. Dal Corso  v.5.3.0 svn rev. 11974
     Shape of augmentation charge: PSQ
     Using radial grid of  929 points,  2 beta functions with: 
                l(1) =   0
                l(2) =   0
     Q(r) pseudized with 0 coefficients 


     PseudoPot. # 4 for  O read from file:
     /users/majewski/.data/PSEUDOPOTENTIALS/O.pbe-n-kjpaw_psl.1.0.0.UPF
     MD5 check sum: 9c0ade6c043cf4a781bde3908a3a8206
     Pseudo is Projector augmented-wave + core cor, Zval =  6.0
     Generated using "atomic" code by A. Dal Corso  v.5.3.0 svn rev. 11974
     Shape of augmentation charge: PSQ
     Using radial grid of 1095 points,  4 beta functions with: 
                l(1) =   0
                l(2) =   0
                l(3) =   1
                l(4) =   1
     Q(r) pseudized with 0 coefficients 


     atomic species   valence    mass     pseudopotential
        N              5.00    14.00670      N( 1.00)
        C              4.00    12.01100      C( 1.00)
        H              1.00     1.00790      H( 1.00)
        O              6.00    15.99940      O( 1.00)

      4 Sym. Ops., with inversion, found ( 2 have fractional translation)


                                    s                        frac. trans.

      isym =  1     identity                                     

 cryst.   s( 1) = (     1          0          0      )
                  (     0          1          0      )
                  (     0          0          1      )

 cart.    s( 1) = (  1.0000000  0.0000000 -0.0000000 )
                  (  0.0000000  1.0000000  0.0000000 )
                  (  0.0000000  0.0000000  1.0000000 )


      isym =  2     180 deg rotation - cart. axis [0,1,0]        

 cryst.   s( 2) = (    -1          0          0      )    f =(  0.5000000 )
                  (     0          1          0      )       (  0.5000000 )
                  (     0          0         -1      )       ( -0.5000000 )

 cart.    s( 2) = ( -1.0000000  0.0000000  0.0000000 )    f =(  4.0666146 )
                  (  0.0000000  1.0000000  0.0000000 )       (  5.4937500 )
                  (  0.0000000  0.0000000 -1.0000000 )       ( -3.5839768 )


      isym =  3     inversion                                    

 cryst.   s( 3) = (    -1          0          0      )
                  (     0         -1          0      )
                  (     0          0         -1      )

 cart.    s( 3) = ( -1.0000000  0.0000000  0.0000000 )
                  (  0.0000000 -1.0000000  0.0000000 )
                  (  0.0000000  0.0000000 -1.0000000 )


      isym =  4     inv. 180 deg rotation - cart. axis [0,1,0]   

 cryst.   s( 4) = (     1          0          0      )    f =(  0.5000000 )
                  (     0         -1          0      )       (  0.5000000 )
                  (     0          0          1      )       ( -0.5000000 )

 cart.    s( 4) = (  1.0000000  0.0000000 -0.0000000 )    f =(  4.0666146 )
                  (  0.0000000 -1.0000000  0.0000000 )       (  5.4937500 )
                  (  0.0000000  0.0000000  1.0000000 )       ( -3.5839768 )


   Cartesian axes

     site n.     atom                  positions (alat units)
         1           N   tau(   1) = (  -0.8614487   6.8444434   3.3109495  )
         2           O   tau(   2) = (   1.0746241   7.9096815   3.1371266  )
         3           N   tau(   3) = (   0.0618658   7.7221249   3.8135664  )
         4           N   tau(   4) = (  -2.0647129   5.7697560   5.0587833  )
         5           O   tau(   5) = (  -3.2542440   4.7069351   6.6110753  )
         6           N   tau(   6) = (  -3.2426279   5.5114399   5.6869828  )
         7           O   tau(   7) = (  -0.1753723   8.2085415   4.8971459  )
         8           C   tau(   8) = (  -2.1300386   6.7612680   3.9714764  )
         9           H   tau(   9) = (  -2.8138762   6.5024025   3.3338152  )
        10           H   tau(  10) = (  -2.3673225   7.6286213   4.3344616  )
        11           O   tau(  11) = (  -4.2140784   6.1608011   5.2929603  )
        12           C   tau(  12) = (  -0.5990533   6.2146399   2.0230832  )
        13           H   tau(  13) = (  -1.3903515   5.7475613   1.7138577  )
        14           H   tau(  14) = (  -0.3482788   6.8660888   1.3518761  )
        15           H   tau(  15) = (   3.7183358  -1.3723387  -2.2321008  )
        16           H   tau(  16) = (   2.6762631  -0.2538112  -1.8701191  )
        17           C   tau(  17) = (   3.4675614  -0.7208899  -1.5608936  )
        18           O   tau(  18) = (  -0.1474638  -0.6670511   1.7089835  )
        19           H   tau(  19) = (   1.6992921  -2.1348713   0.7504847  )
        20           H   tau(  20) = (   1.2527385  -1.0086525  -0.2501616  )
        21           C   tau(  21) = (   1.9365761  -1.2675180   0.3874996  )
        22           O   tau(  22) = (   3.8912424  -2.7147915   1.3131691  )
        23           N   tau(  23) = (   0.8239867  -0.0176899   2.1030059  )
        24           O   tau(  24) = (   0.8123707   0.7868149   3.0270985  )
        25           N   tau(  25) = (   2.0019018  -0.2760060   1.4748065  )
        26           N   tau(  26) = (   4.1284804  -2.2283749   0.2295896  )
        27           O   tau(  27) = (   5.1412387  -2.4159315  -0.4468502  )
        28           N   tau(  28) = (   3.2051660  -1.3506934  -0.2730274  )
        29           H   tau(  29) = (  -1.2560505   4.1214113   5.8160776  )
        30           H   tau(  30) = (  -0.2139778   5.2399388   5.4540959  )
        31           C   tau(  31) = (  -1.0052760   4.7728601   5.1448704  )
        32           O   tau(  32) = (   2.6097491   4.8266989   1.8749933  )
        33           H   tau(  33) = (   0.7629932   3.3588788   2.8334921  )
        34           H   tau(  34) = (   1.2095469   4.4850975   3.8341384  )
        35           C   tau(  35) = (   0.5257093   4.2262320   3.1964773  )
        36           O   tau(  36) = (  -1.4289570   2.7789585   2.2708077  )
        37           N   tau(  37) = (   1.6382987   5.4760601   1.4809709  )
        38           O   tau(  38) = (   1.6499147   6.2805649   0.5568783  )
        39           N   tau(  39) = (   0.4603836   5.2177440   2.1091704  )
        40           N   tau(  40) = (  -1.6661950   3.2653751   3.3543873  )
        41           O   tau(  41) = (  -2.6789534   3.0778185   4.0308271  )
        42           N   tau(  42) = (  -0.7428806   4.1430566   3.8570042  )
        43           H   tau(  43) = (   2.8105642   1.3723387   2.2321008  )
        44           H   tau(  44) = (   3.8526369   0.2538112   1.8701191  )
        45           C   tau(  45) = (   3.0613386   0.7208899   1.5608936  )
        46           O   tau(  46) = (   6.6763638   0.6670511  -1.7089835  )
        47           H   tau(  47) = (   4.8296079   2.1348713  -0.7504847  )
        48           H   tau(  48) = (   5.2761615   1.0086525   0.2501616  )
        49           C   tau(  49) = (   4.5923239   1.2675180  -0.3874996  )
        50           O   tau(  50) = (   2.6376576   2.7147915  -1.3131691  )
        51           N   tau(  51) = (   5.7049133   0.0176899  -2.1030059  )
        52           O   tau(  52) = (   5.7165293  -0.7868149  -3.0270985  )
        53           N   tau(  53) = (   4.5269982   0.2760060  -1.4748065  )
        54           N   tau(  54) = (   2.4004196   2.2283749  -0.2295896  )
        55           O   tau(  55) = (   1.3876613   2.4159315   0.4468502  )
        56           N   tau(  56) = (   3.3237340   1.3506934   0.2730274  )

   Crystallographic axes

     site n.     atom                  positions (cryst. coord.)
         1           N   tau(   1) = ( -0.0184400  0.6229300  0.4619100  )
         2           O   tau(   2) = (  0.2721400  0.7198800  0.4376600  )
         3           N   tau(   3) = (  0.1402100  0.7028100  0.5320300  )
         4           N   tau(   4) = ( -0.1428200  0.5251200  0.7057500  )
         5           O   tau(   5) = ( -0.2718000  0.4283900  0.9223100  )
         6           N   tau(   6) = ( -0.3017000  0.5016100  0.7933900  )
         7           O   tau(   7) = (  0.1410200  0.7470800  0.6832000  )
         8           C   tau(   8) = ( -0.1901000  0.6153600  0.5540600  )
         9           H   tau(   9) = ( -0.3167000  0.5918000  0.4651000  )
        10           H   tau(  10) = ( -0.2140000  0.6943000  0.6047000  )
        11           O   tau(  11) = ( -0.4640000  0.5607100  0.7384200  )
        12           C   tau(  12) = ( -0.0224000  0.5656100  0.2822400  )
        13           H   tau(  13) = ( -0.1542000  0.5231000  0.2391000  )
        14           H   tau(  14) = ( -0.0070000  0.6249000  0.1886000  )
        15           H   tau(  15) = (  0.4930000 -0.1249000 -0.3114000  )
        16           H   tau(  16) = (  0.3458000 -0.0231000 -0.2609000  )
        17           C   tau(  17) = (  0.4776000 -0.0656100 -0.2177600  )
        18           O   tau(  18) = (  0.0360000 -0.0607100  0.2384200  )
        19           H   tau(  19) = (  0.2860000 -0.1943000  0.1047000  )
        20           H   tau(  20) = (  0.1833000 -0.0918000 -0.0349000  )
        21           C   tau(  21) = (  0.3099000 -0.1153600  0.0540600  )
        22           O   tau(  22) = (  0.6410200 -0.2470800  0.1832000  )
        23           N   tau(  23) = (  0.1983000 -0.0016100  0.2933900  )
        24           O   tau(  24) = (  0.2282000  0.0716100  0.4223100  )
        25           N   tau(  25) = (  0.3571800 -0.0251200  0.2057500  )
        26           N   tau(  26) = (  0.6402100 -0.2028100  0.0320300  )
        27           O   tau(  27) = (  0.7721400 -0.2198800 -0.0623400  )
        28           N   tau(  28) = (  0.4815600 -0.1229300 -0.0380900  )
        29           H   tau(  29) = (  0.0070000  0.3751000  0.8114000  )
        30           H   tau(  30) = (  0.1542000  0.4769000  0.7609000  )
        31           C   tau(  31) = (  0.0224000  0.4343900  0.7177600  )
        32           O   tau(  32) = (  0.4640000  0.4392900  0.2615800  )
        33           H   tau(  33) = (  0.2140000  0.3057000  0.3953000  )
        34           H   tau(  34) = (  0.3167000  0.4082000  0.5349000  )
        35           C   tau(  35) = (  0.1901000  0.3846400  0.4459400  )
        36           O   tau(  36) = ( -0.1410200  0.2529200  0.3168000  )
        37           N   tau(  37) = (  0.3017000  0.4983900  0.2066100  )
        38           O   tau(  38) = (  0.2718000  0.5716100  0.0776900  )
        39           N   tau(  39) = (  0.1428200  0.4748800  0.2942500  )
        40           N   tau(  40) = ( -0.1402100  0.2971900  0.4679700  )
        41           O   tau(  41) = ( -0.2721400  0.2801200  0.5623400  )
        42           N   tau(  42) = (  0.0184400  0.3770700  0.5380900  )
        43           H   tau(  43) = (  0.5070000  0.1249000  0.3114000  )
        44           H   tau(  44) = (  0.6542000  0.0231000  0.2609000  )
        45           C   tau(  45) = (  0.5224000  0.0656100  0.2177600  )
        46           O   tau(  46) = (  0.9640000  0.0607100 -0.2384200  )
        47           H   tau(  47) = (  0.7140000  0.1943000 -0.1047000  )
        48           H   tau(  48) = (  0.8167000  0.0918000  0.0349000  )
        49           C   tau(  49) = (  0.6901000  0.1153600 -0.0540600  )
        50           O   tau(  50) = (  0.3589800  0.2470800 -0.1832000  )
        51           N   tau(  51) = (  0.8017000  0.0016100 -0.2933900  )
        52           O   tau(  52) = (  0.7718000 -0.0716100 -0.4223100  )
        53           N   tau(  53) = (  0.6428200  0.0251200 -0.2057500  )
        54           N   tau(  54) = (  0.3597900  0.2028100 -0.0320300  )
        55           O   tau(  55) = (  0.2278600  0.2198800  0.0623400  )
        56           N   tau(  56) = (  0.5184400  0.1229300  0.0380900  )

     number of k points=    16
                       cart. coord. in units 2pi/alat
        k(    1) = (   0.0191456   0.0113766   0.0217239), wk =   0.1250000
        k(    2) = (   0.0191456   0.0113766   0.0566014), wk =   0.1250000
        k(    3) = (   0.0191456   0.0113766  -0.0480310), wk =   0.1250000
        k(    4) = (   0.0191456   0.0113766  -0.0131536), wk =   0.1250000
        k(    5) = (   0.0191456   0.0341297   0.0217239), wk =   0.1250000
        k(    6) = (   0.0191456   0.0341297   0.0566014), wk =   0.1250000
        k(    7) = (   0.0191456   0.0341297  -0.0480310), wk =   0.1250000
        k(    8) = (   0.0191456   0.0341297  -0.0131536), wk =   0.1250000
        k(    9) = (   0.0574369   0.0113766   0.0302942), wk =   0.1250000
        k(   10) = (   0.0574369   0.0113766   0.0651717), wk =   0.1250000
        k(   11) = (   0.0574369   0.0113766  -0.0394607), wk =   0.1250000
        k(   12) = (   0.0574369   0.0113766  -0.0045832), wk =   0.1250000
        k(   13) = (   0.0574369   0.0341297   0.0302942), wk =   0.1250000
        k(   14) = (   0.0574369   0.0341297   0.0651717), wk =   0.1250000
        k(   15) = (   0.0574369   0.0341297  -0.0394607), wk =   0.1250000
        k(   16) = (   0.0574369   0.0341297  -0.0045832), wk =   0.1250000

                       cryst. coord.
        k(    1) = (   0.1250000   0.1250000   0.1250000), wk =   0.1250000
        k(    2) = (   0.1250000   0.1250000   0.3750000), wk =   0.1250000
        k(    3) = (   0.1250000   0.1250000  -0.3750000), wk =   0.1250000
        k(    4) = (   0.1250000   0.1250000  -0.1250000), wk =   0.1250000
        k(    5) = (   0.1250000   0.3750000   0.1250000), wk =   0.1250000
        k(    6) = (   0.1250000   0.3750000   0.3750000), wk =   0.1250000
        k(    7) = (   0.1250000   0.3750000  -0.3750000), wk =   0.1250000
        k(    8) = (   0.1250000   0.3750000  -0.1250000), wk =   0.1250000
        k(    9) = (   0.3750000   0.1250000   0.1250000), wk =   0.1250000
        k(   10) = (   0.3750000   0.1250000   0.3750000), wk =   0.1250000
        k(   11) = (   0.3750000   0.1250000  -0.3750000), wk =   0.1250000
        k(   12) = (   0.3750000   0.1250000  -0.1250000), wk =   0.1250000
        k(   13) = (   0.3750000   0.3750000   0.1250000), wk =   0.1250000
        k(   14) = (   0.3750000   0.3750000   0.3750000), wk =   0.1250000
        k(   15) = (   0.3750000   0.3750000  -0.3750000), wk =   0.1250000
        k(   16) = (   0.3750000   0.3750000  -0.1250000), wk =   0.1250000

     Dense  grid:  6046753 G-vectors     FFT dimensions: ( 192, 320, 216)

     Smooth grid:  1529719 G-vectors     FFT dimensions: ( 120, 200, 135)

     Largest allocated arrays     est. size (Mb)     dimensions
        Kohn-Sham Wavefunctions        10.24 Mb     (    5992,  112)
        NL pseudopotentials            32.18 Mb     (    5992,  352)
        Each V/rho on FFT grid          6.56 Mb     (  430080)
        Each G-vector array             1.44 Mb     (  188961)
        G-vector shells                 1.40 Mb     (  183600)
     Largest temporary arrays     est. size (Mb)     dimensions
        Auxiliary wavefunctions        40.96 Mb     (    5992,  448)
        Each subspace H/S matrix        3.06 Mb     (     448,  448)
        Each <psi_i|beta_j> matrix      0.60 Mb     (     352,  112)
        Arrays for rho mixing          52.50 Mb     (  430080,    8)

     The initial density is read from file :
     ./scratch/scf.pbe-ec-220-kp444.HMX-792827-nofor.nostress.save/charge-density.dat

     Starting wfc from file
     Checking if some PAW data can be deallocated... 
       node    0, deallocated PAW data for type:  2
       node    0, deallocated PAW data for type:  3
       node    1, deallocated PAW data for type:  2
       node    1, deallocated PAW data for type:  3
       node    1, deallocated PAW data for type:  4
       node    2, deallocated PAW data for type:  2
       node    2, deallocated PAW data for type:  3
       node    3, deallocated PAW data for type:  1
       node    3, deallocated PAW data for type:  3
       node    4, deallocated PAW data for type:  1
       node    4, deallocated PAW data for type:  2
       node    4, deallocated PAW data for type:  4
       node    5, deallocated PAW data for type:  1
       node    5, deallocated PAW data for type:  3
       node    6, deallocated PAW data for type:  1
       node    6, deallocated PAW data for type:  2
       node    6, deallocated PAW data for type:  4
       node    7, deallocated PAW data for type:  1
       node    7, deallocated PAW data for type:  2
       node    7, deallocated PAW data for type:  4
       node    8, deallocated PAW data for type:  1
       node    8, deallocated PAW data for type:  3
       node    9, deallocated PAW data for type:  1
       node    9, deallocated PAW data for type:  2
       node    9, deallocated PAW data for type:  4
       node   10, deallocated PAW data for type:  1
       node   10, deallocated PAW data for type:  3
       node   11, deallocated PAW data for type:  2
       node   11, deallocated PAW data for type:  3
       node   12, deallocated PAW data for type:  2
       node   12, deallocated PAW data for type:  3
       node   12, deallocated PAW data for type:  4
       node   13, deallocated PAW data for type:  2
       node   13, deallocated PAW data for type:  3
       node   14, deallocated PAW data for type:  1
       node   14, deallocated PAW data for type:  2
       node   14, deallocated PAW data for type:  4
       node   15, deallocated PAW data for type:  1
       node   15, deallocated PAW data for type:  3
       node   16, deallocated PAW data for type:  1
       node   16, deallocated PAW data for type:  2
       node   16, deallocated PAW data for type:  4
       node   17, deallocated PAW data for type:  1
       node   17, deallocated PAW data for type:  3
       node   18, deallocated PAW data for type:  2
       node   18, deallocated PAW data for type:  3
       node   19, deallocated PAW data for type:  2
       node   19, deallocated PAW data for type:  3
       node   19, deallocated PAW data for type:  4
       node   20, deallocated PAW data for type:  2
       node   20, deallocated PAW data for type:  3
       node   21, deallocated PAW data for type:  1
       node   21, deallocated PAW data for type:  2
       node   21, deallocated PAW data for type:  4
       node   22, deallocated PAW data for type:  1
       node   22, deallocated PAW data for type:  3
       node   23, deallocated PAW data for type:  1
       node   23, deallocated PAW data for type:  2
       node   23, deallocated PAW data for type:  4
       node   24, deallocated PAW data for type:  1
       node   24, deallocated PAW data for type:  3
       node   24, deallocated PAW data for type:  4
       node   25, deallocated PAW data for type:  1
       node   25, deallocated PAW data for type:  2
       node   25, deallocated PAW data for type:  3
       node   26, deallocated PAW data for type:  2
       node   26, deallocated PAW data for type:  3
       node   26, deallocated PAW data for type:  4
       node   27, deallocated PAW data for type:  1
       node   27, deallocated PAW data for type:  2
       node   27, deallocated PAW data for type:  3
       node   28, deallocated PAW data for type:  2
       node   28, deallocated PAW data for type:  3
       node   28, deallocated PAW data for type:  4
       node   29, deallocated PAW data for type:  2
       node   29, deallocated PAW data for type:  3
       node   29, deallocated PAW data for type:  4
       node   30, deallocated PAW data for type:  1
       node   30, deallocated PAW data for type:  2
       node   30, deallocated PAW data for type:  3
       node   31, deallocated PAW data for type:  2
       node   31, deallocated PAW data for type:  3
       node   31, deallocated PAW data for type:  4
     Calculation restarted from scf iteration #    13

     total cpu time spent up to now is      224.7 secs

     per-process dynamical memory:   174.3 Mb

     Self-consistent Calculation

     iteration # 13     ecut=   220.00 Ry     beta=0.70
     Calculation restarted from end of k-point loop
     Davidson diagonalization with overlap
     ethr =  1.51E-08,  avg # of iterations =  5.0

     total cpu time spent up to now is      515.3 secs

     total energy              =   -1281.97319134 Ry
     Harris-Foulkes estimate   =   -1281.97319320 Ry
     estimated scf accuracy    <       0.00000647 Ry

     iteration # 14     ecut=   220.00 Ry     beta=0.70
     Davidson diagonalization with overlap
     ethr =  2.89E-09,  avg # of iterations =  1.0

     total cpu time spent up to now is     1066.4 secs

     total energy              =   -1281.97319049 Ry
     Harris-Foulkes estimate   =   -1281.97319151 Ry
     estimated scf accuracy    <       0.00000347 Ry

     iteration # 15     ecut=   220.00 Ry     beta=0.70
     Davidson diagonalization with overlap
     ethr =  1.55E-09,  avg # of iterations =  5.0

     total cpu time spent up to now is     1897.0 secs

     total energy              =   -1281.97319202 Ry
     Harris-Foulkes estimate   =   -1281.97319220 Ry
     estimated scf accuracy    <       0.00000101 Ry

     iteration # 16     ecut=   220.00 Ry     beta=0.70
     Davidson diagonalization with overlap
     ethr =  4.49E-10,  avg # of iterations =  1.0

     total cpu time spent up to now is     2405.1 secs

     End of self-consistent calculation

          k = 0.0191 0.0114 0.0217 (191175 PWs)   bands (ev):

   -24.0557 -24.0372 -24.0281 -24.0182 -23.6326 -23.6244 -23.6207 -23.6199
   -19.2311 -19.2259 -19.2190 -19.2074 -18.8193 -18.8187 -18.8150 -18.8143
   -18.2943 -18.2700 -17.2873 -17.2405 -17.1002 -17.0997 -16.1024 -16.0899
   -12.1497 -12.1469 -12.1347 -12.0213 -11.9712 -11.9010 -11.8458 -11.8243
    -8.9235  -8.8832  -8.3215  -8.2855  -7.6006  -7.5605  -7.4880  -7.4865
    -6.8775  -6.7710  -6.6203  -6.5678  -6.5578  -6.4169  -6.3684  -6.3092
    -6.1623  -6.1397  -6.0998  -5.9622  -5.9346  -5.8616  -5.7792  -5.7401
    -5.7035  -5.6781  -5.5894  -5.5669  -5.1459  -5.0373  -4.9507  -4.9346
    -4.5130  -4.4751  -4.4444  -4.4146  -4.2516  -4.1642  -3.8792  -3.8701
    -3.7164  -3.6390  -3.5750  -3.5514  -3.1898  -3.1534  -3.1087  -3.0856
    -0.8028  -0.7918  -0.3490  -0.3390  -0.2518  -0.1873  -0.1252  -0.0939
    -0.0432  -0.0095   0.1738   0.2032   0.2158   0.2473   0.3734   0.3877
     0.4345   0.4529   0.6147   0.6660   0.7477   0.8106   0.8568   0.8834
     0.9001   1.0181   1.0582   1.1333   1.2003   1.3294   1.3672   1.3849

     occupation numbers 
     1.0000   1.0000   1.0000   1.0000   1.0000   1.0000   1.0000   1.0000
     1.0000   1.0000   1.0000   1.0000   1.0000   1.0000   1.0000   1.0000
     1.0000   1.0000   1.0000   1.0000   1.0000   1.0000   1.0000   1.0000
     1.0000   1.0000   1.0000   1.0000   1.0000   1.0000   1.0000   1.0000
     1.0000   1.0000   1.0000   1.0000   1.0000   1.0000   1.0000   1.0000
     1.0000   1.0000   1.0000   1.0000   1.0000   1.0000   1.0000   1.0000
     1.0000   1.0000   1.0000   1.0000   1.0000   1.0000   1.0000   1.0000
     1.0000   1.0000   1.0000   1.0000   1.0000   1.0000   1.0000   1.0000
     1.0000   1.0000   1.0000   1.0000   1.0000   1.0000   1.0000   1.0000
     1.0000   1.0000   1.0000   1.0000   1.0000   1.0000   1.0000   1.0000
     1.0000   1.0000   1.0000   1.0000   1.0000   1.0000   1.0000   1.0000
     1.0000   1.0000   1.0000   1.0000   1.0000   1.0000   1.0000   1.0000
     1.0000   1.0000   1.0000   1.0000   1.0000   1.0000   1.0000   1.0000
     1.0000   1.0000   1.0000   1.0000   1.0000   1.0000   1.0000   1.0000

          k = 0.0191 0.0114 0.0566 (191144 PWs)   bands (ev):

   -24.0486 -24.0422 -24.0244 -24.0231 -23.6318 -23.6288 -23.6202 -23.6178
   -19.2289 -19.2243 -19.2199 -19.2113 -18.8249 -18.8243 -18.8103 -18.8096
   -18.2834 -18.2829 -17.2654 -17.2626 -17.0959 -17.0931 -16.0986 -16.0969
   -12.1587 -12.1582 -12.0816 -12.0619 -11.9306 -11.9214 -11.8541 -11.8448
    -8.9020  -8.8666  -8.3028  -8.2780  -7.6152  -7.5653  -7.4672  -7.3971
    -6.9219  -6.7988  -6.6254  -6.6066  -6.5724  -6.4391  -6.3902  -6.3726
    -6.2342  -6.2084  -5.9784  -5.9450  -5.9270  -5.8456  -5.8258  -5.7932
    -5.7520  -5.7079  -5.5086  -5.4731  -5.1506  -5.0774  -4.9458  -4.9067
    -4.4424  -4.4340  -4.4211  -4.3372  -4.1760  -4.1498  -3.9809  -3.9634
    -3.7143  -3.6817  -3.5388  -3.5272  -3.2115  -3.2066  -3.0896  -3.0628
    -0.7708  -0.7314  -0.3596  -0.3469  -0.2524  -0.2059  -0.1673  -0.1208
    -0.0965  -0.0436   0.0641   0.1295   0.2415   0.2883   0.3441   0.3566
     0.5369   0.5948   0.6351   0.6746   0.7669   0.7771   0.8153   0.8624
     0.9743   1.0189   1.0912   1.1223   1.2226   1.2908   1.3666   1.3825

     occupation numbers 
     1.0000   1.0000   1.0000   1.0000   1.0000   1.0000   1.0000   1.0000
     1.0000   1.0000   1.0000   1.0000   1.0000   1.0000   1.0000   1.0000
     1.0000   1.0000   1.0000   1.0000   1.0000   1.0000   1.0000   1.0000
     1.0000   1.0000   1.0000   1.0000   1.0000   1.0000   1.0000   1.0000
     1.0000   1.0000   1.0000   1.0000   1.0000   1.0000   1.0000   1.0000
     1.0000   1.0000   1.0000   1.0000   1.0000   1.0000   1.0000   1.0000
     1.0000   1.0000   1.0000   1.0000   1.0000   1.0000   1.0000   1.0000
     1.0000   1.0000   1.0000   1.0000   1.0000   1.0000   1.0000   1.0000
     1.0000   1.0000   1.0000   1.0000   1.0000   1.0000   1.0000   1.0000
     1.0000   1.0000   1.0000   1.0000   1.0000   1.0000   1.0000   1.0000
     1.0000   1.0000   1.0000   1.0000   1.0000   1.0000   1.0000   1.0000
     1.0000   1.0000   1.0000   1.0000   1.0000   1.0000   1.0000   1.0000
     1.0000   1.0000   1.0000   1.0000   1.0000   1.0000   1.0000   1.0000
     1.0000   1.0000   1.0000   1.0000   1.0000   1.0000   1.0000   1.0000

          k = 0.0191 0.0114-0.0480 (191224 PWs)   bands (ev):

   -24.0506 -24.0406 -24.0279 -24.0192 -23.6333 -23.6308 -23.6179 -23.6167
   -19.2271 -19.2249 -19.2176 -19.2149 -18.8269 -18.8258 -18.8085 -18.8077
   -18.2942 -18.2707 -17.2853 -17.2429 -17.0992 -17.0952 -16.1020 -16.0870
   -12.1690 -12.1568 -12.1134 -12.0299 -11.9606 -11.8865 -11.8582 -11.8435
    -8.9123  -8.8281  -8.2906  -8.2866  -7.6094  -7.5938  -7.4815  -7.3712
    -6.9260  -6.8219  -6.6340  -6.6085  -6.5216  -6.4939  -6.4089  -6.3781
    -6.2617  -6.2228  -5.9850  -5.9665  -5.8484  -5.8106  -5.8103  -5.7941
    -5.7730  -5.6929  -5.5203  -5.4639  -5.1453  -5.0732  -4.9325  -4.9032
    -4.4742  -4.4300  -4.3804  -4.3356  -4.2130  -4.1557  -3.9756  -3.9319
    -3.7301  -3.6868  -3.5836  -3.5091  -3.2152  -3.1992  -3.0803  -3.0724
    -0.7087  -0.6482  -0.3471  -0.3401  -0.2804  -0.2598  -0.2016  -0.1563
    -0.1198  -0.0956   0.0225   0.1101   0.2569   0.2951   0.3035   0.3462
     0.5733   0.6593   0.6765   0.6978   0.7183   0.8252   0.8324   0.8477
     0.9716   1.0245   1.1010   1.1590   1.2352   1.2591   1.3467   1.3695

     occupation numbers 
     1.0000   1.0000   1.0000   1.0000   1.0000   1.0000   1.0000   1.0000
     1.0000   1.0000   1.0000   1.0000   1.0000   1.0000   1.0000   1.0000
     1.0000   1.0000   1.0000   1.0000   1.0000   1.0000   1.0000   1.0000
     1.0000   1.0000   1.0000   1.0000   1.0000   1.0000   1.0000   1.0000
     1.0000   1.0000   1.0000   1.0000   1.0000   1.0000   1.0000   1.0000
     1.0000   1.0000   1.0000   1.0000   1.0000   1.0000   1.0000   1.0000
     1.0000   1.0000   1.0000   1.0000   1.0000   1.0000   1.0000   1.0000
     1.0000   1.0000   1.0000   1.0000   1.0000   1.0000   1.0000   1.0000
     1.0000   1.0000   1.0000   1.0000   1.0000   1.0000   1.0000   1.0000
     1.0000   1.0000   1.0000   1.0000   1.0000   1.0000   1.0000   1.0000
     1.0000   1.0000   1.0000   1.0000   1.0000   1.0000   1.0000   1.0000
     1.0000   1.0000   1.0000   1.0000   1.0000   1.0000   1.0000   1.0000
     1.0000   1.0000   1.0000   1.0000   1.0000   1.0000   1.0000   1.0000
     1.0000   1.0000   1.0000   1.0000   1.0000   1.0000   1.0000   1.0000

          k = 0.0191 0.0114-0.0132 (191156 PWs)   bands (ev):

   -24.0565 -24.0372 -24.0289 -24.0165 -23.6342 -23.6274 -23.6183 -23.6179
   -19.2303 -19.2249 -19.2193 -19.2091 -18.8234 -18.8221 -18.8109 -18.8107
   -18.2985 -18.2645 -17.2955 -17.2324 -17.1039 -17.1014 -16.1026 -16.0832
   -12.1664 -12.1478 -12.1363 -12.0227 -11.9689 -11.8906 -11.8438 -11.8249
    -8.9352  -8.8434  -8.3148  -8.2888  -7.6049  -7.5835  -7.5215  -7.4382
    -6.8420  -6.8262  -6.6319  -6.5659  -6.5316  -6.4663  -6.3767  -6.3233
    -6.2190  -6.1735  -6.0230  -5.9714  -5.8941  -5.8453  -5.7554  -5.7476
    -5.7067  -5.6785  -5.5818  -5.5599  -5.1130  -5.0689  -4.9506  -4.9048
    -4.5120  -4.4659  -4.4471  -4.4293  -4.2546  -4.1772  -3.8849  -3.8114
    -3.7752  -3.6478  -3.5813  -3.5474  -3.1946  -3.1534  -3.1013  -3.0888
    -0.7526  -0.7350  -0.3371  -0.3305  -0.2497  -0.2041  -0.1248  -0.1086
    -0.0944  -0.0558   0.0581   0.1163   0.1920   0.2660   0.3180   0.3845
     0.5514   0.5926   0.6123   0.6932   0.7333   0.8137   0.8699   0.8800
     0.9133   0.9973   1.0841   1.1615   1.1999   1.3103   1.3534   1.3695

     occupation numbers 
     1.0000   1.0000   1.0000   1.0000   1.0000   1.0000   1.0000   1.0000
     1.0000   1.0000   1.0000   1.0000   1.0000   1.0000   1.0000   1.0000
     1.0000   1.0000   1.0000   1.0000   1.0000   1.0000   1.0000   1.0000
     1.0000   1.0000   1.0000   1.0000   1.0000   1.0000   1.0000   1.0000
     1.0000   1.0000   1.0000   1.0000   1.0000   1.0000   1.0000   1.0000
     1.0000   1.0000   1.0000   1.0000   1.0000   1.0000   1.0000   1.0000
     1.0000   1.0000   1.0000   1.0000   1.0000   1.0000   1.0000   1.0000
     1.0000   1.0000   1.0000   1.0000   1.0000   1.0000   1.0000   1.0000
     1.0000   1.0000   1.0000   1.0000   1.0000   1.0000   1.0000   1.0000
     1.0000   1.0000   1.0000   1.0000   1.0000   1.0000   1.0000   1.0000
     1.0000   1.0000   1.0000   1.0000   1.0000   1.0000   1.0000   1.0000
     1.0000   1.0000   1.0000   1.0000   1.0000   1.0000   1.0000   1.0000
     1.0000   1.0000   1.0000   1.0000   1.0000   1.0000   1.0000   1.0000
     1.0000   1.0000   1.0000   1.0000   1.0000   1.0000   1.0000   1.0000

          k = 0.0191 0.0341 0.0217 (191191 PWs)   bands (ev):

   -24.0514 -24.0445 -24.0234 -24.0200 -23.6301 -23.6267 -23.6205 -23.6202
   -19.2306 -19.2290 -19.2140 -19.2098 -18.8191 -18.8189 -18.8147 -18.8144
   -18.2874 -18.2774 -17.2734 -17.2540 -17.1001 -17.0998 -16.0986 -16.0934
   -12.1493 -12.1484 -12.1111 -12.0703 -11.9342 -11.9109 -11.8397 -11.8307
    -8.9126  -8.8959  -8.3117  -8.2968  -7.5927  -7.5756  -7.4802  -7.4796
    -6.8532  -6.8061  -6.5832  -6.5658  -6.5481  -6.4719  -6.3493  -6.3298
    -6.1682  -6.1592  -6.0291  -5.9805  -5.9370  -5.9073  -5.7827  -5.7693
    -5.6702  -5.6530  -5.5745  -5.5582  -5.1037  -5.0401  -4.9924  -4.9687
    -4.5008  -4.4925  -4.4157  -4.4056  -4.2394  -4.1972  -3.8670  -3.8626
    -3.7006  -3.6647  -3.5692  -3.5551  -3.1831  -3.1691  -3.0977  -3.0893
    -0.7966  -0.7919  -0.3412  -0.3303  -0.2558  -0.2153  -0.1408  -0.1345
    -0.0103   0.0025   0.1962   0.2053   0.2387   0.2470   0.3870   0.3994
     0.4089   0.4360   0.6288   0.6533   0.7379   0.7600   0.8722   0.8897
     0.9433   0.9897   1.0906   1.1199   1.2328   1.2849   1.3763   1.3821

     occupation numbers 
     1.0000   1.0000   1.0000   1.0000   1.0000   1.0000   1.0000   1.0000
     1.0000   1.0000   1.0000   1.0000   1.0000   1.0000   1.0000   1.0000
     1.0000   1.0000   1.0000   1.0000   1.0000   1.0000   1.0000   1.0000
     1.0000   1.0000   1.0000   1.0000   1.0000   1.0000   1.0000   1.0000
     1.0000   1.0000   1.0000   1.0000   1.0000   1.0000   1.0000   1.0000
     1.0000   1.0000   1.0000   1.0000   1.0000   1.0000   1.0000   1.0000
     1.0000   1.0000   1.0000   1.0000   1.0000   1.0000   1.0000   1.0000
     1.0000   1.0000   1.0000   1.0000   1.0000   1.0000   1.0000   1.0000
     1.0000   1.0000   1.0000   1.0000   1.0000   1.0000   1.0000   1.0000
     1.0000   1.0000   1.0000   1.0000   1.0000   1.0000   1.0000   1.0000
     1.0000   1.0000   1.0000   1.0000   1.0000   1.0000   1.0000   1.0000
     1.0000   1.0000   1.0000   1.0000   1.0000   1.0000   1.0000   1.0000
     1.0000   1.0000   1.0000   1.0000   1.0000   1.0000   1.0000   1.0000
     1.0000   1.0000   1.0000   1.0000   1.0000   1.0000   1.0000   1.0000

          k = 0.0191 0.0341 0.0566 (191233 PWs)   bands (ev):

   -24.0466 -24.0438 -24.0243 -24.0237 -23.6307 -23.6294 -23.6197 -23.6187
   -19.2286 -19.2272 -19.2158 -19.2128 -18.8247 -18.8245 -18.8101 -18.8098
   -18.2833 -18.2831 -17.2649 -17.2637 -17.0948 -17.0936 -16.0981 -16.0974
   -12.1580 -12.1574 -12.0790 -12.0706 -11.9239 -11.9195 -11.8534 -11.8494
    -8.8918  -8.8772  -8.2960  -8.2857  -7.5989  -7.5785  -7.4469  -7.4188
    -6.9022  -6.8567  -6.6189  -6.6121  -6.5129  -6.4603  -6.4050  -6.3862
    -6.1899  -6.1730  -5.9998  -5.9638  -5.9050  -5.8708  -5.8201  -5.8042
    -5.7455  -5.7116  -5.5160  -5.4981  -5.0880  -5.0380  -4.9961  -4.9590
    -4.4256  -4.4138  -4.3964  -4.3586  -4.1817  -4.1687  -3.9725  -3.9657
    -3.7010  -3.6865  -3.5369  -3.5314  -3.2048  -3.2007  -3.0907  -3.0776
    -0.7589  -0.7428  -0.3518  -0.3427  -0.2576  -0.2266  -0.1705  -0.1483
    -0.0688  -0.0448   0.1126   0.1350   0.2448   0.2670   0.3369   0.3486
     0.5515   0.5776   0.6465   0.6654   0.7714   0.7813   0.8171   0.8473
     0.9816   1.0027   1.1049   1.1176   1.2444   1.2721   1.3706   1.3771

     occupation numbers 
     1.0000   1.0000   1.0000   1.0000   1.0000   1.0000   1.0000   1.0000
     1.0000   1.0000   1.0000   1.0000   1.0000   1.0000   1.0000   1.0000
     1.0000   1.0000   1.0000   1.0000   1.0000   1.0000   1.0000   1.0000
     1.0000   1.0000   1.0000   1.0000   1.0000   1.0000   1.0000   1.0000
     1.0000   1.0000   1.0000   1.0000   1.0000   1.0000   1.0000   1.0000
     1.0000   1.0000   1.0000   1.0000   1.0000   1.0000   1.0000   1.0000
     1.0000   1.0000   1.0000   1.0000   1.0000   1.0000   1.0000   1.0000
     1.0000   1.0000   1.0000   1.0000   1.0000   1.0000   1.0000   1.0000
     1.0000   1.0000   1.0000   1.0000   1.0000   1.0000   1.0000   1.0000
     1.0000   1.0000   1.0000   1.0000   1.0000   1.0000   1.0000   1.0000
     1.0000   1.0000   1.0000   1.0000   1.0000   1.0000   1.0000   1.0000
     1.0000   1.0000   1.0000   1.0000   1.0000   1.0000   1.0000   1.0000
     1.0000   1.0000   1.0000   1.0000   1.0000   1.0000   1.0000   1.0000
     1.0000   1.0000   1.0000   1.0000   1.0000   1.0000   1.0000   1.0000

          k = 0.0191 0.0341-0.0480 (191169 PWs)   bands (ev):

   -24.0480 -24.0440 -24.0249 -24.0214 -23.6324 -23.6313 -23.6177 -23.6172
   -19.2273 -19.2265 -19.2159 -19.2149 -18.8266 -18.8261 -18.8083 -18.8080
   -18.2876 -18.2778 -17.2728 -17.2552 -17.0981 -17.0964 -16.0975 -16.0913
   -12.1651 -12.1600 -12.0973 -12.0663 -11.9274 -11.9003 -11.8538 -11.8475
    -8.8887  -8.8539  -8.2908  -8.2888  -7.6006  -7.5954  -7.4526  -7.4057
    -6.8956  -6.8520  -6.6315  -6.6126  -6.5128  -6.5036  -6.4367  -6.4170
    -6.1778  -6.1605  -6.0154  -5.9966  -5.8428  -5.8276  -5.8177  -5.7982
    -5.7463  -5.7089  -5.5107  -5.4822  -5.1193  -5.0664  -4.9597  -4.9235
    -4.4635  -4.4431  -4.3509  -4.3346  -4.2051  -4.1804  -3.9612  -3.9426
    -3.7117  -3.6931  -3.5619  -3.5310  -3.2044  -3.1949  -3.0881  -3.0858
    -0.6927  -0.6681  -0.3463  -0.3409  -0.2539  -0.2415  -0.2188  -0.1877
    -0.1267  -0.1139   0.0750   0.1088   0.2585   0.2740   0.3142   0.3379
     0.5982   0.6324   0.6928   0.7046   0.7316   0.7789   0.8401   0.8465
     0.9864   1.0038   1.1255   1.1475   1.2402   1.2506   1.3534   1.3631

     occupation numbers 
     1.0000   1.0000   1.0000   1.0000   1.0000   1.0000   1.0000   1.0000
     1.0000   1.0000   1.0000   1.0000   1.0000   1.0000   1.0000   1.0000
     1.0000   1.0000   1.0000   1.0000   1.0000   1.0000   1.0000   1.0000
     1.0000   1.0000   1.0000   1.0000   1.0000   1.0000   1.0000   1.0000
     1.0000   1.0000   1.0000   1.0000   1.0000   1.0000   1.0000   1.0000
     1.0000   1.0000   1.0000   1.0000   1.0000   1.0000   1.0000   1.0000
     1.0000   1.0000   1.0000   1.0000   1.0000   1.0000   1.0000   1.0000
     1.0000   1.0000   1.0000   1.0000   1.0000   1.0000   1.0000   1.0000
     1.0000   1.0000   1.0000   1.0000   1.0000   1.0000   1.0000   1.0000
     1.0000   1.0000   1.0000   1.0000   1.0000   1.0000   1.0000   1.0000
     1.0000   1.0000   1.0000   1.0000   1.0000   1.0000   1.0000   1.0000
     1.0000   1.0000   1.0000   1.0000   1.0000   1.0000   1.0000   1.0000
     1.0000   1.0000   1.0000   1.0000   1.0000   1.0000   1.0000   1.0000
     1.0000   1.0000   1.0000   1.0000   1.0000   1.0000   1.0000   1.0000

          k = 0.0191 0.0341-0.0132 (191203 PWs)   bands (ev):

   -24.0523 -24.0451 -24.0230 -24.0188 -23.6321 -23.6292 -23.6182 -23.6181
   -19.2298 -19.2282 -19.2146 -19.2109 -18.8230 -18.8224 -18.8108 -18.8108
   -18.2890 -18.2749 -17.2765 -17.2503 -17.1035 -17.1025 -16.0967 -16.0887
   -12.1591 -12.1528 -12.1154 -12.0743 -11.9289 -11.9027 -11.8379 -11.8301
    -8.9100  -8.8721  -8.3088  -8.2981  -7.5995  -7.5894  -7.4932  -7.4598
    -6.8174  -6.8043  -6.6156  -6.5781  -6.5474  -6.5053  -6.3972  -6.3698
    -6.1528  -6.1466  -6.0248  -6.0024  -5.8911  -5.8677  -5.7690  -5.7605
    -5.6663  -5.6594  -5.5691  -5.5539  -5.1108  -5.0819  -4.9542  -4.9291
    -4.5040  -4.4916  -4.4281  -4.4097  -4.2437  -4.2052  -3.8608  -3.8305
    -3.7295  -3.6753  -3.5742  -3.5592  -3.1864  -3.1695  -3.0959  -3.0909
    -0.7448  -0.7375  -0.3323  -0.3231  -0.2513  -0.2140  -0.1434  -0.1368
    -0.0839  -0.0675   0.0874   0.1159   0.2112   0.2447   0.3553   0.3837
     0.5618   0.5866   0.6247   0.6721   0.7212   0.7612   0.8846   0.8850
     0.9495   0.9810   1.1190   1.1503   1.2214   1.2679   1.3614   1.3667

     occupation numbers 
     1.0000   1.0000   1.0000   1.0000   1.0000   1.0000   1.0000   1.0000
     1.0000   1.0000   1.0000   1.0000   1.0000   1.0000   1.0000   1.0000
     1.0000   1.0000   1.0000   1.0000   1.0000   1.0000   1.0000   1.0000
     1.0000   1.0000   1.0000   1.0000   1.0000   1.0000   1.0000   1.0000
     1.0000   1.0000   1.0000   1.0000   1.0000   1.0000   1.0000   1.0000
     1.0000   1.0000   1.0000   1.0000   1.0000   1.0000   1.0000   1.0000
     1.0000   1.0000   1.0000   1.0000   1.0000   1.0000   1.0000   1.0000
     1.0000   1.0000   1.0000   1.0000   1.0000   1.0000   1.0000   1.0000
     1.0000   1.0000   1.0000   1.0000   1.0000   1.0000   1.0000   1.0000
     1.0000   1.0000   1.0000   1.0000   1.0000   1.0000   1.0000   1.0000
     1.0000   1.0000   1.0000   1.0000   1.0000   1.0000   1.0000   1.0000
     1.0000   1.0000   1.0000   1.0000   1.0000   1.0000   1.0000   1.0000
     1.0000   1.0000   1.0000   1.0000   1.0000   1.0000   1.0000   1.0000
     1.0000   1.0000   1.0000   1.0000   1.0000   1.0000   1.0000   1.0000

          k = 0.0574 0.0114 0.0303 (191209 PWs)   bands (ev):

   -24.0468 -24.0401 -24.0248 -24.0236 -23.6297 -23.6262 -23.6233 -23.6213
   -19.2285 -19.2245 -19.2206 -19.2121 -18.8223 -18.8210 -18.8129 -18.8128
   -18.2890 -18.2886 -17.2608 -17.2582 -17.1039 -17.1015 -16.0991 -16.0971
   -12.1469 -12.1463 -12.0549 -12.0351 -11.9035 -11.8905 -11.8525 -11.8380
    -8.9208  -8.8880  -8.3217  -8.2992  -7.5923  -7.5723  -7.5468  -7.4999
    -6.9962  -6.9197  -6.6824  -6.5705  -6.5295  -6.4787  -6.3033  -6.2522
    -6.2403  -6.1696  -6.0493  -5.9844  -5.9090  -5.8663  -5.7802  -5.7642
    -5.6922  -5.6469  -5.5977  -5.5890  -5.1626  -5.0529  -4.9339  -4.9269
    -4.4758  -4.4598  -4.4317  -4.3740  -4.0709  -4.0142  -3.8317  -3.8135
    -3.7176  -3.6887  -3.6569  -3.6367  -3.1849  -3.1796  -3.1096  -3.0760
    -0.7597  -0.7383  -0.3269  -0.3221  -0.2342  -0.2099  -0.1308  -0.1130
    -0.0769  -0.0633   0.1103   0.1216   0.2101   0.2230   0.3565   0.3715
     0.5712   0.5766   0.6364   0.6920   0.7699   0.7804   0.8593   0.8704
     0.9237   0.9783   1.0003   1.0593   1.2832   1.3057   1.3494   1.3846

     occupation numbers 
     1.0000   1.0000   1.0000   1.0000   1.0000   1.0000   1.0000   1.0000
     1.0000   1.0000   1.0000   1.0000   1.0000   1.0000   1.0000   1.0000
     1.0000   1.0000   1.0000   1.0000   1.0000   1.0000   1.0000   1.0000
     1.0000   1.0000   1.0000   1.0000   1.0000   1.0000   1.0000   1.0000
     1.0000   1.0000   1.0000   1.0000   1.0000   1.0000   1.0000   1.0000
     1.0000   1.0000   1.0000   1.0000   1.0000   1.0000   1.0000   1.0000
     1.0000   1.0000   1.0000   1.0000   1.0000   1.0000   1.0000   1.0000
     1.0000   1.0000   1.0000   1.0000   1.0000   1.0000   1.0000   1.0000
     1.0000   1.0000   1.0000   1.0000   1.0000   1.0000   1.0000   1.0000
     1.0000   1.0000   1.0000   1.0000   1.0000   1.0000   1.0000   1.0000
     1.0000   1.0000   1.0000   1.0000   1.0000   1.0000   1.0000   1.0000
     1.0000   1.0000   1.0000   1.0000   1.0000   1.0000   1.0000   1.0000
     1.0000   1.0000   1.0000   1.0000   1.0000   1.0000   1.0000   1.0000
     1.0000   1.0000   1.0000   1.0000   1.0000   1.0000   1.0000   1.0000

          k = 0.0574 0.0114 0.0652 (191252 PWs)   bands (ev):

   -24.0434 -24.0427 -24.0278 -24.0205 -23.6283 -23.6279 -23.6255 -23.6195
   -19.2284 -19.2252 -19.2210 -19.2121 -18.8319 -18.8298 -18.8056 -18.8038
   -18.3028 -18.2800 -17.2791 -17.2393 -17.0941 -17.0880 -16.1148 -16.0969
   -12.1585 -12.1565 -12.0826 -12.0072 -11.9062 -11.8583 -11.8579 -11.8445
    -8.9636  -8.8408  -8.3161  -8.2784  -7.6013  -7.5745  -7.5081  -7.3898
    -7.0918  -6.8711  -6.6896  -6.5614  -6.5547  -6.4479  -6.4285  -6.3610
    -6.2786  -6.2237  -6.0241  -5.9972  -5.9257  -5.8697  -5.8146  -5.7696
    -5.6761  -5.6173  -5.5467  -5.4781  -5.1712  -5.0157  -5.0001  -4.9369
    -4.4240  -4.4133  -4.3617  -4.3327  -4.0288  -3.9732  -3.8965  -3.8822
    -3.7907  -3.7197  -3.6681  -3.5804  -3.2199  -3.1971  -3.1070  -3.0440
    -0.8336  -0.7812  -0.3341  -0.2994  -0.2360  -0.2036  -0.1319  -0.0969
    -0.0442  -0.0272   0.1771   0.2123   0.2297   0.2487   0.3254   0.4099
     0.4868   0.5057   0.5449   0.6662   0.7558   0.7937   0.8381   0.8625
     0.9619   1.0033   1.0165   1.0441   1.2959   1.3303   1.3550   1.3931

     occupation numbers 
     1.0000   1.0000   1.0000   1.0000   1.0000   1.0000   1.0000   1.0000
     1.0000   1.0000   1.0000   1.0000   1.0000   1.0000   1.0000   1.0000
     1.0000   1.0000   1.0000   1.0000   1.0000   1.0000   1.0000   1.0000
     1.0000   1.0000   1.0000   1.0000   1.0000   1.0000   1.0000   1.0000
     1.0000   1.0000   1.0000   1.0000   1.0000   1.0000   1.0000   1.0000
     1.0000   1.0000   1.0000   1.0000   1.0000   1.0000   1.0000   1.0000
     1.0000   1.0000   1.0000   1.0000   1.0000   1.0000   1.0000   1.0000
     1.0000   1.0000   1.0000   1.0000   1.0000   1.0000   1.0000   1.0000
     1.0000   1.0000   1.0000   1.0000   1.0000   1.0000   1.0000   1.0000
     1.0000   1.0000   1.0000   1.0000   1.0000   1.0000   1.0000   1.0000
     1.0000   1.0000   1.0000   1.0000   1.0000   1.0000   1.0000   1.0000
     1.0000   1.0000   1.0000   1.0000   1.0000   1.0000   1.0000   1.0000
     1.0000   1.0000   1.0000   1.0000   1.0000   1.0000   1.0000   1.0000
     1.0000   1.0000   1.0000   1.0000   1.0000   1.0000   1.0000   1.0000

          k = 0.0574 0.0114-0.0395 (191272 PWs)   bands (ev):

   -24.0471 -24.0396 -24.0295 -24.0183 -23.6312 -23.6307 -23.6218 -23.6176
   -19.2266 -19.2250 -19.2204 -19.2149 -18.8330 -18.8308 -18.8045 -18.8026
   -18.3071 -18.2744 -17.2886 -17.2297 -17.0970 -17.0907 -16.1143 -16.0909
   -12.1621 -12.1578 -12.1059 -11.9869 -11.9214 -11.8583 -11.8528 -11.8333
    -8.9595  -8.8168  -8.3104  -8.2797  -7.5977  -7.5836  -7.5299  -7.3768
    -7.1059  -6.8735  -6.6769  -6.5698  -6.5565  -6.5022  -6.4314  -6.3618
    -6.2967  -6.2347  -6.0068  -5.9567  -5.8985  -5.8793  -5.8149  -5.7774
    -5.6562  -5.6139  -5.5565  -5.4763  -5.1611  -5.0361  -4.9733  -4.9272
    -4.4292  -4.3922  -4.3709  -4.3385  -4.0438  -3.9948  -3.8674  -3.8427
    -3.7686  -3.7514  -3.7146  -3.5868  -3.2234  -3.1958  -3.0997  -3.0503
    -0.7939  -0.7201  -0.3263  -0.2784  -0.2410  -0.2219  -0.1412  -0.1198
    -0.1035  -0.0617   0.1010   0.1890   0.2288   0.2761   0.2866   0.3042
     0.5288   0.6093   0.6349   0.6536   0.7467   0.7945   0.8588   0.8752
     0.9532   0.9843   1.0379   1.0958   1.3156   1.3272   1.3334   1.3548

     occupation numbers 
     1.0000   1.0000   1.0000   1.0000   1.0000   1.0000   1.0000   1.0000
     1.0000   1.0000   1.0000   1.0000   1.0000   1.0000   1.0000   1.0000
     1.0000   1.0000   1.0000   1.0000   1.0000   1.0000   1.0000   1.0000
     1.0000   1.0000   1.0000   1.0000   1.0000   1.0000   1.0000   1.0000
     1.0000   1.0000   1.0000   1.0000   1.0000   1.0000   1.0000   1.0000
     1.0000   1.0000   1.0000   1.0000   1.0000   1.0000   1.0000   1.0000
     1.0000   1.0000   1.0000   1.0000   1.0000   1.0000   1.0000   1.0000
     1.0000   1.0000   1.0000   1.0000   1.0000   1.0000   1.0000   1.0000
     1.0000   1.0000   1.0000   1.0000   1.0000   1.0000   1.0000   1.0000
     1.0000   1.0000   1.0000   1.0000   1.0000   1.0000   1.0000   1.0000
     1.0000   1.0000   1.0000   1.0000   1.0000   1.0000   1.0000   1.0000
     1.0000   1.0000   1.0000   1.0000   1.0000   1.0000   1.0000   1.0000
     1.0000   1.0000   1.0000   1.0000   1.0000   1.0000   1.0000   1.0000
     1.0000   1.0000   1.0000   1.0000   1.0000   1.0000   1.0000   1.0000

          k = 0.0574 0.0114-0.0046 (191214 PWs)   bands (ev):

   -24.0487 -24.0387 -24.0283 -24.0196 -23.6320 -23.6292 -23.6204 -23.6189
   -19.2268 -19.2246 -19.2185 -19.2159 -18.8251 -18.8236 -18.8103 -18.8099
   -18.3000 -18.2763 -17.2813 -17.2375 -17.1067 -17.1045 -16.1025 -16.0873
   -12.1506 -12.1474 -12.0947 -11.9973 -11.9300 -11.8718 -11.8422 -11.8405
    -8.9316  -8.8488  -8.3100  -8.3069  -7.5905  -7.5823  -7.5787  -7.4760
    -7.0051  -6.9214  -6.6401  -6.6145  -6.5254  -6.5209  -6.3341  -6.2872
    -6.2209  -6.2145  -5.9754  -5.9434  -5.8838  -5.8613  -5.7939  -5.7846
    -5.6677  -5.6570  -5.5977  -5.5880  -5.1209  -5.1033  -4.9159  -4.9052
    -4.4776  -4.4604  -4.4165  -4.3916  -4.0609  -4.0424  -3.7924  -3.7874
    -3.7564  -3.7064  -3.6632  -3.6503  -3.1987  -3.1707  -3.0990  -3.0837
    -0.7077  -0.6584  -0.3230  -0.3135  -0.2311  -0.2261  -0.2037  -0.1845
    -0.0936  -0.0714   0.0541   0.1218   0.1933   0.2308   0.3260   0.3604
     0.5474   0.6220   0.7062   0.7315   0.7546   0.8021   0.8729   0.8939
     0.9280   0.9420   1.0169   1.1053   1.3004   1.3008   1.3268   1.3470

     occupation numbers 
     1.0000   1.0000   1.0000   1.0000   1.0000   1.0000   1.0000   1.0000
     1.0000   1.0000   1.0000   1.0000   1.0000   1.0000   1.0000   1.0000
     1.0000   1.0000   1.0000   1.0000   1.0000   1.0000   1.0000   1.0000
     1.0000   1.0000   1.0000   1.0000   1.0000   1.0000   1.0000   1.0000
     1.0000   1.0000   1.0000   1.0000   1.0000   1.0000   1.0000   1.0000
     1.0000   1.0000   1.0000   1.0000   1.0000   1.0000   1.0000   1.0000
     1.0000   1.0000   1.0000   1.0000   1.0000   1.0000   1.0000   1.0000
     1.0000   1.0000   1.0000   1.0000   1.0000   1.0000   1.0000   1.0000
     1.0000   1.0000   1.0000   1.0000   1.0000   1.0000   1.0000   1.0000
     1.0000   1.0000   1.0000   1.0000   1.0000   1.0000   1.0000   1.0000
     1.0000   1.0000   1.0000   1.0000   1.0000   1.0000   1.0000   1.0000
     1.0000   1.0000   1.0000   1.0000   1.0000   1.0000   1.0000   1.0000
     1.0000   1.0000   1.0000   1.0000   1.0000   1.0000   1.0000   1.0000
     1.0000   1.0000   1.0000   1.0000   1.0000   1.0000   1.0000   1.0000

          k = 0.0574 0.0341 0.0303 (191237 PWs)   bands (ev):

   -24.0447 -24.0419 -24.0247 -24.0241 -23.6282 -23.6268 -23.6231 -23.6223
   -19.2283 -19.2271 -19.2166 -19.2136 -18.8219 -18.8214 -18.8128 -18.8128
   -18.2889 -18.2888 -17.2602 -17.2591 -17.1031 -17.1021 -16.0986 -16.0977
   -12.1467 -12.1464 -12.0478 -12.0394 -11.9016 -11.8960 -11.8482 -11.8421
    -8.9112  -8.8976  -8.3119  -8.3023  -7.5853  -7.5776  -7.5377  -7.5177
    -6.9959  -6.9692  -6.6112  -6.5791  -6.5077  -6.4708  -6.3316  -6.2948
    -6.2118  -6.1835  -6.0213  -5.9950  -5.9012  -5.8802  -5.7801  -5.7631
    -5.6770  -5.6643  -5.5925  -5.5845  -5.1333  -5.0879  -4.9375  -4.9335
    -4.4732  -4.4644  -4.4115  -4.3903  -4.0492  -4.0234  -3.8144  -3.8081
    -3.7250  -3.7090  -3.6506  -3.6396  -3.1830  -3.1800  -3.1037  -3.0891
    -0.7505  -0.7417  -0.3170  -0.3102  -0.2616  -0.2420  -0.1142  -0.0936
    -0.0850  -0.0706   0.1250   0.1368   0.2112   0.2235   0.3550   0.3622
     0.5915   0.6018   0.6169   0.6511   0.7729   0.7763   0.8647   0.8816
     0.9398   0.9702   1.0073   1.0348   1.2901   1.2992   1.3604   1.3748

     occupation numbers 
     1.0000   1.0000   1.0000   1.0000   1.0000   1.0000   1.0000   1.0000
     1.0000   1.0000   1.0000   1.0000   1.0000   1.0000   1.0000   1.0000
     1.0000   1.0000   1.0000   1.0000   1.0000   1.0000   1.0000   1.0000
     1.0000   1.0000   1.0000   1.0000   1.0000   1.0000   1.0000   1.0000
     1.0000   1.0000   1.0000   1.0000   1.0000   1.0000   1.0000   1.0000
     1.0000   1.0000   1.0000   1.0000   1.0000   1.0000   1.0000   1.0000
     1.0000   1.0000   1.0000   1.0000   1.0000   1.0000   1.0000   1.0000
     1.0000   1.0000   1.0000   1.0000   1.0000   1.0000   1.0000   1.0000
     1.0000   1.0000   1.0000   1.0000   1.0000   1.0000   1.0000   1.0000
     1.0000   1.0000   1.0000   1.0000   1.0000   1.0000   1.0000   1.0000
     1.0000   1.0000   1.0000   1.0000   1.0000   1.0000   1.0000   1.0000
     1.0000   1.0000   1.0000   1.0000   1.0000   1.0000   1.0000   1.0000
     1.0000   1.0000   1.0000   1.0000   1.0000   1.0000   1.0000   1.0000
     1.0000   1.0000   1.0000   1.0000   1.0000   1.0000   1.0000   1.0000

          k = 0.0574 0.0341 0.0652 (191237 PWs)   bands (ev):

   -24.0431 -24.0428 -24.0259 -24.0228 -23.6281 -23.6280 -23.6238 -23.6213
   -19.2286 -19.2277 -19.2168 -19.2136 -18.8313 -18.8304 -18.8051 -18.8043
   -18.2963 -18.2869 -17.2673 -17.2508 -17.0924 -17.0899 -16.1094 -16.1020
   -12.1601 -12.1583 -12.0607 -12.0304 -11.8894 -11.8702 -11.8544 -11.8487
    -8.9289  -8.8782  -8.3035  -8.2878  -7.5756  -7.5634  -7.5011  -7.4465
    -7.0510  -6.9728  -6.5986  -6.5671  -6.5384  -6.4952  -6.3857  -6.3338
    -6.2895  -6.2408  -6.0061  -5.9911  -5.9193  -5.8959  -5.8248  -5.7950
    -5.6677  -5.6437  -5.5169  -5.4894  -5.1349  -5.0683  -4.9814  -4.9528
    -4.4090  -4.3912  -4.3626  -4.3343  -4.0136  -3.9914  -3.8945  -3.8877
    -3.7747  -3.7510  -3.6363  -3.6028  -3.2134  -3.2040  -3.0898  -3.0636
    -0.8156  -0.7940  -0.3216  -0.3058  -0.2575  -0.2454  -0.1147  -0.1056
    -0.0145  -0.0092   0.1940   0.2060   0.2424   0.2542   0.3445   0.3846
     0.4716   0.4816   0.5958   0.6524   0.7451   0.7788   0.8477   0.8625
     0.9550   0.9790   1.0353   1.0518   1.3045   1.3183   1.3664   1.3819

     occupation numbers 
     1.0000   1.0000   1.0000   1.0000   1.0000   1.0000   1.0000   1.0000
     1.0000   1.0000   1.0000   1.0000   1.0000   1.0000   1.0000   1.0000
     1.0000   1.0000   1.0000   1.0000   1.0000   1.0000   1.0000   1.0000
     1.0000   1.0000   1.0000   1.0000   1.0000   1.0000   1.0000   1.0000
     1.0000   1.0000   1.0000   1.0000   1.0000   1.0000   1.0000   1.0000
     1.0000   1.0000   1.0000   1.0000   1.0000   1.0000   1.0000   1.0000
     1.0000   1.0000   1.0000   1.0000   1.0000   1.0000   1.0000   1.0000
     1.0000   1.0000   1.0000   1.0000   1.0000   1.0000   1.0000   1.0000
     1.0000   1.0000   1.0000   1.0000   1.0000   1.0000   1.0000   1.0000
     1.0000   1.0000   1.0000   1.0000   1.0000   1.0000   1.0000   1.0000
     1.0000   1.0000   1.0000   1.0000   1.0000   1.0000   1.0000   1.0000
     1.0000   1.0000   1.0000   1.0000   1.0000   1.0000   1.0000   1.0000
     1.0000   1.0000   1.0000   1.0000   1.0000   1.0000   1.0000   1.0000
     1.0000   1.0000   1.0000   1.0000   1.0000   1.0000   1.0000   1.0000

          k = 0.0574 0.0341-0.0395 (191197 PWs)   bands (ev):

   -24.0454 -24.0425 -24.0255 -24.0211 -23.6310 -23.6307 -23.6206 -23.6189
   -19.2272 -19.2268 -19.2174 -19.2155 -18.8324 -18.8315 -18.8040 -18.8032
   -18.2979 -18.2844 -17.2709 -17.2465 -17.0955 -17.0929 -16.1072 -16.0975
   -12.1639 -12.1616 -12.0753 -12.0308 -11.8902 -11.8678 -11.8485 -11.8408
    -8.9198  -8.8609  -8.3010  -8.2882  -7.5784  -7.5629  -7.5164  -7.4410
    -7.0545  -6.9696  -6.5987  -6.5754  -6.5488  -6.5120  -6.4451  -6.3814
    -6.2541  -6.2109  -5.9992  -5.9690  -5.9054  -5.9016  -5.8179  -5.7931
    -5.6511  -5.6329  -5.5190  -5.4868  -5.1475  -5.0958  -4.9487  -4.9268
    -4.4281  -4.4137  -4.3401  -4.3237  -4.0271  -4.0071  -3.8654  -3.8554
    -3.7692  -3.7591  -3.6730  -3.6213  -3.2130  -3.2003  -3.0903  -3.0689
    -0.7708  -0.7400  -0.3166  -0.2989  -0.2594  -0.2439  -0.1281  -0.1178
    -0.0774  -0.0516   0.1323   0.1666   0.2350   0.2522   0.2917   0.3100
     0.5557   0.5873   0.6566   0.6640   0.7523   0.7738   0.8434   0.8489
     0.9636   0.9830   1.0605   1.0832   1.3178   1.3240   1.3372   1.3476

     occupation numbers 
     1.0000   1.0000   1.0000   1.0000   1.0000   1.0000   1.0000   1.0000
     1.0000   1.0000   1.0000   1.0000   1.0000   1.0000   1.0000   1.0000
     1.0000   1.0000   1.0000   1.0000   1.0000   1.0000   1.0000   1.0000
     1.0000   1.0000   1.0000   1.0000   1.0000   1.0000   1.0000   1.0000
     1.0000   1.0000   1.0000   1.0000   1.0000   1.0000   1.0000   1.0000
     1.0000   1.0000   1.0000   1.0000   1.0000   1.0000   1.0000   1.0000
     1.0000   1.0000   1.0000   1.0000   1.0000   1.0000   1.0000   1.0000
     1.0000   1.0000   1.0000   1.0000   1.0000   1.0000   1.0000   1.0000
     1.0000   1.0000   1.0000   1.0000   1.0000   1.0000   1.0000   1.0000
     1.0000   1.0000   1.0000   1.0000   1.0000   1.0000   1.0000   1.0000
     1.0000   1.0000   1.0000   1.0000   1.0000   1.0000   1.0000   1.0000
     1.0000   1.0000   1.0000   1.0000   1.0000   1.0000   1.0000   1.0000
     1.0000   1.0000   1.0000   1.0000   1.0000   1.0000   1.0000   1.0000
     1.0000   1.0000   1.0000   1.0000   1.0000   1.0000   1.0000   1.0000

          k = 0.0574 0.0341-0.0046 (191236 PWs)   bands (ev):

   -24.0462 -24.0423 -24.0251 -24.0217 -23.6310 -23.6299 -23.6201 -23.6194
   -19.2269 -19.2261 -19.2168 -19.2159 -18.8246 -18.8240 -18.8102 -18.8100
   -18.2933 -18.2835 -17.2683 -17.2502 -17.1061 -17.1052 -16.0980 -16.0917
   -12.1507 -12.1497 -12.0704 -12.0331 -11.9043 -11.8828 -11.8427 -11.8412
    -8.9080  -8.8738  -8.3079  -8.3049  -7.5876  -7.5841  -7.5524  -7.5096
    -6.9935  -6.9598  -6.6087  -6.5980  -6.5022  -6.4994  -6.3885  -6.3675
    -6.1745  -6.1678  -5.9830  -5.9660  -5.8793  -5.8685  -5.7766  -5.7700
    -5.6742  -5.6593  -5.5951  -5.5925  -5.1260  -5.1159  -4.9104  -4.9075
    -4.4787  -4.4651  -4.4161  -4.3947  -4.0454  -4.0358  -3.7936  -3.7900
    -3.7281  -3.6940  -3.6855  -3.6668  -3.1893  -3.1761  -3.1005  -3.0950
    -0.6926  -0.6723  -0.3085  -0.3068  -0.2459  -0.2221  -0.2069  -0.1878
    -0.1064  -0.0879   0.0845   0.1116   0.2065   0.2250   0.3380   0.3559
     0.5767   0.6134   0.6932   0.7146   0.7579   0.7901   0.8776   0.8824
     0.9458   0.9554   1.0328   1.0733   1.3009   1.3018   1.3321   1.3409

     occupation numbers 
     1.0000   1.0000   1.0000   1.0000   1.0000   1.0000   1.0000   1.0000
     1.0000   1.0000   1.0000   1.0000   1.0000   1.0000   1.0000   1.0000
     1.0000   1.0000   1.0000   1.0000   1.0000   1.0000   1.0000   1.0000
     1.0000   1.0000   1.0000   1.0000   1.0000   1.0000   1.0000   1.0000
     1.0000   1.0000   1.0000   1.0000   1.0000   1.0000   1.0000   1.0000
     1.0000   1.0000   1.0000   1.0000   1.0000   1.0000   1.0000   1.0000
     1.0000   1.0000   1.0000   1.0000   1.0000   1.0000   1.0000   1.0000
     1.0000   1.0000   1.0000   1.0000   1.0000   1.0000   1.0000   1.0000
     1.0000   1.0000   1.0000   1.0000   1.0000   1.0000   1.0000   1.0000
     1.0000   1.0000   1.0000   1.0000   1.0000   1.0000   1.0000   1.0000
     1.0000   1.0000   1.0000   1.0000   1.0000   1.0000   1.0000   1.0000
     1.0000   1.0000   1.0000   1.0000   1.0000   1.0000   1.0000   1.0000
     1.0000   1.0000   1.0000   1.0000   1.0000   1.0000   1.0000   1.0000
     1.0000   1.0000   1.0000   1.0000   1.0000   1.0000   1.0000   1.0000

     highest occupied level (ev):     1.3931

!    total energy              =   -1281.97319138 Ry
     Harris-Foulkes estimate   =   -1281.97319203 Ry
     estimated scf accuracy    <       0.00000072 Ry

     total all-electron energy =     -4786.416939 Ry

     The total energy is the sum of the following terms:

     one-electron contribution =    -646.83309805 Ry
     hartree contribution      =     421.53494866 Ry
     xc contribution           =    -260.41578093 Ry
     ewald contribution        =    -465.86389729 Ry
     one-center paw contrib.   =    -330.39536378 Ry

     convergence has been achieved in  16 iterations

     Writing output data file scf.pbe-ec-220-kp444.HMX-792827-nofor.nostress.save

     init_run     :    126.29s CPU    217.69s WALL (       1 calls)
     electrons    :   1662.37s CPU   2187.76s WALL (       1 calls)

     Called by init_run:
     wfcinit      :      0.02s CPU      0.11s WALL (       1 calls)
     potinit      :      5.30s CPU     11.12s WALL (       1 calls)

     Called by electrons:
     c_bands      :   1228.27s CPU   1558.34s WALL (       4 calls)
     sum_band     :    387.02s CPU    520.38s WALL (       4 calls)
     v_of_rho     :     15.02s CPU     17.92s WALL (       5 calls)
     v_h          :      1.36s CPU      1.46s WALL (       5 calls)
     v_xc         :     13.66s CPU     16.46s WALL (       5 calls)
     newd         :     26.26s CPU     96.04s WALL (       5 calls)
     PAW_pot      :      1.62s CPU      1.70s WALL (       5 calls)
     mix_rho      :      9.15s CPU     19.06s WALL (       4 calls)

     Called by c_bands:
     init_us_2    :     22.25s CPU     25.62s WALL (     112 calls)
     cegterg      :   1142.61s CPU   1357.42s WALL (      48 calls)

     Called by sum_band:
     sum_band:bec :      0.09s CPU      0.09s WALL (      64 calls)
     addusdens    :     35.33s CPU    126.19s WALL (       4 calls)

     Called by *egterg:
     h_psi        :    732.27s CPU    814.89s WALL (     160 calls)
     s_psi        :     93.01s CPU     71.23s WALL (     160 calls)
     g_psi        :      1.30s CPU      1.64s WALL (     112 calls)
     cdiaghg      :     42.77s CPU     39.39s WALL (     160 calls)
     cegterg:over :     97.01s CPU     98.47s WALL (     112 calls)
     cegterg:upda :     70.61s CPU     46.24s WALL (     112 calls)
     cegterg:last :     53.03s CPU     61.23s WALL (      48 calls)

     Called by h_psi:
     h_psi:vloc   :    471.75s CPU    536.86s WALL (     160 calls)
     h_psi:vnl    :    242.40s CPU    259.84s WALL (     160 calls)
     add_vuspsi   :     99.14s CPU    100.40s WALL (     160 calls)

     General routines
     calbec       :    215.91s CPU    231.66s WALL (     224 calls)
     fft          :     14.82s CPU     21.52s WALL (      75 calls)
     ffts         :      0.61s CPU      0.70s WALL (       9 calls)
     fftw         :    407.94s CPU    510.51s WALL (   32378 calls)
     interpolate  :      6.50s CPU      7.48s WALL (       9 calls)
     davcio       :      3.79s CPU    286.84s WALL (      48 calls)

     Parallel routines
     fft_scatter  :    168.71s CPU    276.70s WALL (   32462 calls)

     PAW routines
     PAW_pot      :      1.62s CPU      1.70s WALL (       5 calls)
     PAW_symme    :      0.01s CPU      0.02s WALL (       8 calls)

     PWSCF        : 29m57.92s CPU    43m34.50s WALL


   This run was terminated on:  22:20:41  22May2016            

=------------------------------------------------------------------------------=
   JOB DONE.
=------------------------------------------------------------------------------=
