
     Program PWSCF v.5.3.0 (svn rev. 11974) starts on 14Jul2016 at 16:47:15 

     This program is part of the open-source Quantum ESPRESSO suite
     for quantum simulation of materials; please cite
         "P. Giannozzi et al., J. Phys.:Condens. Matter 21 395502 (2009);
          URL http://www.quantum-espresso.org", 
     in publications or presentations arising from this work. More details at
     http://www.quantum-espresso.org/quote

     Parallel version (MPI), running on    32 processors
     R & G space division:  proc/nbgrp/npool/nimage =      32
     Waiting for input...
     Reading input from standard input
Warning: card     &CELL ignored
Warning: card CELL_DYNAMICS='BFGS' ignored
Warning: card / ignored

     Current dimensions of program PWSCF are:
     Max number of different atomic species (ntypx) = 10
     Max number of k-points (npk) =  40000
     Max angular momentum in pseudopotentials (lmaxx) =  3
               file N.pbe-n-kjpaw_psl.1.0.0.UPF: wavefunction(s)  2S renormalized
               file C.pbe-n-kjpaw_psl.1.0.0.UPF: wavefunction(s)  2S 2P renormalized
               file H.pbe-kjpaw_psl.1.0.0.UPF: wavefunction(s)  1S renormalized
               file O.pbe-n-kjpaw_psl.1.0.0.UPF: wavefunction(s)  2S 2P renormalized

     Subspace diagonalization in iterative solution of the eigenvalue problem:
     a serial algorithm will be used


     Parallelization info
     --------------------
     sticks:   dense  smooth     PW     G-vecs:    dense   smooth      PW
     Min         509     203     54                41432    10469    1444
     Max         510     204     55                41436    10506    1448
     Sum       16309    6521   1745              1325869   335487   46273


     Title: 
     HMX-relax--kp-4x2x4-ec-80-default-conv-thr                                 


     bravais-lattice index     =            0
     lattice parameter (alat)  =       1.8897  a.u.
     unit-cell volume          =    3470.0091 (a.u.)^3
     number of atoms/cell      =           56
     number of atomic types    =            4
     number of electrons       =       224.00
     number of Kohn-Sham states=          112
     kinetic-energy cutoff     =      80.0000  Ry
     charge density cutoff     =     800.0000  Ry
     convergence threshold     =      1.0E-06
     mixing beta               =       0.7000
     number of iterations used =            8  plain     mixing
     Exchange-correlation      =  SLA  PW   PBX  PBC ( 1  4  3  4 0 0)
     nstep                     =           50


     celldm(1)=   1.889726  celldm(2)=   0.000000  celldm(3)=   0.000000
     celldm(4)=   0.000000  celldm(5)=   0.000000  celldm(6)=   0.000000

     crystal axes: (cart. coord. in units of alat)
               a(1) = (   6.528900   0.000000   0.000000 )  
               a(2) = (   0.000000  10.987500   0.000000 )  
               a(3) = (  -1.604329   0.000000   7.167954 )  

     reciprocal axes: (cart. coord. in units 2 pi/alat)
               b(1) = (  0.153165 -0.000000  0.034281 )  
               b(2) = (  0.000000  0.091013 -0.000000 )  
               b(3) = (  0.000000  0.000000  0.139510 )  


     PseudoPot. # 1 for  N read from file:
     /users/majewski/.data/PSEUDOPOTENTIALS/N.pbe-n-kjpaw_psl.1.0.0.UPF
     MD5 check sum: c21df8f53e59d08c3548513d559cdda6
     Pseudo is Projector augmented-wave + core cor, Zval =  5.0
     Generated using "atomic" code by A. Dal Corso  v.5.3.0 svn rev. 11974
     Shape of augmentation charge: PSQ
     Using radial grid of 1085 points,  4 beta functions with: 
                l(1) =   0
                l(2) =   0
                l(3) =   1
                l(4) =   1
     Q(r) pseudized with 0 coefficients 


     PseudoPot. # 2 for  C read from file:
     /users/majewski/.data/PSEUDOPOTENTIALS/C.pbe-n-kjpaw_psl.1.0.0.UPF
     MD5 check sum: 2ba8448e293caca687844dde9a1b88a8
     Pseudo is Projector augmented-wave + core cor, Zval =  4.0
     Generated using "atomic" code by A. Dal Corso  v.5.3.0 svn rev. 11974
     Shape of augmentation charge: PSQ
     Using radial grid of 1073 points,  4 beta functions with: 
                l(1) =   0
                l(2) =   0
                l(3) =   1
                l(4) =   1
     Q(r) pseudized with 0 coefficients 


     PseudoPot. # 3 for  H read from file:
     /users/majewski/.data/PSEUDOPOTENTIALS/H.pbe-kjpaw_psl.1.0.0.UPF
     MD5 check sum: bc0feb48a24907a0b97fa6ee2d589a29
     Pseudo is Projector augmented-wave, Zval =  1.0
     Generated using "atomic" code by A. Dal Corso  v.5.3.0 svn rev. 11974
     Shape of augmentation charge: PSQ
     Using radial grid of  929 points,  2 beta functions with: 
                l(1) =   0
                l(2) =   0
     Q(r) pseudized with 0 coefficients 


     PseudoPot. # 4 for  O read from file:
     /users/majewski/.data/PSEUDOPOTENTIALS/O.pbe-n-kjpaw_psl.1.0.0.UPF
     MD5 check sum: 9c0ade6c043cf4a781bde3908a3a8206
     Pseudo is Projector augmented-wave + core cor, Zval =  6.0
     Generated using "atomic" code by A. Dal Corso  v.5.3.0 svn rev. 11974
     Shape of augmentation charge: PSQ
     Using radial grid of 1095 points,  4 beta functions with: 
                l(1) =   0
                l(2) =   0
                l(3) =   1
                l(4) =   1
     Q(r) pseudized with 0 coefficients 


     atomic species   valence    mass     pseudopotential
        N              5.00    14.00670      N( 1.00)
        C              4.00    12.01100      C( 1.00)
        H              1.00     1.00790      H( 1.00)
        O              6.00    15.99940      O( 1.00)

      2 Sym. Ops., with inversion, found
          (note:  2 additional sym.ops. were found but ignored
           their fractional translations are incommensurate with FFT grid)

                                    s                        frac. trans.

      isym =  1     identity                                     

 cryst.   s( 1) = (     1          0          0      )
                  (     0          1          0      )
                  (     0          0          1      )

 cart.    s( 1) = (  1.0000000  0.0000000  0.0000000 )
                  (  0.0000000  1.0000000  0.0000000 )
                  (  0.0000000  0.0000000  1.0000000 )


      isym =  2     inversion                                    

 cryst.   s( 2) = (    -1          0          0      )
                  (     0         -1          0      )
                  (     0          0         -1      )

 cart.    s( 2) = ( -1.0000000  0.0000000 -0.0000000 )
                  (  0.0000000 -1.0000000  0.0000000 )
                  (  0.0000000  0.0000000 -1.0000000 )


   Cartesian axes

     site n.     atom                  positions (alat units)
         1           N   tau(   1) = (  -0.8614487   6.8444434   3.3109495  )
         2           O   tau(   2) = (   1.0746241   7.9096815   3.1371266  )
         3           N   tau(   3) = (   0.0618658   7.7221249   3.8135664  )
         4           N   tau(   4) = (  -2.0647129   5.7697560   5.0587833  )
         5           O   tau(   5) = (  -3.2542440   4.7069351   6.6110753  )
         6           N   tau(   6) = (  -3.2426279   5.5114399   5.6869828  )
         7           O   tau(   7) = (  -0.1753723   8.2085415   4.8971459  )
         8           C   tau(   8) = (  -2.1300386   6.7612680   3.9714764  )
         9           H   tau(   9) = (  -2.8138762   6.5024025   3.3338152  )
        10           H   tau(  10) = (  -2.3673225   7.6286213   4.3344616  )
        11           O   tau(  11) = (  -4.2140784   6.1608011   5.2929603  )
        12           C   tau(  12) = (  -0.5990533   6.2146399   2.0230832  )
        13           H   tau(  13) = (  -1.3903515   5.7475613   1.7138577  )
        14           H   tau(  14) = (  -0.3482788   6.8660888   1.3518761  )
        15           H   tau(  15) = (   3.7183358  -1.3723388  -2.2321008  )
        16           H   tau(  16) = (   2.6762631  -0.2538112  -1.8701191  )
        17           C   tau(  17) = (   3.4675614  -0.7208899  -1.5608936  )
        18           O   tau(  18) = (  -0.1474638  -0.6670511   1.7089835  )
        19           H   tau(  19) = (   1.6992921  -2.1348713   0.7504847  )
        20           H   tau(  20) = (   1.2527385  -1.0086525  -0.2501616  )
        21           C   tau(  21) = (   1.9365761  -1.2675180   0.3874996  )
        22           O   tau(  22) = (   3.8912424  -2.7147915   1.3131691  )
        23           N   tau(  23) = (   0.8239867  -0.0176899   2.1030059  )
        24           O   tau(  24) = (   0.8123707   0.7868149   3.0270985  )
        25           N   tau(  25) = (   2.0019018  -0.2760060   1.4748065  )
        26           N   tau(  26) = (   4.1284804  -2.2283749   0.2295896  )
        27           O   tau(  27) = (   5.1412387  -2.4159315  -0.4468502  )
        28           N   tau(  28) = (   3.2051660  -1.3506934  -0.2730274  )
        29           H   tau(  29) = (  -1.2560505   4.1214113   5.8160776  )
        30           H   tau(  30) = (  -0.2139778   5.2399388   5.4540959  )
        31           C   tau(  31) = (  -1.0052760   4.7728601   5.1448704  )
        32           O   tau(  32) = (   2.6097491   4.8266989   1.8749933  )
        33           H   tau(  33) = (   0.7629932   3.3588788   2.8334921  )
        34           H   tau(  34) = (   1.2095469   4.4850975   3.8341384  )
        35           C   tau(  35) = (   0.5257093   4.2262320   3.1964773  )
        36           O   tau(  36) = (  -1.4289570   2.7789585   2.2708077  )
        37           N   tau(  37) = (   1.6382987   5.4760601   1.4809709  )
        38           O   tau(  38) = (   1.6499147   6.2805649   0.5568783  )
        39           N   tau(  39) = (   0.4603836   5.2177440   2.1091704  )
        40           N   tau(  40) = (  -1.6661950   3.2653751   3.3543873  )
        41           O   tau(  41) = (  -2.6789534   3.0778185   4.0308271  )
        42           N   tau(  42) = (  -0.7428806   4.1430566   3.8570042  )
        43           H   tau(  43) = (   2.8105642   1.3723388   2.2321008  )
        44           H   tau(  44) = (   3.8526369   0.2538112   1.8701191  )
        45           C   tau(  45) = (   3.0613386   0.7208899   1.5608936  )
        46           O   tau(  46) = (   6.6763638   0.6670511  -1.7089835  )
        47           H   tau(  47) = (   4.8296079   2.1348713  -0.7504847  )
        48           H   tau(  48) = (   5.2761615   1.0086525   0.2501616  )
        49           C   tau(  49) = (   4.5923239   1.2675180  -0.3874996  )
        50           O   tau(  50) = (   2.6376576   2.7147915  -1.3131691  )
        51           N   tau(  51) = (   5.7049133   0.0176899  -2.1030059  )
        52           O   tau(  52) = (   5.7165293  -0.7868149  -3.0270985  )
        53           N   tau(  53) = (   4.5269982   0.2760060  -1.4748065  )
        54           N   tau(  54) = (   2.4004196   2.2283749  -0.2295896  )
        55           O   tau(  55) = (   1.3876613   2.4159315   0.4468502  )
        56           N   tau(  56) = (   3.3237340   1.3506934   0.2730274  )

   Crystallographic axes

     site n.     atom                  positions (cryst. coord.)
         1           N   tau(   1) = ( -0.0184400  0.6229300  0.4619100  )
         2           O   tau(   2) = (  0.2721400  0.7198800  0.4376600  )
         3           N   tau(   3) = (  0.1402100  0.7028100  0.5320300  )
         4           N   tau(   4) = ( -0.1428200  0.5251200  0.7057500  )
         5           O   tau(   5) = ( -0.2718000  0.4283900  0.9223100  )
         6           N   tau(   6) = ( -0.3017000  0.5016100  0.7933900  )
         7           O   tau(   7) = (  0.1410200  0.7470800  0.6832000  )
         8           C   tau(   8) = ( -0.1901000  0.6153600  0.5540600  )
         9           H   tau(   9) = ( -0.3167000  0.5918000  0.4651000  )
        10           H   tau(  10) = ( -0.2140000  0.6943000  0.6047000  )
        11           O   tau(  11) = ( -0.4640000  0.5607100  0.7384200  )
        12           C   tau(  12) = ( -0.0224000  0.5656100  0.2822400  )
        13           H   tau(  13) = ( -0.1542000  0.5231000  0.2391000  )
        14           H   tau(  14) = ( -0.0070000  0.6249000  0.1886000  )
        15           H   tau(  15) = (  0.4930000 -0.1249000 -0.3114000  )
        16           H   tau(  16) = (  0.3458000 -0.0231000 -0.2609000  )
        17           C   tau(  17) = (  0.4776000 -0.0656100 -0.2177600  )
        18           O   tau(  18) = (  0.0360000 -0.0607100  0.2384200  )
        19           H   tau(  19) = (  0.2860000 -0.1943000  0.1047000  )
        20           H   tau(  20) = (  0.1833000 -0.0918000 -0.0349000  )
        21           C   tau(  21) = (  0.3099000 -0.1153600  0.0540600  )
        22           O   tau(  22) = (  0.6410200 -0.2470800  0.1832000  )
        23           N   tau(  23) = (  0.1983000 -0.0016100  0.2933900  )
        24           O   tau(  24) = (  0.2282000  0.0716100  0.4223100  )
        25           N   tau(  25) = (  0.3571800 -0.0251200  0.2057500  )
        26           N   tau(  26) = (  0.6402100 -0.2028100  0.0320300  )
        27           O   tau(  27) = (  0.7721400 -0.2198800 -0.0623400  )
        28           N   tau(  28) = (  0.4815600 -0.1229300 -0.0380900  )
        29           H   tau(  29) = (  0.0070000  0.3751000  0.8114000  )
        30           H   tau(  30) = (  0.1542000  0.4769000  0.7609000  )
        31           C   tau(  31) = (  0.0224000  0.4343900  0.7177600  )
        32           O   tau(  32) = (  0.4640000  0.4392900  0.2615800  )
        33           H   tau(  33) = (  0.2140000  0.3057000  0.3953000  )
        34           H   tau(  34) = (  0.3167000  0.4082000  0.5349000  )
        35           C   tau(  35) = (  0.1901000  0.3846400  0.4459400  )
        36           O   tau(  36) = ( -0.1410200  0.2529200  0.3168000  )
        37           N   tau(  37) = (  0.3017000  0.4983900  0.2066100  )
        38           O   tau(  38) = (  0.2718000  0.5716100  0.0776900  )
        39           N   tau(  39) = (  0.1428200  0.4748800  0.2942500  )
        40           N   tau(  40) = ( -0.1402100  0.2971900  0.4679700  )
        41           O   tau(  41) = ( -0.2721400  0.2801200  0.5623400  )
        42           N   tau(  42) = (  0.0184400  0.3770700  0.5380900  )
        43           H   tau(  43) = (  0.5070000  0.1249000  0.3114000  )
        44           H   tau(  44) = (  0.6542000  0.0231000  0.2609000  )
        45           C   tau(  45) = (  0.5224000  0.0656100  0.2177600  )
        46           O   tau(  46) = (  0.9640000  0.0607100 -0.2384200  )
        47           H   tau(  47) = (  0.7140000  0.1943000 -0.1047000  )
        48           H   tau(  48) = (  0.8167000  0.0918000  0.0349000  )
        49           C   tau(  49) = (  0.6901000  0.1153600 -0.0540600  )
        50           O   tau(  50) = (  0.3589800  0.2470800 -0.1832000  )
        51           N   tau(  51) = (  0.8017000  0.0016100 -0.2933900  )
        52           O   tau(  52) = (  0.7718000 -0.0716100 -0.4223100  )
        53           N   tau(  53) = (  0.6428200  0.0251200 -0.2057500  )
        54           N   tau(  54) = (  0.3597900  0.2028100 -0.0320300  )
        55           O   tau(  55) = (  0.2278600  0.2198800  0.0623400  )
        56           N   tau(  56) = (  0.5184400  0.1229300  0.0380900  )

     number of k points=    16
                       cart. coord. in units 2pi/alat
        k(    1) = (   0.0191456   0.0227531   0.0217239), wk =   0.1250000
        k(    2) = (   0.0191456   0.0227531   0.0566014), wk =   0.1250000
        k(    3) = (   0.0191456   0.0227531  -0.0480310), wk =   0.1250000
        k(    4) = (   0.0191456   0.0227531  -0.0131536), wk =   0.1250000
        k(    5) = (   0.0574369   0.0227531   0.0302942), wk =   0.1250000
        k(    6) = (   0.0574369   0.0227531   0.0651717), wk =   0.1250000
        k(    7) = (   0.0574369   0.0227531  -0.0394607), wk =   0.1250000
        k(    8) = (   0.0574369   0.0227531  -0.0045832), wk =   0.1250000
        k(    9) = (  -0.0191456   0.0227531  -0.0217239), wk =   0.1250000
        k(   10) = (  -0.0191456   0.0227531  -0.0566014), wk =   0.1250000
        k(   11) = (  -0.0191456   0.0227531   0.0480310), wk =   0.1250000
        k(   12) = (  -0.0191456   0.0227531   0.0131536), wk =   0.1250000
        k(   13) = (  -0.0574369   0.0227531  -0.0302942), wk =   0.1250000
        k(   14) = (  -0.0574369   0.0227531  -0.0651717), wk =   0.1250000
        k(   15) = (  -0.0574369   0.0227531   0.0394607), wk =   0.1250000
        k(   16) = (  -0.0574369   0.0227531   0.0045832), wk =   0.1250000

                       cryst. coord.
        k(    1) = (   0.1250000   0.2500000   0.1250000), wk =   0.1250000
        k(    2) = (   0.1250000   0.2500000   0.3750000), wk =   0.1250000
        k(    3) = (   0.1250000   0.2500000  -0.3750000), wk =   0.1250000
        k(    4) = (   0.1250000   0.2500000  -0.1250000), wk =   0.1250000
        k(    5) = (   0.3750000   0.2500000   0.1250000), wk =   0.1250000
        k(    6) = (   0.3750000   0.2500000   0.3750000), wk =   0.1250000
        k(    7) = (   0.3750000   0.2500000  -0.3750000), wk =   0.1250000
        k(    8) = (   0.3750000   0.2500000  -0.1250000), wk =   0.1250000
        k(    9) = (  -0.1250000   0.2500000  -0.1250000), wk =   0.1250000
        k(   10) = (  -0.1250000   0.2500000  -0.3750000), wk =   0.1250000
        k(   11) = (  -0.1250000   0.2500000   0.3750000), wk =   0.1250000
        k(   12) = (  -0.1250000   0.2500000   0.1250000), wk =   0.1250000
        k(   13) = (  -0.3750000   0.2500000  -0.1250000), wk =   0.1250000
        k(   14) = (  -0.3750000   0.2500000  -0.3750000), wk =   0.1250000
        k(   15) = (  -0.3750000   0.2500000   0.3750000), wk =   0.1250000
        k(   16) = (  -0.3750000   0.2500000   0.1250000), wk =   0.1250000

     Dense  grid:  1325869 G-vectors     FFT dimensions: ( 120, 192, 125)

     Smooth grid:   335487 G-vectors     FFT dimensions: (  72, 120,  80)

     Largest allocated arrays     est. size (Mb)     dimensions
        Kohn-Sham Wavefunctions         2.26 Mb     (    1322,  112)
        NL pseudopotentials             7.10 Mb     (    1322,  352)
        Each V/rho on FFT grid          1.41 Mb     (   92160)
        Each G-vector array             0.32 Mb     (   41433)
        G-vector shells                 0.31 Mb     (   40706)
     Largest temporary arrays     est. size (Mb)     dimensions
        Auxiliary wavefunctions         9.04 Mb     (    1322,  448)
        Each subspace H/S matrix        3.06 Mb     (     448,  448)
        Each <psi_i|beta_j> matrix      0.60 Mb     (     352,  112)
        Arrays for rho mixing          11.25 Mb     (   92160,    8)

     Initial potential from superposition of free atoms

     starting charge  223.99937, renormalised to  224.00000
     Starting wfc are  176 randomized atomic wfcs
     Checking if some PAW data can be deallocated... 
       node    0, deallocated PAW data for type:  2
       node    0, deallocated PAW data for type:  3
       node    1, deallocated PAW data for type:  2
       node    1, deallocated PAW data for type:  3
       node    1, deallocated PAW data for type:  4
       node    2, deallocated PAW data for type:  2
       node    2, deallocated PAW data for type:  3
       node    3, deallocated PAW data for type:  1
       node    3, deallocated PAW data for type:  3
       node    4, deallocated PAW data for type:  1
       node    4, deallocated PAW data for type:  2
       node    4, deallocated PAW data for type:  4
       node    5, deallocated PAW data for type:  1
       node    5, deallocated PAW data for type:  3
       node    6, deallocated PAW data for type:  1
       node    6, deallocated PAW data for type:  2
       node    6, deallocated PAW data for type:  4
       node    7, deallocated PAW data for type:  1
       node    7, deallocated PAW data for type:  2
       node    7, deallocated PAW data for type:  4
       node    8, deallocated PAW data for type:  1
       node    8, deallocated PAW data for type:  3
       node    9, deallocated PAW data for type:  1
       node    9, deallocated PAW data for type:  2
       node    9, deallocated PAW data for type:  4
       node   10, deallocated PAW data for type:  1
       node   10, deallocated PAW data for type:  3
       node   11, deallocated PAW data for type:  2
       node   11, deallocated PAW data for type:  3
       node   12, deallocated PAW data for type:  2
       node   12, deallocated PAW data for type:  3
       node   12, deallocated PAW data for type:  4
       node   13, deallocated PAW data for type:  2
       node   13, deallocated PAW data for type:  3
       node   14, deallocated PAW data for type:  1
       node   14, deallocated PAW data for type:  2
       node   14, deallocated PAW data for type:  4
       node   15, deallocated PAW data for type:  1
       node   15, deallocated PAW data for type:  3
       node   16, deallocated PAW data for type:  1
       node   16, deallocated PAW data for type:  2
       node   16, deallocated PAW data for type:  4
       node   17, deallocated PAW data for type:  1
       node   17, deallocated PAW data for type:  3
       node   18, deallocated PAW data for type:  2
       node   18, deallocated PAW data for type:  3
       node   19, deallocated PAW data for type:  2
       node   19, deallocated PAW data for type:  3
       node   19, deallocated PAW data for type:  4
       node   20, deallocated PAW data for type:  2
       node   20, deallocated PAW data for type:  3
       node   21, deallocated PAW data for type:  1
       node   21, deallocated PAW data for type:  2
       node   21, deallocated PAW data for type:  4
       node   22, deallocated PAW data for type:  1
       node   22, deallocated PAW data for type:  3
       node   23, deallocated PAW data for type:  1
       node   23, deallocated PAW data for type:  2
       node   23, deallocated PAW data for type:  4
       node   24, deallocated PAW data for type:  1
       node   24, deallocated PAW data for type:  3
       node   24, deallocated PAW data for type:  4
       node   25, deallocated PAW data for type:  1
       node   25, deallocated PAW data for type:  2
       node   25, deallocated PAW data for type:  3
       node   26, deallocated PAW data for type:  2
       node   26, deallocated PAW data for type:  3
       node   26, deallocated PAW data for type:  4
       node   27, deallocated PAW data for type:  1
       node   27, deallocated PAW data for type:  2
       node   27, deallocated PAW data for type:  3
       node   28, deallocated PAW data for type:  2
       node   28, deallocated PAW data for type:  3
       node   28, deallocated PAW data for type:  4
       node   29, deallocated PAW data for type:  2
       node   29, deallocated PAW data for type:  3
       node   29, deallocated PAW data for type:  4
       node   30, deallocated PAW data for type:  1
       node   30, deallocated PAW data for type:  2
       node   30, deallocated PAW data for type:  3
       node   31, deallocated PAW data for type:  2
       node   31, deallocated PAW data for type:  3
       node   31, deallocated PAW data for type:  4

     total cpu time spent up to now is      143.3 secs

     per-process dynamical memory:    81.0 Mb

     Self-consistent Calculation

     iteration #  1     ecut=    80.00 Ry     beta=0.70
     Davidson diagonalization with overlap
     ethr =  1.00E-02,  avg # of iterations =  3.0

     total cpu time spent up to now is      323.2 secs

     total energy              =   -1279.58128225 Ry
     Harris-Foulkes estimate   =   -1283.95004377 Ry
     estimated scf accuracy    <       6.73344472 Ry

     iteration #  2     ecut=    80.00 Ry     beta=0.70
     Davidson diagonalization with overlap
     ethr =  3.01E-03,  avg # of iterations =  4.0

     total cpu time spent up to now is      502.2 secs

     total energy              =   -1280.25974314 Ry
     Harris-Foulkes estimate   =   -1283.75629944 Ry
     estimated scf accuracy    <       7.03777286 Ry

     iteration #  3     ecut=    80.00 Ry     beta=0.70
     Davidson diagonalization with overlap
     ethr =  3.01E-03,  avg # of iterations =  4.8

     total cpu time spent up to now is      653.7 secs

     total energy              =   -1281.77032852 Ry
     Harris-Foulkes estimate   =   -1281.99991285 Ry
     estimated scf accuracy    <       0.42430903 Ry

     iteration #  4     ecut=    80.00 Ry     beta=0.70
     Davidson diagonalization with overlap
     ethr =  1.89E-04,  avg # of iterations =  4.9

     total cpu time spent up to now is      834.5 secs

     total energy              =   -1281.92530060 Ry
     Harris-Foulkes estimate   =   -1282.01028986 Ry
     estimated scf accuracy    <       0.18572072 Ry

     iteration #  5     ecut=    80.00 Ry     beta=0.70
     Davidson diagonalization with overlap
     ethr =  8.29E-05,  avg # of iterations =  4.0

     total cpu time spent up to now is      986.5 secs

     total energy              =   -1281.96343674 Ry
     Harris-Foulkes estimate   =   -1281.97211151 Ry
     estimated scf accuracy    <       0.02146713 Ry

     iteration #  6     ecut=    80.00 Ry     beta=0.70
     Davidson diagonalization with overlap
     ethr =  9.58E-06,  avg # of iterations =  6.3

     total cpu time spent up to now is     1126.6 secs

     total energy              =   -1281.96656269 Ry
     Harris-Foulkes estimate   =   -1281.96816458 Ry
     estimated scf accuracy    <       0.00365422 Ry

     iteration #  7     ecut=    80.00 Ry     beta=0.70
     Davidson diagonalization with overlap
     ethr =  1.63E-06,  avg # of iterations =  4.7

     total cpu time spent up to now is     1317.0 secs

     total energy              =   -1281.96793269 Ry
     Harris-Foulkes estimate   =   -1281.96831516 Ry
     estimated scf accuracy    <       0.00095113 Ry

     iteration #  8     ecut=    80.00 Ry     beta=0.70
     Davidson diagonalization with overlap
     ethr =  4.25E-07,  avg # of iterations =  7.3

     total cpu time spent up to now is     1456.9 secs

     total energy              =   -1281.96804337 Ry
     Harris-Foulkes estimate   =   -1281.96810757 Ry
     estimated scf accuracy    <       0.00016789 Ry

     iteration #  9     ecut=    80.00 Ry     beta=0.70
     Davidson diagonalization with overlap
     ethr =  7.50E-08,  avg # of iterations =  4.3

     total cpu time spent up to now is     1640.5 secs

     total energy              =   -1281.96813525 Ry
     Harris-Foulkes estimate   =   -1281.96815767 Ry
     estimated scf accuracy    <       0.00007652 Ry

     iteration # 10     ecut=    80.00 Ry     beta=0.70
     Davidson diagonalization with overlap
     ethr =  3.42E-08,  avg # of iterations =  1.0

     total cpu time spent up to now is     1730.5 secs

     total energy              =   -1281.96812253 Ry
     Harris-Foulkes estimate   =   -1281.96813768 Ry
     estimated scf accuracy    <       0.00003802 Ry

     iteration # 11     ecut=    80.00 Ry     beta=0.70
     Davidson diagonalization with overlap
     ethr =  1.70E-08,  avg # of iterations =  4.0

     total cpu time spent up to now is     1925.0 secs

     total energy              =   -1281.96814272 Ry
     Harris-Foulkes estimate   =   -1281.96815071 Ry
     estimated scf accuracy    <       0.00004173 Ry

     iteration # 12     ecut=    80.00 Ry     beta=0.70
     Davidson diagonalization with overlap
     ethr =  1.70E-08,  avg # of iterations =  1.0

     total cpu time spent up to now is     2022.3 secs

     total energy              =   -1281.96813497 Ry
     Harris-Foulkes estimate   =   -1281.96814312 Ry
     estimated scf accuracy    <       0.00002847 Ry

     iteration # 13     ecut=    80.00 Ry     beta=0.70
     Davidson diagonalization with overlap
     ethr =  1.27E-08,  avg # of iterations =  5.0

     total cpu time spent up to now is     2169.0 secs

     total energy              =   -1281.96814213 Ry
     Harris-Foulkes estimate   =   -1281.96814354 Ry
     estimated scf accuracy    <       0.00000548 Ry

     iteration # 14     ecut=    80.00 Ry     beta=0.70
     Davidson diagonalization with overlap
     ethr =  2.45E-09,  avg # of iterations =  1.0

     total cpu time spent up to now is     2264.2 secs

     total energy              =   -1281.96814094 Ry
     Harris-Foulkes estimate   =   -1281.96814226 Ry
     estimated scf accuracy    <       0.00000319 Ry

     iteration # 15     ecut=    80.00 Ry     beta=0.70
     Davidson diagonalization with overlap
     ethr =  1.42E-09,  avg # of iterations =  5.0

     total cpu time spent up to now is     2429.2 secs

     total energy              =   -1281.96814251 Ry
     Harris-Foulkes estimate   =   -1281.96814289 Ry
     estimated scf accuracy    <       0.00000193 Ry

     iteration # 16     ecut=    80.00 Ry     beta=0.70
     Davidson diagonalization with overlap
     ethr =  8.60E-10,  avg # of iterations =  1.0

     total cpu time spent up to now is     2516.8 secs

     total energy              =   -1281.96814208 Ry
     Harris-Foulkes estimate   =   -1281.96814253 Ry
     estimated scf accuracy    <       0.00000132 Ry

     iteration # 17     ecut=    80.00 Ry     beta=0.70
     Davidson diagonalization with overlap
     ethr =  5.89E-10,  avg # of iterations =  5.0

     total cpu time spent up to now is     2661.9 secs

     End of self-consistent calculation

          k = 0.0191 0.0228 0.0217 ( 41927 PWs)   bands (ev):

   -24.0539 -24.0405 -24.0255 -24.0187 -23.6315 -23.6252 -23.6206 -23.6200
   -19.2308 -19.2275 -19.2165 -19.2082 -18.8193 -18.8188 -18.8149 -18.8143
   -18.2916 -18.2729 -17.2817 -17.2459 -17.1001 -17.0996 -16.1008 -16.0912
   -12.1494 -12.1476 -12.1253 -12.0459 -11.9512 -11.9044 -11.8432 -11.8267
    -8.9192  -8.8883  -8.3176  -8.2900  -7.5980  -7.5668  -7.4840  -7.4828
    -6.8687  -6.7841  -6.6021  -6.5671  -6.5586  -6.4378  -6.3603  -6.3207
    -6.1641  -6.1478  -6.0681  -5.9706  -5.9360  -5.8820  -5.7824  -5.7551
    -5.6878  -5.6605  -5.5841  -5.5609  -5.1299  -5.0338  -4.9730  -4.9505
    -4.5061  -4.4855  -4.4286  -4.4096  -4.2492  -4.1772  -3.8732  -3.8660
    -3.7114  -3.6484  -3.5744  -3.5515  -3.1874  -3.1606  -3.1033  -3.0870
    -0.7999  -0.7915  -0.3460  -0.3327  -0.2582  -0.1957  -0.1337  -0.1186
    -0.0246  -0.0012   0.1852   0.2040   0.2274   0.2465   0.3804   0.3901
     0.4211   0.4486   0.6198   0.6619   0.7411   0.7826   0.8636   0.8963
     0.9147   1.0068   1.0723   1.1279   1.2134   1.3104   1.3719   1.3838

     occupation numbers 
     1.0000   1.0000   1.0000   1.0000   1.0000   1.0000   1.0000   1.0000
     1.0000   1.0000   1.0000   1.0000   1.0000   1.0000   1.0000   1.0000
     1.0000   1.0000   1.0000   1.0000   1.0000   1.0000   1.0000   1.0000
     1.0000   1.0000   1.0000   1.0000   1.0000   1.0000   1.0000   1.0000
     1.0000   1.0000   1.0000   1.0000   1.0000   1.0000   1.0000   1.0000
     1.0000   1.0000   1.0000   1.0000   1.0000   1.0000   1.0000   1.0000
     1.0000   1.0000   1.0000   1.0000   1.0000   1.0000   1.0000   1.0000
     1.0000   1.0000   1.0000   1.0000   1.0000   1.0000   1.0000   1.0000
     1.0000   1.0000   1.0000   1.0000   1.0000   1.0000   1.0000   1.0000
     1.0000   1.0000   1.0000   1.0000   1.0000   1.0000   1.0000   1.0000
     1.0000   1.0000   1.0000   1.0000   1.0000   1.0000   1.0000   1.0000
     1.0000   1.0000   1.0000   1.0000   1.0000   1.0000   1.0000   1.0000
     1.0000   1.0000   1.0000   1.0000   1.0000   1.0000   1.0000   1.0000
     1.0000   1.0000   1.0000   1.0000   1.0000   1.0000   1.0000   1.0000

          k = 0.0191 0.0228 0.0566 ( 41938 PWs)   bands (ev):

   -24.0477 -24.0427 -24.0243 -24.0232 -23.6312 -23.6289 -23.6199 -23.6181
   -19.2287 -19.2258 -19.2177 -19.2117 -18.8249 -18.8244 -18.8102 -18.8097
   -18.2833 -18.2829 -17.2652 -17.2631 -17.0954 -17.0932 -16.0983 -16.0970
   -12.1583 -12.1575 -12.0808 -12.0655 -11.9276 -11.9199 -11.8539 -11.8467
    -8.8979  -8.8708  -8.3001  -8.2811  -7.6085  -7.5705  -7.4587  -7.4059
    -6.9148  -6.8264  -6.6217  -6.6087  -6.5450  -6.4444  -6.4040  -6.3774
    -6.2068  -6.1938  -5.9949  -5.9474  -5.9189  -5.8547  -5.8234  -5.7947
    -5.7566  -5.7055  -5.5141  -5.4839  -5.1244  -5.0600  -4.9679  -4.9284
    -4.4357  -4.4213  -4.4121  -4.3451  -4.1800  -4.1581  -3.9770  -3.9641
    -3.7088  -3.6829  -3.5383  -3.5288  -3.2087  -3.2031  -3.0913  -3.0690
    -0.7658  -0.7359  -0.3564  -0.3434  -0.2584  -0.2107  -0.1720  -0.1341
    -0.0848  -0.0423   0.0885   0.1340   0.2415   0.2794   0.3379   0.3545
     0.5424   0.5888   0.6386   0.6715   0.7691   0.7826   0.8110   0.8582
     0.9757   1.0126   1.0970   1.1205   1.2317   1.2833   1.3681   1.3802

     occupation numbers 
     1.0000   1.0000   1.0000   1.0000   1.0000   1.0000   1.0000   1.0000
     1.0000   1.0000   1.0000   1.0000   1.0000   1.0000   1.0000   1.0000
     1.0000   1.0000   1.0000   1.0000   1.0000   1.0000   1.0000   1.0000
     1.0000   1.0000   1.0000   1.0000   1.0000   1.0000   1.0000   1.0000
     1.0000   1.0000   1.0000   1.0000   1.0000   1.0000   1.0000   1.0000
     1.0000   1.0000   1.0000   1.0000   1.0000   1.0000   1.0000   1.0000
     1.0000   1.0000   1.0000   1.0000   1.0000   1.0000   1.0000   1.0000
     1.0000   1.0000   1.0000   1.0000   1.0000   1.0000   1.0000   1.0000
     1.0000   1.0000   1.0000   1.0000   1.0000   1.0000   1.0000   1.0000
     1.0000   1.0000   1.0000   1.0000   1.0000   1.0000   1.0000   1.0000
     1.0000   1.0000   1.0000   1.0000   1.0000   1.0000   1.0000   1.0000
     1.0000   1.0000   1.0000   1.0000   1.0000   1.0000   1.0000   1.0000
     1.0000   1.0000   1.0000   1.0000   1.0000   1.0000   1.0000   1.0000
     1.0000   1.0000   1.0000   1.0000   1.0000   1.0000   1.0000   1.0000

          k = 0.0191 0.0228-0.0480 ( 41942 PWs)   bands (ev):

   -24.0495 -24.0419 -24.0264 -24.0199 -23.6328 -23.6309 -23.6177 -23.6168
   -19.2272 -19.2256 -19.2166 -19.2148 -18.8268 -18.8260 -18.8084 -18.8079
   -18.2916 -18.2736 -17.2803 -17.2478 -17.0987 -17.0956 -16.1001 -16.0887
   -12.1673 -12.1579 -12.1073 -12.0474 -11.9442 -11.8915 -11.8564 -11.8449
    -8.9029  -8.8385  -8.2908  -8.2875  -7.6051  -7.5943  -7.4705  -7.3849
    -6.9137  -6.8336  -6.6353  -6.6069  -6.5177  -6.4990  -6.4277  -6.3980
    -6.2188  -6.1906  -6.0005  -5.9776  -5.8478  -5.8184  -5.8150  -5.7846
    -5.7700  -5.6985  -5.5181  -5.4697  -5.1384  -5.0614  -4.9543  -4.9079
    -4.4707  -4.4349  -4.3662  -4.3342  -4.2108  -4.1660  -3.9697  -3.9357
    -3.7224  -3.6886  -3.5748  -3.5178  -3.2110  -3.1962  -3.0841  -3.0789
    -0.7023  -0.6565  -0.3471  -0.3388  -0.2683  -0.2552  -0.2078  -0.1678
    -0.1244  -0.1068   0.0489   0.1125   0.2575   0.2852   0.3053   0.3440
     0.5835   0.6479   0.6846   0.7038   0.7197   0.8046   0.8360   0.8484
     0.9785   1.0144   1.1124   1.1547   1.2368   1.2556   1.3493   1.3670

     occupation numbers 
     1.0000   1.0000   1.0000   1.0000   1.0000   1.0000   1.0000   1.0000
     1.0000   1.0000   1.0000   1.0000   1.0000   1.0000   1.0000   1.0000
     1.0000   1.0000   1.0000   1.0000   1.0000   1.0000   1.0000   1.0000
     1.0000   1.0000   1.0000   1.0000   1.0000   1.0000   1.0000   1.0000
     1.0000   1.0000   1.0000   1.0000   1.0000   1.0000   1.0000   1.0000
     1.0000   1.0000   1.0000   1.0000   1.0000   1.0000   1.0000   1.0000
     1.0000   1.0000   1.0000   1.0000   1.0000   1.0000   1.0000   1.0000
     1.0000   1.0000   1.0000   1.0000   1.0000   1.0000   1.0000   1.0000
     1.0000   1.0000   1.0000   1.0000   1.0000   1.0000   1.0000   1.0000
     1.0000   1.0000   1.0000   1.0000   1.0000   1.0000   1.0000   1.0000
     1.0000   1.0000   1.0000   1.0000   1.0000   1.0000   1.0000   1.0000
     1.0000   1.0000   1.0000   1.0000   1.0000   1.0000   1.0000   1.0000
     1.0000   1.0000   1.0000   1.0000   1.0000   1.0000   1.0000   1.0000
     1.0000   1.0000   1.0000   1.0000   1.0000   1.0000   1.0000   1.0000

          k = 0.0191 0.0228-0.0132 ( 41942 PWs)   bands (ev):

   -24.0547 -24.0410 -24.0257 -24.0173 -23.6332 -23.6280 -23.6181 -23.6179
   -19.2301 -19.2266 -19.2168 -19.2097 -18.8233 -18.8222 -18.8109 -18.8108
   -18.2947 -18.2687 -17.2879 -17.2395 -17.1037 -17.1019 -16.1002 -16.0853
   -12.1628 -12.1501 -12.1283 -12.0488 -11.9473 -11.8949 -11.8413 -11.8268
    -8.9252  -8.8551  -8.3125  -8.2927  -7.6031  -7.5856  -7.5094  -7.4467
    -6.8316  -6.8136  -6.6273  -6.5686  -6.5426  -6.4762  -6.3944  -6.3509
    -6.1791  -6.1609  -6.0238  -5.9857  -5.8945  -5.8566  -5.7629  -5.7534
    -5.6848  -5.6677  -5.5776  -5.5552  -5.1151  -5.0706  -4.9561  -4.9150
    -4.5080  -4.4806  -4.4396  -4.4144  -4.2530  -4.1880  -3.8749  -3.8187
    -3.7563  -3.6574  -3.5790  -3.5522  -3.1917  -3.1603  -3.0989  -3.0895
    -0.7492  -0.7356  -0.3353  -0.3242  -0.2567  -0.2034  -0.1348  -0.1230
    -0.0901  -0.0598   0.0705   0.1197   0.1984   0.2573   0.3347   0.3861
     0.5544   0.5950   0.6123   0.6938   0.7163   0.7867   0.8814   0.8829
     0.9296   0.9911   1.0990   1.1577   1.2075   1.2924   1.3574   1.3682

     occupation numbers 
     1.0000   1.0000   1.0000   1.0000   1.0000   1.0000   1.0000   1.0000
     1.0000   1.0000   1.0000   1.0000   1.0000   1.0000   1.0000   1.0000
     1.0000   1.0000   1.0000   1.0000   1.0000   1.0000   1.0000   1.0000
     1.0000   1.0000   1.0000   1.0000   1.0000   1.0000   1.0000   1.0000
     1.0000   1.0000   1.0000   1.0000   1.0000   1.0000   1.0000   1.0000
     1.0000   1.0000   1.0000   1.0000   1.0000   1.0000   1.0000   1.0000
     1.0000   1.0000   1.0000   1.0000   1.0000   1.0000   1.0000   1.0000
     1.0000   1.0000   1.0000   1.0000   1.0000   1.0000   1.0000   1.0000
     1.0000   1.0000   1.0000   1.0000   1.0000   1.0000   1.0000   1.0000
     1.0000   1.0000   1.0000   1.0000   1.0000   1.0000   1.0000   1.0000
     1.0000   1.0000   1.0000   1.0000   1.0000   1.0000   1.0000   1.0000
     1.0000   1.0000   1.0000   1.0000   1.0000   1.0000   1.0000   1.0000
     1.0000   1.0000   1.0000   1.0000   1.0000   1.0000   1.0000   1.0000
     1.0000   1.0000   1.0000   1.0000   1.0000   1.0000   1.0000   1.0000

          k = 0.0574 0.0228 0.0303 ( 41898 PWs)   bands (ev):

   -24.0459 -24.0407 -24.0246 -24.0237 -23.6290 -23.6263 -23.6232 -23.6216
   -19.2283 -19.2259 -19.2184 -19.2126 -18.8222 -18.8212 -18.8129 -18.8129
   -18.2890 -18.2887 -17.2606 -17.2586 -17.1035 -17.1016 -16.0988 -16.0973
   -12.1467 -12.1462 -12.0519 -12.0365 -11.9029 -11.8928 -11.8506 -11.8395
    -8.9169  -8.8918  -8.3174  -8.3000  -7.5893  -7.5745  -7.5436  -7.5072
    -6.9977  -6.9444  -6.6467  -6.5738  -6.5217  -6.4712  -6.3220  -6.2682
    -6.2282  -6.1742  -6.0363  -5.9878  -5.9069  -5.8702  -5.7849  -5.7613
    -5.6829  -5.6552  -5.5967  -5.5854  -5.1511  -5.0672  -4.9362  -4.9298
    -4.4756  -4.4614  -4.4222  -4.3807  -4.0622  -4.0167  -3.8234  -3.8107
    -3.7226  -3.6967  -3.6554  -3.6368  -3.1843  -3.1794  -3.1079  -3.0814
    -0.7556  -0.7394  -0.3227  -0.3164  -0.2497  -0.2229  -0.1236  -0.0989
    -0.0836  -0.0669   0.1169   0.1323   0.2074   0.2246   0.3552   0.3676
     0.5788   0.5867   0.6279   0.6763   0.7712   0.7761   0.8607   0.8828
     0.9260   0.9763   1.0017   1.0494   1.2860   1.3030   1.3540   1.3807

     occupation numbers 
     1.0000   1.0000   1.0000   1.0000   1.0000   1.0000   1.0000   1.0000
     1.0000   1.0000   1.0000   1.0000   1.0000   1.0000   1.0000   1.0000
     1.0000   1.0000   1.0000   1.0000   1.0000   1.0000   1.0000   1.0000
     1.0000   1.0000   1.0000   1.0000   1.0000   1.0000   1.0000   1.0000
     1.0000   1.0000   1.0000   1.0000   1.0000   1.0000   1.0000   1.0000
     1.0000   1.0000   1.0000   1.0000   1.0000   1.0000   1.0000   1.0000
     1.0000   1.0000   1.0000   1.0000   1.0000   1.0000   1.0000   1.0000
     1.0000   1.0000   1.0000   1.0000   1.0000   1.0000   1.0000   1.0000
     1.0000   1.0000   1.0000   1.0000   1.0000   1.0000   1.0000   1.0000
     1.0000   1.0000   1.0000   1.0000   1.0000   1.0000   1.0000   1.0000
     1.0000   1.0000   1.0000   1.0000   1.0000   1.0000   1.0000   1.0000
     1.0000   1.0000   1.0000   1.0000   1.0000   1.0000   1.0000   1.0000
     1.0000   1.0000   1.0000   1.0000   1.0000   1.0000   1.0000   1.0000
     1.0000   1.0000   1.0000   1.0000   1.0000   1.0000   1.0000   1.0000

          k = 0.0574 0.0228 0.0652 ( 41938 PWs)   bands (ev):

   -24.0432 -24.0426 -24.0269 -24.0213 -23.6281 -23.6278 -23.6248 -23.6201
   -19.2284 -19.2266 -19.2188 -19.2125 -18.8317 -18.8301 -18.8054 -18.8040
   -18.3002 -18.2828 -17.2744 -17.2439 -17.0933 -17.0887 -16.1125 -16.0989
   -12.1596 -12.1569 -12.0735 -12.0168 -11.8989 -11.8628 -11.8565 -11.8460
    -8.9497  -8.8559  -8.3109  -8.2819  -7.5894  -7.5686  -7.5082  -7.4138
    -7.0761  -6.9224  -6.6399  -6.5637  -6.5487  -6.4703  -6.4116  -6.3379
    -6.2920  -6.2262  -6.0177  -5.9938  -5.9219  -5.8806  -5.8230  -5.7789
    -5.6737  -5.6290  -5.5333  -5.4817  -5.1578  -5.0344  -4.9959  -4.9427
    -4.4180  -4.3979  -4.3677  -4.3304  -4.0229  -3.9811  -3.8960  -3.8838
    -3.7840  -3.7356  -3.6530  -3.5892  -3.2173  -3.1999  -3.1003  -3.0519
    -0.8259  -0.7862  -0.3289  -0.3015  -0.2477  -0.2246  -0.1229  -0.1015
    -0.0276  -0.0171   0.1858   0.2100   0.2347   0.2531   0.3295   0.3997
     0.4782   0.4946   0.5672   0.6671   0.7425   0.7923   0.8400   0.8641
     0.9552   0.9974   1.0202   1.0510   1.2992   1.3251   1.3598   1.3886

     occupation numbers 
     1.0000   1.0000   1.0000   1.0000   1.0000   1.0000   1.0000   1.0000
     1.0000   1.0000   1.0000   1.0000   1.0000   1.0000   1.0000   1.0000
     1.0000   1.0000   1.0000   1.0000   1.0000   1.0000   1.0000   1.0000
     1.0000   1.0000   1.0000   1.0000   1.0000   1.0000   1.0000   1.0000
     1.0000   1.0000   1.0000   1.0000   1.0000   1.0000   1.0000   1.0000
     1.0000   1.0000   1.0000   1.0000   1.0000   1.0000   1.0000   1.0000
     1.0000   1.0000   1.0000   1.0000   1.0000   1.0000   1.0000   1.0000
     1.0000   1.0000   1.0000   1.0000   1.0000   1.0000   1.0000   1.0000
     1.0000   1.0000   1.0000   1.0000   1.0000   1.0000   1.0000   1.0000
     1.0000   1.0000   1.0000   1.0000   1.0000   1.0000   1.0000   1.0000
     1.0000   1.0000   1.0000   1.0000   1.0000   1.0000   1.0000   1.0000
     1.0000   1.0000   1.0000   1.0000   1.0000   1.0000   1.0000   1.0000
     1.0000   1.0000   1.0000   1.0000   1.0000   1.0000   1.0000   1.0000
     1.0000   1.0000   1.0000   1.0000   1.0000   1.0000   1.0000   1.0000

          k = 0.0574 0.0228-0.0395 ( 41917 PWs)   bands (ev):

   -24.0463 -24.0408 -24.0276 -24.0193 -23.6310 -23.6306 -23.6212 -23.6180
   -19.2268 -19.2260 -19.2188 -19.2149 -18.8328 -18.8311 -18.8043 -18.8029
   -18.3035 -18.2784 -17.2815 -17.2364 -17.0963 -17.0916 -16.1113 -16.0934
   -12.1632 -12.1594 -12.0931 -12.0074 -11.9055 -11.8616 -11.8510 -11.8364
    -8.9437  -8.8347  -8.3066  -8.2830  -7.5882  -7.5709  -7.5307  -7.4036
    -7.0852  -6.9200  -6.6344  -6.5722  -6.5553  -6.5010  -6.4514  -6.3526
    -6.2897  -6.2177  -6.0051  -5.9594  -5.9000  -5.8924  -5.8188  -5.7819
    -5.6552  -5.6228  -5.5393  -5.4791  -5.1584  -5.0627  -4.9631  -4.9242
    -4.4301  -4.4025  -4.3569  -4.3284  -4.0369  -3.9996  -3.8669  -3.8481
    -3.7707  -3.7538  -3.6971  -3.6004  -3.2193  -3.1969  -3.0966  -3.0581
    -0.7844  -0.7279  -0.3224  -0.2876  -0.2532  -0.2299  -0.1351  -0.1129
    -0.0991  -0.0521   0.1148   0.1803   0.2322   0.2680   0.2818   0.3089
     0.5408   0.6010   0.6448   0.6591   0.7476   0.7854   0.8513   0.8630
     0.9555   0.9870   1.0476   1.0909   1.3162   1.3270   1.3336   1.3520

     occupation numbers 
     1.0000   1.0000   1.0000   1.0000   1.0000   1.0000   1.0000   1.0000
     1.0000   1.0000   1.0000   1.0000   1.0000   1.0000   1.0000   1.0000
     1.0000   1.0000   1.0000   1.0000   1.0000   1.0000   1.0000   1.0000
     1.0000   1.0000   1.0000   1.0000   1.0000   1.0000   1.0000   1.0000
     1.0000   1.0000   1.0000   1.0000   1.0000   1.0000   1.0000   1.0000
     1.0000   1.0000   1.0000   1.0000   1.0000   1.0000   1.0000   1.0000
     1.0000   1.0000   1.0000   1.0000   1.0000   1.0000   1.0000   1.0000
     1.0000   1.0000   1.0000   1.0000   1.0000   1.0000   1.0000   1.0000
     1.0000   1.0000   1.0000   1.0000   1.0000   1.0000   1.0000   1.0000
     1.0000   1.0000   1.0000   1.0000   1.0000   1.0000   1.0000   1.0000
     1.0000   1.0000   1.0000   1.0000   1.0000   1.0000   1.0000   1.0000
     1.0000   1.0000   1.0000   1.0000   1.0000   1.0000   1.0000   1.0000
     1.0000   1.0000   1.0000   1.0000   1.0000   1.0000   1.0000   1.0000
     1.0000   1.0000   1.0000   1.0000   1.0000   1.0000   1.0000   1.0000

          k = 0.0574 0.0228-0.0046 ( 41921 PWs)   bands (ev):

   -24.0476 -24.0401 -24.0267 -24.0203 -23.6315 -23.6294 -23.6201 -23.6190
   -19.2268 -19.2253 -19.2175 -19.2157 -18.8249 -18.8238 -18.8103 -18.8100
   -18.2974 -18.2792 -17.2761 -17.2426 -17.1064 -17.1047 -16.1006 -16.0890
   -12.1506 -12.1484 -12.0848 -12.0136 -11.9175 -11.8757 -11.8427 -11.8404
    -8.9221  -8.8588  -8.3095  -8.3053  -7.5892  -7.5828  -7.5687  -7.4897
    -7.0017  -6.9386  -6.6237  -6.6032  -6.5190  -6.5142  -6.3620  -6.3264
    -6.1956  -6.1873  -5.9806  -5.9529  -5.8824  -5.8631  -5.7856  -5.7761
    -5.6740  -5.6561  -5.5959  -5.5901  -5.1246  -5.1085  -4.9131  -4.9063
    -4.4798  -4.4583  -4.4222  -4.3896  -4.0541  -4.0382  -3.7935  -3.7881
    -3.7450  -3.7002  -3.6732  -3.6569  -3.1951  -3.1723  -3.1001  -3.0891
    -0.7015  -0.6639  -0.3164  -0.3097  -0.2417  -0.2223  -0.2030  -0.1839
    -0.1054  -0.0763   0.0682   0.1190   0.1981   0.2299   0.3297   0.3596
     0.5593   0.6213   0.6975   0.7329   0.7439   0.8001   0.8756   0.8878
     0.9360   0.9501   1.0215   1.0925   1.3005   1.3016   1.3287   1.3445

     occupation numbers 
     1.0000   1.0000   1.0000   1.0000   1.0000   1.0000   1.0000   1.0000
     1.0000   1.0000   1.0000   1.0000   1.0000   1.0000   1.0000   1.0000
     1.0000   1.0000   1.0000   1.0000   1.0000   1.0000   1.0000   1.0000
     1.0000   1.0000   1.0000   1.0000   1.0000   1.0000   1.0000   1.0000
     1.0000   1.0000   1.0000   1.0000   1.0000   1.0000   1.0000   1.0000
     1.0000   1.0000   1.0000   1.0000   1.0000   1.0000   1.0000   1.0000
     1.0000   1.0000   1.0000   1.0000   1.0000   1.0000   1.0000   1.0000
     1.0000   1.0000   1.0000   1.0000   1.0000   1.0000   1.0000   1.0000
     1.0000   1.0000   1.0000   1.0000   1.0000   1.0000   1.0000   1.0000
     1.0000   1.0000   1.0000   1.0000   1.0000   1.0000   1.0000   1.0000
     1.0000   1.0000   1.0000   1.0000   1.0000   1.0000   1.0000   1.0000
     1.0000   1.0000   1.0000   1.0000   1.0000   1.0000   1.0000   1.0000
     1.0000   1.0000   1.0000   1.0000   1.0000   1.0000   1.0000   1.0000
     1.0000   1.0000   1.0000   1.0000   1.0000   1.0000   1.0000   1.0000

          k =-0.0191 0.0228-0.0217 ( 41927 PWs)   bands (ev):

   -24.0539 -24.0405 -24.0255 -24.0187 -23.6315 -23.6252 -23.6206 -23.6200
   -19.2308 -19.2275 -19.2165 -19.2082 -18.8193 -18.8188 -18.8149 -18.8143
   -18.2916 -18.2729 -17.2817 -17.2459 -17.1001 -17.0997 -16.1008 -16.0912
   -12.1494 -12.1476 -12.1253 -12.0459 -11.9512 -11.9044 -11.8432 -11.8267
    -8.9192  -8.8883  -8.3176  -8.2900  -7.5980  -7.5668  -7.4840  -7.4829
    -6.8687  -6.7841  -6.6021  -6.5671  -6.5587  -6.4378  -6.3603  -6.3207
    -6.1641  -6.1478  -6.0681  -5.9706  -5.9360  -5.8820  -5.7824  -5.7551
    -5.6878  -5.6605  -5.5840  -5.5609  -5.1299  -5.0338  -4.9730  -4.9505
    -4.5061  -4.4855  -4.4286  -4.4096  -4.2492  -4.1772  -3.8732  -3.8660
    -3.7114  -3.6485  -3.5744  -3.5515  -3.1874  -3.1606  -3.1033  -3.0870
    -0.8000  -0.7915  -0.3460  -0.3327  -0.2582  -0.1957  -0.1337  -0.1186
    -0.0246  -0.0012   0.1852   0.2040   0.2274   0.2465   0.3804   0.3901
     0.4211   0.4486   0.6198   0.6619   0.7411   0.7826   0.8636   0.8963
     0.9147   1.0068   1.0723   1.1279   1.2134   1.3104   1.3719   1.3838

     occupation numbers 
     1.0000   1.0000   1.0000   1.0000   1.0000   1.0000   1.0000   1.0000
     1.0000   1.0000   1.0000   1.0000   1.0000   1.0000   1.0000   1.0000
     1.0000   1.0000   1.0000   1.0000   1.0000   1.0000   1.0000   1.0000
     1.0000   1.0000   1.0000   1.0000   1.0000   1.0000   1.0000   1.0000
     1.0000   1.0000   1.0000   1.0000   1.0000   1.0000   1.0000   1.0000
     1.0000   1.0000   1.0000   1.0000   1.0000   1.0000   1.0000   1.0000
     1.0000   1.0000   1.0000   1.0000   1.0000   1.0000   1.0000   1.0000
     1.0000   1.0000   1.0000   1.0000   1.0000   1.0000   1.0000   1.0000
     1.0000   1.0000   1.0000   1.0000   1.0000   1.0000   1.0000   1.0000
     1.0000   1.0000   1.0000   1.0000   1.0000   1.0000   1.0000   1.0000
     1.0000   1.0000   1.0000   1.0000   1.0000   1.0000   1.0000   1.0000
     1.0000   1.0000   1.0000   1.0000   1.0000   1.0000   1.0000   1.0000
     1.0000   1.0000   1.0000   1.0000   1.0000   1.0000   1.0000   1.0000
     1.0000   1.0000   1.0000   1.0000   1.0000   1.0000   1.0000   1.0000

          k =-0.0191 0.0228-0.0566 ( 41938 PWs)   bands (ev):

   -24.0477 -24.0427 -24.0243 -24.0232 -23.6312 -23.6289 -23.6199 -23.6181
   -19.2287 -19.2259 -19.2177 -19.2117 -18.8249 -18.8244 -18.8102 -18.8097
   -18.2833 -18.2830 -17.2652 -17.2631 -17.0954 -17.0932 -16.0983 -16.0970
   -12.1583 -12.1575 -12.0808 -12.0655 -11.9276 -11.9199 -11.8539 -11.8467
    -8.8979  -8.8708  -8.3001  -8.2811  -7.6085  -7.5705  -7.4587  -7.4059
    -6.9148  -6.8264  -6.6217  -6.6087  -6.5450  -6.4444  -6.4040  -6.3774
    -6.2068  -6.1938  -5.9949  -5.9474  -5.9188  -5.8547  -5.8234  -5.7947
    -5.7567  -5.7056  -5.5141  -5.4839  -5.1244  -5.0600  -4.9679  -4.9284
    -4.4357  -4.4213  -4.4121  -4.3451  -4.1800  -4.1581  -3.9770  -3.9641
    -3.7088  -3.6829  -3.5383  -3.5288  -3.2088  -3.2031  -3.0913  -3.0690
    -0.7658  -0.7359  -0.3564  -0.3434  -0.2584  -0.2107  -0.1720  -0.1341
    -0.0848  -0.0424   0.0885   0.1340   0.2415   0.2793   0.3379   0.3545
     0.5424   0.5888   0.6386   0.6715   0.7691   0.7826   0.8110   0.8582
     0.9757   1.0126   1.0970   1.1205   1.2317   1.2833   1.3681   1.3802

     occupation numbers 
     1.0000   1.0000   1.0000   1.0000   1.0000   1.0000   1.0000   1.0000
     1.0000   1.0000   1.0000   1.0000   1.0000   1.0000   1.0000   1.0000
     1.0000   1.0000   1.0000   1.0000   1.0000   1.0000   1.0000   1.0000
     1.0000   1.0000   1.0000   1.0000   1.0000   1.0000   1.0000   1.0000
     1.0000   1.0000   1.0000   1.0000   1.0000   1.0000   1.0000   1.0000
     1.0000   1.0000   1.0000   1.0000   1.0000   1.0000   1.0000   1.0000
     1.0000   1.0000   1.0000   1.0000   1.0000   1.0000   1.0000   1.0000
     1.0000   1.0000   1.0000   1.0000   1.0000   1.0000   1.0000   1.0000
     1.0000   1.0000   1.0000   1.0000   1.0000   1.0000   1.0000   1.0000
     1.0000   1.0000   1.0000   1.0000   1.0000   1.0000   1.0000   1.0000
     1.0000   1.0000   1.0000   1.0000   1.0000   1.0000   1.0000   1.0000
     1.0000   1.0000   1.0000   1.0000   1.0000   1.0000   1.0000   1.0000
     1.0000   1.0000   1.0000   1.0000   1.0000   1.0000   1.0000   1.0000
     1.0000   1.0000   1.0000   1.0000   1.0000   1.0000   1.0000   1.0000

          k =-0.0191 0.0228 0.0480 ( 41942 PWs)   bands (ev):

   -24.0495 -24.0420 -24.0264 -24.0199 -23.6328 -23.6309 -23.6177 -23.6168
   -19.2272 -19.2256 -19.2167 -19.2148 -18.8268 -18.8260 -18.8084 -18.8079
   -18.2916 -18.2736 -17.2803 -17.2478 -17.0987 -17.0956 -16.1001 -16.0887
   -12.1673 -12.1579 -12.1073 -12.0474 -11.9442 -11.8915 -11.8564 -11.8449
    -8.9029  -8.8385  -8.2908  -8.2875  -7.6051  -7.5943  -7.4705  -7.3849
    -6.9137  -6.8336  -6.6353  -6.6069  -6.5177  -6.4989  -6.4277  -6.3980
    -6.2188  -6.1906  -6.0006  -5.9776  -5.8478  -5.8184  -5.8150  -5.7846
    -5.7700  -5.6985  -5.5181  -5.4697  -5.1384  -5.0614  -4.9544  -4.9079
    -4.4707  -4.4349  -4.3662  -4.3342  -4.2108  -4.1660  -3.9697  -3.9357
    -3.7224  -3.6886  -3.5748  -3.5178  -3.2110  -3.1962  -3.0841  -3.0789
    -0.7023  -0.6565  -0.3471  -0.3388  -0.2684  -0.2552  -0.2078  -0.1677
    -0.1244  -0.1068   0.0489   0.1125   0.2575   0.2853   0.3053   0.3440
     0.5835   0.6480   0.6846   0.7038   0.7197   0.8046   0.8360   0.8484
     0.9785   1.0144   1.1124   1.1547   1.2368   1.2556   1.3493   1.3670

     occupation numbers 
     1.0000   1.0000   1.0000   1.0000   1.0000   1.0000   1.0000   1.0000
     1.0000   1.0000   1.0000   1.0000   1.0000   1.0000   1.0000   1.0000
     1.0000   1.0000   1.0000   1.0000   1.0000   1.0000   1.0000   1.0000
     1.0000   1.0000   1.0000   1.0000   1.0000   1.0000   1.0000   1.0000
     1.0000   1.0000   1.0000   1.0000   1.0000   1.0000   1.0000   1.0000
     1.0000   1.0000   1.0000   1.0000   1.0000   1.0000   1.0000   1.0000
     1.0000   1.0000   1.0000   1.0000   1.0000   1.0000   1.0000   1.0000
     1.0000   1.0000   1.0000   1.0000   1.0000   1.0000   1.0000   1.0000
     1.0000   1.0000   1.0000   1.0000   1.0000   1.0000   1.0000   1.0000
     1.0000   1.0000   1.0000   1.0000   1.0000   1.0000   1.0000   1.0000
     1.0000   1.0000   1.0000   1.0000   1.0000   1.0000   1.0000   1.0000
     1.0000   1.0000   1.0000   1.0000   1.0000   1.0000   1.0000   1.0000
     1.0000   1.0000   1.0000   1.0000   1.0000   1.0000   1.0000   1.0000
     1.0000   1.0000   1.0000   1.0000   1.0000   1.0000   1.0000   1.0000

          k =-0.0191 0.0228 0.0132 ( 41942 PWs)   bands (ev):

   -24.0547 -24.0410 -24.0257 -24.0173 -23.6332 -23.6280 -23.6181 -23.6178
   -19.2301 -19.2266 -19.2168 -19.2097 -18.8233 -18.8223 -18.8109 -18.8108
   -18.2947 -18.2687 -17.2879 -17.2395 -17.1037 -17.1019 -16.1002 -16.0853
   -12.1629 -12.1501 -12.1284 -12.0488 -11.9473 -11.8949 -11.8413 -11.8268
    -8.9252  -8.8551  -8.3125  -8.2927  -7.6032  -7.5856  -7.5094  -7.4467
    -6.8316  -6.8136  -6.6273  -6.5687  -6.5425  -6.4762  -6.3944  -6.3509
    -6.1790  -6.1608  -6.0238  -5.9857  -5.8945  -5.8566  -5.7629  -5.7534
    -5.6848  -5.6677  -5.5776  -5.5552  -5.1151  -5.0706  -4.9562  -4.9150
    -4.5080  -4.4806  -4.4396  -4.4144  -4.2530  -4.1880  -3.8749  -3.8187
    -3.7563  -3.6574  -3.5790  -3.5522  -3.1917  -3.1603  -3.0989  -3.0895
    -0.7492  -0.7356  -0.3353  -0.3242  -0.2568  -0.2034  -0.1348  -0.1230
    -0.0901  -0.0598   0.0705   0.1197   0.1984   0.2573   0.3346   0.3861
     0.5544   0.5950   0.6123   0.6938   0.7164   0.7867   0.8814   0.8829
     0.9296   0.9911   1.0990   1.1577   1.2076   1.2924   1.3574   1.3682

     occupation numbers 
     1.0000   1.0000   1.0000   1.0000   1.0000   1.0000   1.0000   1.0000
     1.0000   1.0000   1.0000   1.0000   1.0000   1.0000   1.0000   1.0000
     1.0000   1.0000   1.0000   1.0000   1.0000   1.0000   1.0000   1.0000
     1.0000   1.0000   1.0000   1.0000   1.0000   1.0000   1.0000   1.0000
     1.0000   1.0000   1.0000   1.0000   1.0000   1.0000   1.0000   1.0000
     1.0000   1.0000   1.0000   1.0000   1.0000   1.0000   1.0000   1.0000
     1.0000   1.0000   1.0000   1.0000   1.0000   1.0000   1.0000   1.0000
     1.0000   1.0000   1.0000   1.0000   1.0000   1.0000   1.0000   1.0000
     1.0000   1.0000   1.0000   1.0000   1.0000   1.0000   1.0000   1.0000
     1.0000   1.0000   1.0000   1.0000   1.0000   1.0000   1.0000   1.0000
     1.0000   1.0000   1.0000   1.0000   1.0000   1.0000   1.0000   1.0000
     1.0000   1.0000   1.0000   1.0000   1.0000   1.0000   1.0000   1.0000
     1.0000   1.0000   1.0000   1.0000   1.0000   1.0000   1.0000   1.0000
     1.0000   1.0000   1.0000   1.0000   1.0000   1.0000   1.0000   1.0000

          k =-0.0574 0.0228-0.0303 ( 41898 PWs)   bands (ev):

   -24.0459 -24.0407 -24.0246 -24.0237 -23.6290 -23.6263 -23.6232 -23.6216
   -19.2283 -19.2259 -19.2184 -19.2126 -18.8222 -18.8212 -18.8129 -18.8128
   -18.2890 -18.2887 -17.2606 -17.2586 -17.1035 -17.1016 -16.0988 -16.0973
   -12.1467 -12.1462 -12.0519 -12.0365 -11.9029 -11.8928 -11.8506 -11.8395
    -8.9169  -8.8918  -8.3174  -8.3000  -7.5893  -7.5745  -7.5436  -7.5072
    -6.9977  -6.9444  -6.6467  -6.5738  -6.5217  -6.4712  -6.3221  -6.2682
    -6.2282  -6.1742  -6.0363  -5.9878  -5.9069  -5.8702  -5.7850  -5.7613
    -5.6829  -5.6552  -5.5967  -5.5854  -5.1511  -5.0672  -4.9362  -4.9298
    -4.4756  -4.4614  -4.4222  -4.3807  -4.0622  -4.0167  -3.8234  -3.8107
    -3.7226  -3.6967  -3.6554  -3.6368  -3.1843  -3.1795  -3.1079  -3.0814
    -0.7556  -0.7394  -0.3227  -0.3164  -0.2498  -0.2229  -0.1236  -0.0989
    -0.0836  -0.0669   0.1169   0.1323   0.2074   0.2246   0.3552   0.3676
     0.5788   0.5867   0.6279   0.6763   0.7712   0.7761   0.8607   0.8828
     0.9260   0.9763   1.0017   1.0493   1.2860   1.3030   1.3540   1.3807

     occupation numbers 
     1.0000   1.0000   1.0000   1.0000   1.0000   1.0000   1.0000   1.0000
     1.0000   1.0000   1.0000   1.0000   1.0000   1.0000   1.0000   1.0000
     1.0000   1.0000   1.0000   1.0000   1.0000   1.0000   1.0000   1.0000
     1.0000   1.0000   1.0000   1.0000   1.0000   1.0000   1.0000   1.0000
     1.0000   1.0000   1.0000   1.0000   1.0000   1.0000   1.0000   1.0000
     1.0000   1.0000   1.0000   1.0000   1.0000   1.0000   1.0000   1.0000
     1.0000   1.0000   1.0000   1.0000   1.0000   1.0000   1.0000   1.0000
     1.0000   1.0000   1.0000   1.0000   1.0000   1.0000   1.0000   1.0000
     1.0000   1.0000   1.0000   1.0000   1.0000   1.0000   1.0000   1.0000
     1.0000   1.0000   1.0000   1.0000   1.0000   1.0000   1.0000   1.0000
     1.0000   1.0000   1.0000   1.0000   1.0000   1.0000   1.0000   1.0000
     1.0000   1.0000   1.0000   1.0000   1.0000   1.0000   1.0000   1.0000
     1.0000   1.0000   1.0000   1.0000   1.0000   1.0000   1.0000   1.0000
     1.0000   1.0000   1.0000   1.0000   1.0000   1.0000   1.0000   1.0000

          k =-0.0574 0.0228-0.0652 ( 41938 PWs)   bands (ev):

   -24.0432 -24.0426 -24.0269 -24.0213 -23.6281 -23.6278 -23.6248 -23.6201
   -19.2284 -19.2266 -19.2188 -19.2125 -18.8317 -18.8301 -18.8054 -18.8040
   -18.3002 -18.2828 -17.2744 -17.2439 -17.0933 -17.0887 -16.1125 -16.0988
   -12.1596 -12.1569 -12.0736 -12.0168 -11.8989 -11.8628 -11.8565 -11.8460
    -8.9497  -8.8559  -8.3109  -8.2819  -7.5894  -7.5686  -7.5082  -7.4138
    -7.0761  -6.9224  -6.6399  -6.5637  -6.5487  -6.4704  -6.4116  -6.3379
    -6.2920  -6.2263  -6.0177  -5.9938  -5.9219  -5.8806  -5.8230  -5.7789
    -5.6736  -5.6291  -5.5333  -5.4817  -5.1578  -5.0344  -4.9959  -4.9427
    -4.4180  -4.3979  -4.3677  -4.3304  -4.0229  -3.9811  -3.8960  -3.8838
    -3.7840  -3.7356  -3.6530  -3.5892  -3.2173  -3.1999  -3.1003  -3.0519
    -0.8259  -0.7862  -0.3289  -0.3015  -0.2478  -0.2246  -0.1228  -0.1015
    -0.0276  -0.0171   0.1858   0.2100   0.2347   0.2530   0.3295   0.3997
     0.4782   0.4946   0.5672   0.6671   0.7425   0.7923   0.8400   0.8641
     0.9553   0.9974   1.0202   1.0509   1.2992   1.3251   1.3598   1.3886

     occupation numbers 
     1.0000   1.0000   1.0000   1.0000   1.0000   1.0000   1.0000   1.0000
     1.0000   1.0000   1.0000   1.0000   1.0000   1.0000   1.0000   1.0000
     1.0000   1.0000   1.0000   1.0000   1.0000   1.0000   1.0000   1.0000
     1.0000   1.0000   1.0000   1.0000   1.0000   1.0000   1.0000   1.0000
     1.0000   1.0000   1.0000   1.0000   1.0000   1.0000   1.0000   1.0000
     1.0000   1.0000   1.0000   1.0000   1.0000   1.0000   1.0000   1.0000
     1.0000   1.0000   1.0000   1.0000   1.0000   1.0000   1.0000   1.0000
     1.0000   1.0000   1.0000   1.0000   1.0000   1.0000   1.0000   1.0000
     1.0000   1.0000   1.0000   1.0000   1.0000   1.0000   1.0000   1.0000
     1.0000   1.0000   1.0000   1.0000   1.0000   1.0000   1.0000   1.0000
     1.0000   1.0000   1.0000   1.0000   1.0000   1.0000   1.0000   1.0000
     1.0000   1.0000   1.0000   1.0000   1.0000   1.0000   1.0000   1.0000
     1.0000   1.0000   1.0000   1.0000   1.0000   1.0000   1.0000   1.0000
     1.0000   1.0000   1.0000   1.0000   1.0000   1.0000   1.0000   1.0000

          k =-0.0574 0.0228 0.0395 ( 41917 PWs)   bands (ev):

   -24.0463 -24.0408 -24.0276 -24.0193 -23.6310 -23.6306 -23.6212 -23.6180
   -19.2268 -19.2260 -19.2188 -19.2149 -18.8328 -18.8311 -18.8043 -18.8029
   -18.3035 -18.2784 -17.2815 -17.2364 -17.0963 -17.0916 -16.1113 -16.0934
   -12.1633 -12.1594 -12.0931 -12.0074 -11.9055 -11.8616 -11.8510 -11.8364
    -8.9437  -8.8347  -8.3066  -8.2830  -7.5882  -7.5709  -7.5307  -7.4036
    -7.0853  -6.9200  -6.6344  -6.5722  -6.5554  -6.5010  -6.4513  -6.3526
    -6.2897  -6.2177  -6.0051  -5.9594  -5.9000  -5.8924  -5.8187  -5.7819
    -5.6552  -5.6228  -5.5393  -5.4791  -5.1583  -5.0627  -4.9631  -4.9242
    -4.4301  -4.4025  -4.3569  -4.3284  -4.0369  -3.9996  -3.8669  -3.8482
    -3.7707  -3.7538  -3.6971  -3.6004  -3.2193  -3.1969  -3.0966  -3.0581
    -0.7844  -0.7279  -0.3224  -0.2876  -0.2533  -0.2299  -0.1351  -0.1129
    -0.0991  -0.0521   0.1148   0.1803   0.2322   0.2681   0.2818   0.3089
     0.5408   0.6010   0.6448   0.6591   0.7476   0.7854   0.8513   0.8630
     0.9556   0.9870   1.0476   1.0909   1.3162   1.3270   1.3335   1.3520

     occupation numbers 
     1.0000   1.0000   1.0000   1.0000   1.0000   1.0000   1.0000   1.0000
     1.0000   1.0000   1.0000   1.0000   1.0000   1.0000   1.0000   1.0000
     1.0000   1.0000   1.0000   1.0000   1.0000   1.0000   1.0000   1.0000
     1.0000   1.0000   1.0000   1.0000   1.0000   1.0000   1.0000   1.0000
     1.0000   1.0000   1.0000   1.0000   1.0000   1.0000   1.0000   1.0000
     1.0000   1.0000   1.0000   1.0000   1.0000   1.0000   1.0000   1.0000
     1.0000   1.0000   1.0000   1.0000   1.0000   1.0000   1.0000   1.0000
     1.0000   1.0000   1.0000   1.0000   1.0000   1.0000   1.0000   1.0000
     1.0000   1.0000   1.0000   1.0000   1.0000   1.0000   1.0000   1.0000
     1.0000   1.0000   1.0000   1.0000   1.0000   1.0000   1.0000   1.0000
     1.0000   1.0000   1.0000   1.0000   1.0000   1.0000   1.0000   1.0000
     1.0000   1.0000   1.0000   1.0000   1.0000   1.0000   1.0000   1.0000
     1.0000   1.0000   1.0000   1.0000   1.0000   1.0000   1.0000   1.0000
     1.0000   1.0000   1.0000   1.0000   1.0000   1.0000   1.0000   1.0000

          k =-0.0574 0.0228 0.0046 ( 41921 PWs)   bands (ev):

   -24.0476 -24.0401 -24.0267 -24.0203 -23.6315 -23.6294 -23.6201 -23.6190
   -19.2268 -19.2253 -19.2175 -19.2157 -18.8249 -18.8238 -18.8103 -18.8100
   -18.2974 -18.2792 -17.2761 -17.2426 -17.1064 -17.1047 -16.1006 -16.0890
   -12.1506 -12.1484 -12.0848 -12.0136 -11.9175 -11.8757 -11.8427 -11.8404
    -8.9221  -8.8588  -8.3095  -8.3053  -7.5892  -7.5828  -7.5687  -7.4897
    -7.0017  -6.9386  -6.6238  -6.6032  -6.5190  -6.5142  -6.3620  -6.3264
    -6.1956  -6.1873  -5.9805  -5.9529  -5.8824  -5.8631  -5.7856  -5.7761
    -5.6740  -5.6561  -5.5959  -5.5901  -5.1246  -5.1085  -4.9131  -4.9063
    -4.4798  -4.4583  -4.4222  -4.3896  -4.0541  -4.0382  -3.7935  -3.7881
    -3.7450  -3.7002  -3.6732  -3.6569  -3.1951  -3.1723  -3.1001  -3.0891
    -0.7015  -0.6639  -0.3164  -0.3097  -0.2417  -0.2223  -0.2030  -0.1839
    -0.1054  -0.0763   0.0682   0.1190   0.1981   0.2299   0.3297   0.3596
     0.5593   0.6212   0.6975   0.7330   0.7439   0.8000   0.8756   0.8878
     0.9359   0.9501   1.0216   1.0925   1.3005   1.3016   1.3287   1.3446

     occupation numbers 
     1.0000   1.0000   1.0000   1.0000   1.0000   1.0000   1.0000   1.0000
     1.0000   1.0000   1.0000   1.0000   1.0000   1.0000   1.0000   1.0000
     1.0000   1.0000   1.0000   1.0000   1.0000   1.0000   1.0000   1.0000
     1.0000   1.0000   1.0000   1.0000   1.0000   1.0000   1.0000   1.0000
     1.0000   1.0000   1.0000   1.0000   1.0000   1.0000   1.0000   1.0000
     1.0000   1.0000   1.0000   1.0000   1.0000   1.0000   1.0000   1.0000
     1.0000   1.0000   1.0000   1.0000   1.0000   1.0000   1.0000   1.0000
     1.0000   1.0000   1.0000   1.0000   1.0000   1.0000   1.0000   1.0000
     1.0000   1.0000   1.0000   1.0000   1.0000   1.0000   1.0000   1.0000
     1.0000   1.0000   1.0000   1.0000   1.0000   1.0000   1.0000   1.0000
     1.0000   1.0000   1.0000   1.0000   1.0000   1.0000   1.0000   1.0000
     1.0000   1.0000   1.0000   1.0000   1.0000   1.0000   1.0000   1.0000
     1.0000   1.0000   1.0000   1.0000   1.0000   1.0000   1.0000   1.0000
     1.0000   1.0000   1.0000   1.0000   1.0000   1.0000   1.0000   1.0000

     highest occupied level (ev):     1.3886

!    total energy              =   -1281.96814237 Ry
     Harris-Foulkes estimate   =   -1281.96814254 Ry
     estimated scf accuracy    <       0.00000018 Ry

     total all-electron energy =     -4786.411890 Ry

     The total energy is the sum of the following terms:

     one-electron contribution =    -646.82712058 Ry
     hartree contribution      =     421.53229947 Ry
     xc contribution           =    -260.41396526 Ry
     ewald contribution        =    -465.86389729 Ry
     one-center paw contrib.   =    -330.39545871 Ry

     convergence has been achieved in  17 iterations

     Forces acting on atoms (Ry/au):

     atom    1 type  1   force =    -0.01499124   -0.01630850   -0.02089653
     atom    2 type  4   force =     0.02756806    0.00479933   -0.02190544
     atom    3 type  1   force =     0.00942379   -0.01346203   -0.03444550
     atom    4 type  1   force =     0.00744826   -0.00834061    0.00288903
     atom    5 type  4   force =     0.00377212   -0.03140465    0.03390294
     atom    6 type  1   force =     0.00984963    0.00352092   -0.00816259
     atom    7 type  4   force =    -0.01623617    0.03117253    0.06726130
     atom    8 type  2   force =     0.19518126   -0.12912190    0.05794339
     atom    9 type  3   force =    -0.15387373   -0.06575313   -0.15649082
     atom   10 type  3   force =    -0.05213618    0.20353320    0.09261611
     atom   11 type  4   force =    -0.03846933    0.02415141   -0.01596123
     atom   12 type  2   force =     0.12460747   -0.05482368    0.21310968
     atom   13 type  3   force =    -0.20101316   -0.09978855   -0.05944789
     atom   14 type  3   force =     0.06611877    0.15637610   -0.15643158
     atom   15 type  3   force =     0.06611920   -0.15637575   -0.15643235
     atom   16 type  3   force =    -0.20101269    0.09978870   -0.05944844
     atom   17 type  2   force =     0.12460788    0.05482450    0.21310115
     atom   18 type  4   force =    -0.03850044   -0.02417877   -0.01597555
     atom   19 type  3   force =    -0.05213537   -0.20353343    0.09261714
     atom   20 type  3   force =    -0.15387310    0.06575326   -0.15649120
     atom   21 type  2   force =     0.19518427    0.12912107    0.05794226
     atom   22 type  4   force =    -0.01622515   -0.03115795    0.06722215
     atom   23 type  1   force =     0.00987452   -0.00349608   -0.00813941
     atom   24 type  4   force =     0.00377369    0.03136044    0.03385349
     atom   25 type  1   force =     0.00745002    0.00834184    0.00288464
     atom   26 type  1   force =     0.00940979    0.01345770   -0.03442533
     atom   27 type  4   force =     0.02760375   -0.00480671   -0.02193463
     atom   28 type  1   force =    -0.01498765    0.01630931   -0.02090123
     atom   29 type  3   force =    -0.06611877   -0.15637610    0.15643158
     atom   30 type  3   force =     0.20101316    0.09978855    0.05944789
     atom   31 type  2   force =    -0.12460747    0.05482368   -0.21310968
     atom   32 type  4   force =     0.03846933   -0.02415141    0.01596123
     atom   33 type  3   force =     0.05213618   -0.20353320   -0.09261611
     atom   34 type  3   force =     0.15387373    0.06575313    0.15649082
     atom   35 type  2   force =    -0.19518126    0.12912190   -0.05794339
     atom   36 type  4   force =     0.01623617   -0.03117253   -0.06726130
     atom   37 type  1   force =    -0.00984963   -0.00352092    0.00816259
     atom   38 type  4   force =    -0.00377212    0.03140465   -0.03390294
     atom   39 type  1   force =    -0.00744826    0.00834061   -0.00288903
     atom   40 type  1   force =    -0.00942379    0.01346203    0.03444550
     atom   41 type  4   force =    -0.02756806   -0.00479933    0.02190544
     atom   42 type  1   force =     0.01499124    0.01630850    0.02089653
     atom   43 type  3   force =    -0.06611920    0.15637575    0.15643235
     atom   44 type  3   force =     0.20101269   -0.09978870    0.05944844
     atom   45 type  2   force =    -0.12460788   -0.05482450   -0.21310115
     atom   46 type  4   force =     0.03850044    0.02417877    0.01597555
     atom   47 type  3   force =     0.05213537    0.20353343   -0.09261714
     atom   48 type  3   force =     0.15387310   -0.06575326    0.15649120
     atom   49 type  2   force =    -0.19518427   -0.12912107   -0.05794226
     atom   50 type  4   force =     0.01622515    0.03115795   -0.06722215
     atom   51 type  1   force =    -0.00987452    0.00349608    0.00813941
     atom   52 type  4   force =    -0.00377369   -0.03136044   -0.03385349
     atom   53 type  1   force =    -0.00745002   -0.00834184   -0.00288464
     atom   54 type  1   force =    -0.00940979   -0.01345770    0.03442533
     atom   55 type  4   force =    -0.02760375    0.00480671    0.02193463
     atom   56 type  1   force =     0.01498765   -0.01630931    0.02090123
     The non-local contrib.  to forces
     atom    1 type  1   force =     0.17261905    0.37150191    0.10858265
     atom    2 type  4   force =    -2.40273464   -0.48487115    1.51582525
     atom    3 type  1   force =     0.02817469   -0.02636973    0.06689668
     atom    4 type  1   force =    -0.57969367   -0.40633513   -0.11587541
     atom    5 type  4   force =     0.15298231    1.87682724   -2.21706945
     atom    6 type  1   force =    -0.00131987    0.06378195    0.04958353
     atom    7 type  4   force =     0.54457160   -1.19188381   -2.64928253
     atom    8 type  2   force =     0.65319327   -0.45074960    0.18064133
     atom    9 type  3   force =     0.08170258    0.02727184    0.07205112
     atom   10 type  3   force =     0.02955921   -0.10161896   -0.04150689
     atom   11 type  4   force =     2.27063238   -1.48870031    0.82073105
     atom   12 type  2   force =     0.38878705   -0.18476312    0.70287231
     atom   13 type  3   force =     0.09034584    0.05440346    0.04083040
     atom   14 type  3   force =    -0.02745778   -0.07649067    0.08019660
     atom   15 type  3   force =    -0.02745782    0.07649079    0.08019665
     atom   16 type  3   force =     0.09034578   -0.05440341    0.04083030
     atom   17 type  2   force =     0.38878553    0.18476572    0.70287325
     atom   18 type  4   force =     2.27060799    1.48867629    0.82070284
     atom   19 type  3   force =     0.02955917    0.10161869   -0.04150675
     atom   20 type  3   force =     0.08170211   -0.02727170    0.07205064
     atom   21 type  2   force =     0.65319123    0.45074608    0.18063678
     atom   22 type  4   force =     0.54458817    1.19189566   -2.64932539
     atom   23 type  1   force =    -0.00132163   -0.06381509    0.04955277
     atom   24 type  4   force =     0.15297903   -1.87686491   -2.21711631
     atom   25 type  1   force =    -0.57969413    0.40633663   -0.11588869
     atom   26 type  1   force =     0.02818910    0.02637575    0.06687468
     atom   27 type  4   force =    -2.40269313    0.48486881    1.51579869
     atom   28 type  1   force =     0.17261816   -0.37150827    0.10858225
     atom   29 type  3   force =     0.02745778    0.07649067   -0.08019660
     atom   30 type  3   force =    -0.09034584   -0.05440346   -0.04083040
     atom   31 type  2   force =    -0.38878705    0.18476312   -0.70287231
     atom   32 type  4   force =    -2.27063238    1.48870031   -0.82073105
     atom   33 type  3   force =    -0.02955921    0.10161896    0.04150689
     atom   34 type  3   force =    -0.08170258   -0.02727184   -0.07205112
     atom   35 type  2   force =    -0.65319327    0.45074960   -0.18064133
     atom   36 type  4   force =    -0.54457160    1.19188381    2.64928253
     atom   37 type  1   force =     0.00131987   -0.06378195   -0.04958353
     atom   38 type  4   force =    -0.15298231   -1.87682724    2.21706945
     atom   39 type  1   force =     0.57969367    0.40633513    0.11587541
     atom   40 type  1   force =    -0.02817469    0.02636973   -0.06689668
     atom   41 type  4   force =     2.40273464    0.48487115   -1.51582525
     atom   42 type  1   force =    -0.17261905   -0.37150191   -0.10858265
     atom   43 type  3   force =     0.02745782   -0.07649079   -0.08019665
     atom   44 type  3   force =    -0.09034578    0.05440341   -0.04083030
     atom   45 type  2   force =    -0.38878553   -0.18476572   -0.70287325
     atom   46 type  4   force =    -2.27060799   -1.48867629   -0.82070284
     atom   47 type  3   force =    -0.02955917   -0.10161869    0.04150675
     atom   48 type  3   force =    -0.08170211    0.02727170   -0.07205064
     atom   49 type  2   force =    -0.65319123   -0.45074608   -0.18063678
     atom   50 type  4   force =    -0.54458817   -1.19189566    2.64932539
     atom   51 type  1   force =     0.00132163    0.06381509   -0.04955277
     atom   52 type  4   force =    -0.15297903    1.87686491    2.21711631
     atom   53 type  1   force =     0.57969413   -0.40633663    0.11588869
     atom   54 type  1   force =    -0.02818910   -0.02637575   -0.06687468
     atom   55 type  4   force =     2.40269313   -0.48486881   -1.51579869
     atom   56 type  1   force =    -0.17261816    0.37150827   -0.10858225
     The ionic contribution  to forces
     atom    1 type  1   force =    -2.99716665    0.23374213   -2.11266882
     atom    2 type  4   force =    12.25573500    4.35721034   -5.99291823
     atom    3 type  1   force =    -0.09932969    1.58892577   -0.18731531
     atom    4 type  1   force =     2.72864904    2.68975951    1.99166692
     atom    5 type  4   force =    -1.36956345   -8.69923043   11.32880610
     atom    6 type  1   force =    -0.43857926    0.04525173    1.13225701
     atom    7 type  4   force =    -2.12601387    6.51369092   12.71652439
     atom    8 type  2   force =    -4.05976909    3.23779416   -1.18068441
     atom    9 type  3   force =    -2.32760816   -0.14093782   -2.07090026
     atom   10 type  3   force =    -1.26941218    2.88176397    0.78393315
     atom   11 type  4   force =   -11.19660201    6.25871088   -2.20177594
     atom   12 type  2   force =    -2.90641371    1.08698465   -4.68487403
     atom   13 type  3   force =    -2.58951255   -1.14499927   -1.61508182
     atom   14 type  3   force =     0.22943040    2.07418851   -2.52908397
     atom   15 type  3   force =     0.22943040   -2.07418851   -2.52908397
     atom   16 type  3   force =    -2.58951255    1.14499927   -1.61508182
     atom   17 type  2   force =    -2.90641371   -1.08698465   -4.68487403
     atom   18 type  4   force =   -11.19660201   -6.25871088   -2.20177594
     atom   19 type  3   force =    -1.26941218   -2.88176397    0.78393315
     atom   20 type  3   force =    -2.32760816    0.14093782   -2.07090026
     atom   21 type  2   force =    -4.05976909   -3.23779416   -1.18068441
     atom   22 type  4   force =    -2.12601387   -6.51369092   12.71652439
     atom   23 type  1   force =    -0.43857926   -0.04525173    1.13225701
     atom   24 type  4   force =    -1.36956345    8.69923043   11.32880610
     atom   25 type  1   force =     2.72864904   -2.68975951    1.99166692
     atom   26 type  1   force =    -0.09932969   -1.58892577   -0.18731531
     atom   27 type  4   force =    12.25573500   -4.35721034   -5.99291823
     atom   28 type  1   force =    -2.99716665   -0.23374213   -2.11266882
     atom   29 type  3   force =    -0.22943040   -2.07418851    2.52908397
     atom   30 type  3   force =     2.58951255    1.14499927    1.61508182
     atom   31 type  2   force =     2.90641371   -1.08698465    4.68487403
     atom   32 type  4   force =    11.19660201   -6.25871088    2.20177594
     atom   33 type  3   force =     1.26941218   -2.88176397   -0.78393315
     atom   34 type  3   force =     2.32760816    0.14093782    2.07090026
     atom   35 type  2   force =     4.05976909   -3.23779416    1.18068441
     atom   36 type  4   force =     2.12601387   -6.51369092  -12.71652439
     atom   37 type  1   force =     0.43857926   -0.04525173   -1.13225701
     atom   38 type  4   force =     1.36956345    8.69923043  -11.32880610
     atom   39 type  1   force =    -2.72864904   -2.68975951   -1.99166692
     atom   40 type  1   force =     0.09932969   -1.58892577    0.18731531
     atom   41 type  4   force =   -12.25573500   -4.35721034    5.99291823
     atom   42 type  1   force =     2.99716665   -0.23374213    2.11266882
     atom   43 type  3   force =    -0.22943040    2.07418851    2.52908397
     atom   44 type  3   force =     2.58951255   -1.14499927    1.61508182
     atom   45 type  2   force =     2.90641371    1.08698465    4.68487403
     atom   46 type  4   force =    11.19660201    6.25871088    2.20177594
     atom   47 type  3   force =     1.26941218    2.88176397   -0.78393315
     atom   48 type  3   force =     2.32760816   -0.14093782    2.07090026
     atom   49 type  2   force =     4.05976909    3.23779416    1.18068441
     atom   50 type  4   force =     2.12601387    6.51369092  -12.71652439
     atom   51 type  1   force =     0.43857926    0.04525173   -1.13225701
     atom   52 type  4   force =     1.36956345   -8.69923043  -11.32880610
     atom   53 type  1   force =    -2.72864904    2.68975951   -1.99166692
     atom   54 type  1   force =     0.09932969    1.58892577    0.18731531
     atom   55 type  4   force =   -12.25573500    4.35721034    5.99291823
     atom   56 type  1   force =     2.99716665    0.23374213    2.11266882
     The local contribution  to forces
     atom    1 type  1   force =     2.81270367   -0.61537043    1.98483724
     atom    2 type  4   force =    -9.84432051   -3.87129613    4.46703836
     atom    3 type  1   force =     0.08023831   -1.57777526    0.08562270
     atom    4 type  1   force =    -2.15076248   -2.29800967   -1.87440873
     atom    5 type  4   force =     1.22166558    6.80542113   -9.09506956
     atom    6 type  1   force =     0.45096830   -0.10407435   -1.18968266
     atom    7 type  4   force =     1.56936363   -5.29966220  -10.02027115
     atom    8 type  2   force =     3.61599827   -2.92649999    1.06290285
     atom    9 type  3   force =     2.09203508    0.04790953    1.84236304
     atom   10 type  3   force =     1.18771411   -2.57660800   -0.64980079
     atom   11 type  4   force =     8.90519013   -4.75750178    1.37162462
     atom   12 type  2   force =     2.65108418   -0.96060883    4.21118313
     atom   13 type  3   force =     2.29816206    0.99080387    1.51479799
     atom   14 type  3   force =    -0.13584175   -1.84132023    2.29245018
     atom   15 type  3   force =    -0.13584599    1.84131953    2.29246298
     atom   16 type  3   force =     2.29815651   -0.99080887    1.51480921
     atom   17 type  2   force =     2.65108018    0.96059773    4.21122420
     atom   18 type  4   force =     8.90513820    4.75747760    1.37154350
     atom   19 type  3   force =     1.18770509    2.57661013   -0.64981144
     atom   20 type  3   force =     2.09202840   -0.04790773    1.84236206
     atom   21 type  2   force =     3.61596986    2.92651518    1.06288149
     atom   22 type  4   force =     1.56939885    5.29969467  -10.02036679
     atom   23 type  1   force =     0.45091874    0.10404568   -1.18978139
[...]
     atom   22 type  4   force =    -0.00424403   -0.00888948    0.02064724
     atom   23 type  1   force =    -0.00106267    0.00147719   -0.00017860
     atom   24 type  4   force =    -0.00099948    0.01457243    0.01765398
     atom   25 type  1   force =     0.00909665   -0.00580661    0.00072735
     atom   26 type  1   force =     0.00023291   -0.00137836   -0.00000007
     atom   27 type  4   force =     0.01896512   -0.00379777   -0.01205826
     atom   28 type  1   force =    -0.00359441    0.00555219   -0.00262934
     atom   29 type  3   force =     0.00000000    0.00000000    0.00000000
     atom   30 type  3   force =     0.00000000    0.00000000    0.00000000
     atom   31 type  2   force =     0.00555293   -0.00264630    0.01019152
     atom   32 type  4   force =     0.01793675   -0.01178999    0.00667751
     atom   33 type  3   force =     0.00000000    0.00000000    0.00000000
     atom   34 type  3   force =     0.00000000    0.00000000    0.00000000
     atom   35 type  2   force =     0.00904005   -0.00692301    0.00342125
     atom   36 type  4   force =     0.00424945   -0.00888619   -0.02064704
     atom   37 type  1   force =     0.00106220    0.00147788    0.00017809
     atom   38 type  4   force =     0.00100188    0.01457126   -0.01765493
     atom   39 type  1   force =    -0.00909485   -0.00581001   -0.00072364
     atom   40 type  1   force =    -0.00023359   -0.00137801    0.00000096
     atom   41 type  4   force =    -0.01896576   -0.00379880    0.01205554
     atom   42 type  1   force =     0.00359551    0.00555081    0.00262450
     atom   43 type  3   force =     0.00000000    0.00000000    0.00000000
     atom   44 type  3   force =     0.00000000    0.00000000    0.00000000
     atom   45 type  2   force =     0.00555510    0.00264487    0.01019766
     atom   46 type  4   force =     0.01793996    0.01178805    0.00667621
     atom   47 type  3   force =     0.00000000    0.00000000    0.00000000
     atom   48 type  3   force =     0.00000000    0.00000000    0.00000000
     atom   49 type  2   force =     0.00903996    0.00692365    0.00342392
     atom   50 type  4   force =     0.00424403    0.00888948   -0.02064724
     atom   51 type  1   force =     0.00106267   -0.00147719    0.00017860
     atom   52 type  4   force =     0.00099948   -0.01457243   -0.01765398
     atom   53 type  1   force =    -0.00909665    0.00580661   -0.00072735
     atom   54 type  1   force =    -0.00023291    0.00137836    0.00000007
     atom   55 type  4   force =    -0.01896512    0.00379777    0.01205826
     atom   56 type  1   force =     0.00359441   -0.00555219    0.00262934
     The Hubbard contrib.    to forces
     atom    1 type  1   force =     0.00000000    0.00000000    0.00000000
     atom    2 type  4   force =     0.00000000    0.00000000    0.00000000
     atom    3 type  1   force =     0.00000000    0.00000000    0.00000000
     atom    4 type  1   force =     0.00000000    0.00000000    0.00000000
     atom    5 type  4   force =     0.00000000    0.00000000    0.00000000
     atom    6 type  1   force =     0.00000000    0.00000000    0.00000000
     atom    7 type  4   force =     0.00000000    0.00000000    0.00000000
     atom    8 type  2   force =     0.00000000    0.00000000    0.00000000
     atom    9 type  3   force =     0.00000000    0.00000000    0.00000000
     atom   10 type  3   force =     0.00000000    0.00000000    0.00000000
     atom   11 type  4   force =     0.00000000    0.00000000    0.00000000
     atom   12 type  2   force =     0.00000000    0.00000000    0.00000000
     atom   13 type  3   force =     0.00000000    0.00000000    0.00000000
     atom   14 type  3   force =     0.00000000    0.00000000    0.00000000
     atom   15 type  3   force =     0.00000000    0.00000000    0.00000000
     atom   16 type  3   force =     0.00000000    0.00000000    0.00000000
     atom   17 type  2   force =     0.00000000    0.00000000    0.00000000
     atom   18 type  4   force =     0.00000000    0.00000000    0.00000000
     atom   19 type  3   force =     0.00000000    0.00000000    0.00000000
     atom   20 type  3   force =     0.00000000    0.00000000    0.00000000
     atom   21 type  2   force =     0.00000000    0.00000000    0.00000000
     atom   22 type  4   force =     0.00000000    0.00000000    0.00000000
     atom   23 type  1   force =     0.00000000    0.00000000    0.00000000
     atom   24 type  4   force =     0.00000000    0.00000000    0.00000000
     atom   25 type  1   force =     0.00000000    0.00000000    0.00000000
     atom   26 type  1   force =     0.00000000    0.00000000    0.00000000
     atom   27 type  4   force =     0.00000000    0.00000000    0.00000000
     atom   28 type  1   force =     0.00000000    0.00000000    0.00000000
     atom   29 type  3   force =     0.00000000    0.00000000    0.00000000
     atom   30 type  3   force =     0.00000000    0.00000000    0.00000000
     atom   31 type  2   force =     0.00000000    0.00000000    0.00000000
     atom   32 type  4   force =     0.00000000    0.00000000    0.00000000
     atom   33 type  3   force =     0.00000000    0.00000000    0.00000000
     atom   34 type  3   force =     0.00000000    0.00000000    0.00000000
     atom   35 type  2   force =     0.00000000    0.00000000    0.00000000
     atom   36 type  4   force =     0.00000000    0.00000000    0.00000000
     atom   37 type  1   force =     0.00000000    0.00000000    0.00000000
     atom   38 type  4   force =     0.00000000    0.00000000    0.00000000
     atom   39 type  1   force =     0.00000000    0.00000000    0.00000000
     atom   40 type  1   force =     0.00000000    0.00000000    0.00000000
     atom   41 type  4   force =     0.00000000    0.00000000    0.00000000
     atom   42 type  1   force =     0.00000000    0.00000000    0.00000000
     atom   43 type  3   force =     0.00000000    0.00000000    0.00000000
     atom   44 type  3   force =     0.00000000    0.00000000    0.00000000
     atom   45 type  2   force =     0.00000000    0.00000000    0.00000000
     atom   46 type  4   force =     0.00000000    0.00000000    0.00000000
     atom   47 type  3   force =     0.00000000    0.00000000    0.00000000
     atom   48 type  3   force =     0.00000000    0.00000000    0.00000000
     atom   49 type  2   force =     0.00000000    0.00000000    0.00000000
     atom   50 type  4   force =     0.00000000    0.00000000    0.00000000
     atom   51 type  1   force =     0.00000000    0.00000000    0.00000000
     atom   52 type  4   force =     0.00000000    0.00000000    0.00000000
     atom   53 type  1   force =     0.00000000    0.00000000    0.00000000
     atom   54 type  1   force =     0.00000000    0.00000000    0.00000000
     atom   55 type  4   force =     0.00000000    0.00000000    0.00000000
     atom   56 type  1   force =     0.00000000    0.00000000    0.00000000
     The SCF correction term to forces
     atom    1 type  1   force =     0.00000178    0.00000245   -0.00000436
     atom    2 type  4   force =     0.00000199   -0.00000004   -0.00000800
     atom    3 type  1   force =     0.00000950   -0.00000008   -0.00001302
     atom    4 type  1   force =     0.00000078   -0.00000334    0.00000061
     atom    5 type  4   force =    -0.00000040   -0.00000630    0.00000251
     atom    6 type  1   force =    -0.00000019   -0.00000679    0.00000388
     atom    7 type  4   force =     0.00000377   -0.00000145   -0.00000195
     atom    8 type  2   force =    -0.00000129   -0.00000002   -0.00000295
     atom    9 type  3   force =    -0.00000037    0.00000035   -0.00000073
     atom   10 type  3   force =    -0.00000033   -0.00000059   -0.00000066
     atom   11 type  4   force =    -0.00000290   -0.00000193   -0.00000091
     atom   12 type  2   force =    -0.00000016    0.00000295   -0.00000167
     atom   13 type  3   force =    -0.00000025    0.00000048   -0.00000041
     atom   14 type  3   force =     0.00000026    0.00000064    0.00000016
     atom   15 type  3   force =    -0.00000091   -0.00000077   -0.00000028
     atom   16 type  3   force =    -0.00000102    0.00000047    0.00000051
     atom   17 type  2   force =    -0.00000289    0.00000033    0.00000063
     atom   18 type  4   force =    -0.00000990   -0.00001387   -0.00000673
     atom   19 type  3   force =    -0.00000043   -0.00000060    0.00000089
     atom   20 type  3   force =    -0.00000082    0.00000056    0.00000036
     atom   21 type  2   force =    -0.00000297   -0.00000258    0.00000153
     atom   22 type  4   force =    -0.00000086   -0.00000494    0.00000973
     atom   23 type  1   force =    -0.00001620   -0.00002136   -0.00001522
     atom   24 type  4   force =    -0.00000463    0.00000084    0.00000528
     atom   25 type  1   force =    -0.00000004   -0.00000750   -0.00000504
     atom   26 type  1   force =     0.00000083   -0.00000352    0.00000855
     atom   27 type  4   force =     0.00000293    0.00000010    0.00000646
     atom   28 type  1   force =    -0.00000262   -0.00000133    0.00000304
     atom   29 type  3   force =    -0.00000026   -0.00000064   -0.00000016
     atom   30 type  3   force =     0.00000025   -0.00000048    0.00000041
     atom   31 type  2   force =     0.00000016   -0.00000295    0.00000167
     atom   32 type  4   force =     0.00000290    0.00000193    0.00000091
     atom   33 type  3   force =     0.00000033    0.00000059    0.00000066
     atom   34 type  3   force =     0.00000037   -0.00000035    0.00000073
     atom   35 type  2   force =     0.00000129    0.00000002    0.00000295
     atom   36 type  4   force =    -0.00000377    0.00000145    0.00000195
     atom   37 type  1   force =     0.00000019    0.00000679   -0.00000388
     atom   38 type  4   force =     0.00000040    0.00000630   -0.00000251
     atom   39 type  1   force =    -0.00000078    0.00000334   -0.00000061
     atom   40 type  1   force =    -0.00000950    0.00000008    0.00001302
     atom   41 type  4   force =    -0.00000199    0.00000004    0.00000800
     atom   42 type  1   force =    -0.00000178   -0.00000245    0.00000436
     atom   43 type  3   force =     0.00000091    0.00000077    0.00000028
     atom   44 type  3   force =     0.00000102   -0.00000047   -0.00000051
     atom   45 type  2   force =     0.00000289   -0.00000033   -0.00000063
     atom   46 type  4   force =     0.00000990    0.00001387    0.00000673
     atom   47 type  3   force =     0.00000043    0.00000060   -0.00000089
     atom   48 type  3   force =     0.00000082   -0.00000056   -0.00000036
     atom   49 type  2   force =     0.00000297    0.00000258   -0.00000153
     atom   50 type  4   force =     0.00000086    0.00000494   -0.00000973
     atom   51 type  1   force =     0.00001620    0.00002136    0.00001522
     atom   52 type  4   force =     0.00000463   -0.00000084   -0.00000528
     atom   53 type  1   force =     0.00000004    0.00000750    0.00000504
     atom   54 type  1   force =    -0.00000083    0.00000352   -0.00000855
     atom   55 type  4   force =    -0.00000293   -0.00000010   -0.00000646
     atom   56 type  1   force =     0.00000262    0.00000133   -0.00000304

     Total force =     0.004628     Total SCF correction =     0.000067


     entering subroutine stress ...

          total   stress  (Ry/bohr**3)                   (kbar)     P=   17.58
   0.00012200   0.00000041  -0.00000376         17.95      0.06     -0.55
   0.00000041   0.00011410  -0.00000057          0.06     16.78     -0.08
  -0.00000376  -0.00000057   0.00012235         -0.55     -0.08     18.00

     kinetic stress (kbar)  14997.17     -0.06    330.22
                               -0.06  15421.29      0.13
                              330.22      0.13  14972.95

     local   stress (kbar) -15181.15     -0.67   7522.57
                               -0.67  -8305.81      1.01
                             7522.57      1.01 -11400.50

     nonloc. stress (kbar)   1037.10     -0.02      7.93
                               -0.02   1046.34      0.02
                                7.93      0.02   1009.42

     hartree stress (kbar)   6845.80      0.08  -2714.47
                                0.08   4828.34     -0.12
                            -2714.47     -0.12   5416.65

     exc-cor stress (kbar)  -2165.29      0.00    -11.02
                                0.00  -2185.84     -0.00
                              -11.02     -0.00  -2171.07

     corecor stress (kbar)  -1133.80     -0.00     -2.29
                               -0.00  -1135.67      0.00
                               -2.29      0.00  -1133.91

     ewald   stress (kbar)  -4381.87      0.72  -5133.50
                                0.72  -9651.86     -1.13
                            -5133.50     -1.13  -6675.55

     hubbard stress (kbar)      0.00      0.00      0.00
                                0.00      0.00      0.00
                                0.00      0.00      0.00

     london  stress (kbar)      0.00      0.00      0.00
                                0.00      0.00      0.00
                                0.00      0.00      0.00

     XDM     stress (kbar)      0.00      0.00      0.00
                                0.00      0.00      0.00
                                0.00      0.00      0.00

     dft-nl  stress (kbar)      0.00      0.00      0.00
                                0.00      0.00      0.00
                                0.00      0.00      0.00

     TS-vdW  stress (kbar)      0.00      0.00      0.00
                                0.00      0.00      0.00
                                0.00      0.00      0.00



     bfgs converged in  21 scf cycles and  20 bfgs steps
     (criteria: energy <  1.0E-04, force <  1.0E-03)

     End of BFGS Geometry Optimization

     Final energy   =   -1282.3804501170 Ry
Begin final coordinates

ATOMIC_POSITIONS (crystal)
N       -0.020978145   0.624777753   0.459374635
O        0.273418553   0.722716736   0.436124283
N        0.140693264   0.704931849   0.531390252
N       -0.144174948   0.523510323   0.704274614
O       -0.271592391   0.426266609   0.925144683
N       -0.303695280   0.500111983   0.794107921
O        0.141361400   0.749201954   0.686480044
C       -0.191737161   0.615277205   0.553237685
H       -0.332053613   0.588519361   0.449917557
H       -0.218782102   0.703177537   0.613893742
O       -0.469059929   0.559281593   0.738352968
C       -0.022721969   0.565729428   0.281392367
H       -0.176637016   0.522254911   0.236689890
H       -0.002389580   0.631626173   0.175261663
H        0.497612139  -0.131624824  -0.324744857
H        0.323362175  -0.022253825  -0.263314378
C        0.477273219  -0.065726295  -0.218607352
O        0.030956849  -0.059275163   0.238354428
H        0.281219009  -0.203177523   0.113886231
H        0.167946590  -0.088517583  -0.050085293
C        0.308261951  -0.115278924   0.053237566
O        0.641363904  -0.249200617   0.186468682
N        0.196282990  -0.000128664   0.294084890
O        0.228409111   0.073741102   0.425157806
N        0.355829661  -0.023508162   0.204281029
N        0.640670636  -0.204930811   0.031413165
O        0.773432680  -0.222716820  -0.063891443
N        0.479023792  -0.124776130  -0.040633293
H        0.002389580   0.368373827   0.824738337
H        0.176637016   0.477745089   0.763310110
C        0.022721969   0.434270572   0.718607633
O        0.469059929   0.440718407   0.261647032
H        0.218782102   0.296822463   0.386106258
H        0.332053613   0.411480639   0.550082443
C        0.191737161   0.384722795   0.446762315
O       -0.141361400   0.250798046   0.313519956
N        0.303695280   0.499888017   0.205892079
O        0.271592391   0.573733391   0.074855317
N        0.144174948   0.476489677   0.295725386
N       -0.140693264   0.295068151   0.468609748
O       -0.273418553   0.277283264   0.563875717
N        0.020978145   0.375222247   0.540625365
H        0.502387861   0.131624824   0.324744857
H        0.676637825   0.022253825   0.263314378
C        0.522726781   0.065726295   0.218607352
O        0.969043151   0.059275163  -0.238354428
H        0.718780991   0.203177523  -0.113886231
H        0.832053410   0.088517583   0.050085293
C        0.691738049   0.115278924  -0.053237566
O        0.358636096   0.249200617  -0.186468682
N        0.803717010   0.000128664  -0.294084890
O        0.771590889  -0.073741102  -0.425157806
N        0.644170339   0.023508162  -0.204281029
N        0.359329364   0.204930811  -0.031413165
O        0.226567320   0.222716820   0.063891443
N        0.520976208   0.124776130   0.040633293
End final coordinates



     Writing output data file relax.pbe.ec-80.kp-4x2x4.HMX-792927.np-32.default-conv-thr.save

     init_run     :     69.06s CPU    141.27s WALL (       1 calls)
     electrons    :  38228.87s CPU  43649.13s WALL (      21 calls)
     update_pot   :    554.73s CPU    584.56s WALL (      20 calls)
     forces       :    893.21s CPU   1109.95s WALL (      21 calls)
     stress       :   2774.32s CPU   2857.21s WALL (      21 calls)

     Called by init_run:
     wfcinit      :     40.61s CPU     62.30s WALL (       1 calls)
     potinit      :      9.61s CPU     10.64s WALL (       1 calls)

     Called by electrons:
     c_bands      :  32625.57s CPU  36879.09s WALL (     296 calls)
     sum_band     :   4983.74s CPU   6069.67s WALL (     296 calls)
     v_of_rho     :    132.62s CPU    154.29s WALL (     305 calls)
     v_h          :      8.31s CPU     10.29s WALL (     305 calls)
     v_xc         :    142.71s CPU    164.27s WALL (     347 calls)
     newd         :    289.96s CPU    293.51s WALL (     305 calls)
     PAW_pot      :     99.50s CPU    105.13s WALL (     325 calls)
     mix_rho      :    118.09s CPU    134.19s WALL (     296 calls)

     Called by c_bands:
     init_us_2    :    264.56s CPU    270.94s WALL (   10480 calls)
     cegterg      :  31301.87s CPU  35189.98s WALL (    4736 calls)

     Called by sum_band:
     sum_band:bec :      6.80s CPU      7.03s WALL (    5056 calls)
     addusdens    :    857.77s CPU    720.99s WALL (     296 calls)

     Called by *egterg:
     h_psi        :  13709.21s CPU  17158.01s WALL (   22587 calls)
     s_psi        :   2447.68s CPU   1868.45s WALL (   22587 calls)
     g_psi        :     33.29s CPU     39.22s WALL (   17835 calls)
     cdiaghg      :   7051.82s CPU   6369.78s WALL (   22059 calls)
     cegterg:over :   3207.28s CPU   4723.40s WALL (   17835 calls)
     cegterg:upda :   1871.62s CPU   1352.49s WALL (   17835 calls)
     cegterg:last :   1073.04s CPU    786.40s WALL (    5102 calls)

     Called by h_psi:
     h_psi:vloc   :   7701.19s CPU   9335.52s WALL (   22587 calls)
     h_psi:vnl    :   5900.87s CPU   7713.34s WALL (   22587 calls)
     add_vuspsi   :   2592.60s CPU   2676.15s WALL (   22587 calls)

     General routines
     calbec       :   4886.18s CPU   7632.29s WALL (   29323 calls)
     fft          :    123.50s CPU    196.92s WALL (    5389 calls)
     ffts         :      9.41s CPU     14.03s WALL (     601 calls)
     fftw         :   6990.90s CPU   8991.30s WALL ( 3566332 calls)
     interpolate  :     54.35s CPU     64.89s WALL (     601 calls)
     davcio       :      0.14s CPU     33.20s WALL (      16 calls)

     Parallel routines
     fft_scatter  :   3354.43s CPU   5195.96s WALL ( 3572322 calls)

     PAW routines
     PAW_pot      :     99.50s CPU    105.13s WALL (     325 calls)
     PAW_symme    :      0.72s CPU      1.16s WALL (     621 calls)

     PWSCF        :    11h53m CPU       13h33m WALL


   This run was terminated on:   6:20:39  15Jul2016            

=------------------------------------------------------------------------------=
   JOB DONE.
=------------------------------------------------------------------------------=
