
     Program PWSCF v.5.3.0 (svn rev. 11974) starts on 22May2016 at  9:38: 6 

     This program is part of the open-source Quantum ESPRESSO suite
     for quantum simulation of materials; please cite
         "P. Giannozzi et al., J. Phys.:Condens. Matter 21 395502 (2009);
          URL http://www.quantum-espresso.org", 
     in publications or presentations arising from this work. More details at
     http://www.quantum-espresso.org/quote

     Parallel version (MPI), running on    32 processors
     R & G space division:  proc/nbgrp/npool/nimage =      32
     Waiting for input...
     Reading input from standard input
Warning: card    &IONS ignored
Warning: card TRUST_RADIUS_MAX=0.2 ignored
Warning: card / ignored
Warning: card     &CELL ignored
Warning: card CELL_DYNAMICS='BFGS' ignored
Warning: card / ignored

     Current dimensions of program PWSCF are:
     Max number of different atomic species (ntypx) = 10
     Max number of k-points (npk) =  40000
     Max angular momentum in pseudopotentials (lmaxx) =  3
               file N.pbe-n-kjpaw_psl.1.0.0.UPF: wavefunction(s)  2S renormalized
               file C.pbe-n-kjpaw_psl.1.0.0.UPF: wavefunction(s)  2S 2P renormalized
               file H.pbe-kjpaw_psl.1.0.0.UPF: wavefunction(s)  1S renormalized
               file O.pbe-n-kjpaw_psl.1.0.0.UPF: wavefunction(s)  2S 2P renormalized

     Subspace diagonalization in iterative solution of the eigenvalue problem:
     a serial algorithm will be used


     Parallelization info
     --------------------
     sticks:   dense  smooth     PW     G-vecs:    dense   smooth      PW
     Min         638     255     68                58178    14710    2012
     Max         639     256     69                58182    14746    2015
     Sum       20433    8183   2177              1861745   471173   64459


     Title: 
     HMX-scf-pbe-n-kjpaw-kp242-ec-100-nofor-nostress-conv-em4                   


     bravais-lattice index     =            0
     lattice parameter (alat)  =       1.8897  a.u.
     unit-cell volume          =    3486.6982 (a.u.)^3
     number of atoms/cell      =           56
     number of atomic types    =            4
     number of electrons       =       224.00
     number of Kohn-Sham states=          112
     kinetic-energy cutoff     =     100.0000  Ry
     charge density cutoff     =    1000.0000  Ry
     convergence threshold     =      1.0E-06
     mixing beta               =       0.7000
     number of iterations used =            8  plain     mixing
     Exchange-correlation      =  SLA  PW   PBX  PBC ( 1  4  3  4 0 0)

     celldm(1)=   1.889726  celldm(2)=   0.000000  celldm(3)=   0.000000
     celldm(4)=   0.000000  celldm(5)=   0.000000  celldm(6)=   0.000000

     crystal axes: (cart. coord. in units of alat)
               a(1) = (   6.524500   0.000000   0.000000 )  
               a(2) = (   0.000000  11.024000   0.000000 )  
               a(3) = (  -1.611215   0.000000   7.183422 )  

     reciprocal axes: (cart. coord. in units 2 pi/alat)
               b(1) = (  0.153268 -0.000000  0.034378 )  
               b(2) = (  0.000000  0.090711 -0.000000 )  
               b(3) = (  0.000000  0.000000  0.139209 )  


     PseudoPot. # 1 for  N read from file:
     /users/majewski/.data/PSEUDOPOTENTIALS/N.pbe-n-kjpaw_psl.1.0.0.UPF
     MD5 check sum: c21df8f53e59d08c3548513d559cdda6
     Pseudo is Projector augmented-wave + core cor, Zval =  5.0
     Generated using "atomic" code by A. Dal Corso  v.5.3.0 svn rev. 11974
     Shape of augmentation charge: PSQ
     Using radial grid of 1085 points,  4 beta functions with: 
                l(1) =   0
                l(2) =   0
                l(3) =   1
                l(4) =   1
     Q(r) pseudized with 0 coefficients 


     PseudoPot. # 2 for  C read from file:
     /users/majewski/.data/PSEUDOPOTENTIALS/C.pbe-n-kjpaw_psl.1.0.0.UPF
     MD5 check sum: 2ba8448e293caca687844dde9a1b88a8
     Pseudo is Projector augmented-wave + core cor, Zval =  4.0
     Generated using "atomic" code by A. Dal Corso  v.5.3.0 svn rev. 11974
     Shape of augmentation charge: PSQ
     Using radial grid of 1073 points,  4 beta functions with: 
                l(1) =   0
                l(2) =   0
                l(3) =   1
                l(4) =   1
     Q(r) pseudized with 0 coefficients 


     PseudoPot. # 3 for  H read from file:
     /users/majewski/.data/PSEUDOPOTENTIALS/H.pbe-kjpaw_psl.1.0.0.UPF
     MD5 check sum: bc0feb48a24907a0b97fa6ee2d589a29
     Pseudo is Projector augmented-wave, Zval =  1.0
     Generated using "atomic" code by A. Dal Corso  v.5.3.0 svn rev. 11974
     Shape of augmentation charge: PSQ
     Using radial grid of  929 points,  2 beta functions with: 
                l(1) =   0
                l(2) =   0
     Q(r) pseudized with 0 coefficients 


     PseudoPot. # 4 for  O read from file:
     /users/majewski/.data/PSEUDOPOTENTIALS/O.pbe-n-kjpaw_psl.1.0.0.UPF
     MD5 check sum: 9c0ade6c043cf4a781bde3908a3a8206
     Pseudo is Projector augmented-wave + core cor, Zval =  6.0
     Generated using "atomic" code by A. Dal Corso  v.5.3.0 svn rev. 11974
     Shape of augmentation charge: PSQ
     Using radial grid of 1095 points,  4 beta functions with: 
                l(1) =   0
                l(2) =   0
                l(3) =   1
                l(4) =   1
     Q(r) pseudized with 0 coefficients 


     atomic species   valence    mass     pseudopotential
        N              5.00    14.00670      N( 1.00)
        C              4.00    12.01100      C( 1.00)
        H              1.00     1.00790      H( 1.00)
        O              6.00    15.99940      O( 1.00)

      2 Sym. Ops., with inversion, found
          (note:  2 additional sym.ops. were found but ignored
           their fractional translations are incommensurate with FFT grid)

                                    s                        frac. trans.

      isym =  1     identity                                     

 cryst.   s( 1) = (     1          0          0      )
                  (     0          1          0      )
                  (     0          0          1      )

 cart.    s( 1) = (  1.0000000  0.0000000  0.0000000 )
                  (  0.0000000  1.0000000  0.0000000 )
                  (  0.0000000  0.0000000  1.0000000 )


      isym =  2     inversion                                    

 cryst.   s( 2) = (    -1          0          0      )
                  (     0         -1          0      )
                  (     0          0         -1      )

 cart.    s( 2) = ( -1.0000000  0.0000000  0.0000000 )
                  (  0.0000000 -1.0000000  0.0000000 )
                  (  0.0000000  0.0000000 -1.0000000 )


   Cartesian axes

     site n.     atom                  positions (alat units)
         1           N   tau(   1) = (  -0.8659061   6.8626605   3.3165861  )
         2           O   tau(   2) = (   1.0642077   7.9307758   3.1413106  )
         3           N   tau(   3) = (   0.0570773   7.7471160   3.8208624  )
         4           N   tau(   4) = (  -2.0666224   5.7847338   5.0657495  )
         5           O   tau(   5) = (  -3.2536876   4.7233430   6.6202421  )
         6           N   tau(   6) = (  -3.2443309   5.5226933   5.7000457  )
         7           O   tau(   7) = (  -0.1845731   8.2332744   4.9098692  )
         8           C   tau(   8) = (  -2.1347167   6.7751299   3.9788977  )
         9           H   tau(   9) = (  -2.8326807   6.5096720   3.3295163  )
        10           H   tau(  10) = (  -2.3796630   7.6605776   4.3495623  )
        11           O   tau(  11) = (  -4.2115393   6.1725581   5.3056758  )
        12           C   tau(  12) = (  -0.5988683   6.2410171   2.0300352  )
        13           H   tau(  13) = (  -1.4188675   5.8228768   1.7240214  )
        14           H   tau(  14) = (  -0.3175686   6.8855904   1.3576668  )
        15           H   tau(  15) = (   2.1390739  -1.3735904   4.9493781  )
        16           H   tau(  16) = (   1.0377751  -0.3108768   5.3157326  )
        17           C   tau(  17) = (   1.8577742  -0.7290171   5.6217464  )
        18           O   tau(  18) = (  -1.7548967  -0.6605581   8.8973871  )
        19           H   tau(  19) = (   0.0769795  -2.1485776   7.9412735  )
        20           H   tau(  20) = (  -0.3760382  -0.9976720   6.9212275  )
        21           C   tau(  21) = (   0.3219258  -1.2631299   7.5706089  )
        22           O   tau(  22) = (   2.2720694  -2.7212744   8.5015805  )
        23           N   tau(  23) = (  -0.7876883  -0.0106933   9.2917569  )
        24           O   tau(  24) = (  -0.7970450   0.7886570  10.2119534  )
        25           N   tau(  25) = (   0.3900201  -0.2727338   8.6574607  )
        26           N   tau(  26) = (   2.5137198  -2.2351160   7.4125736  )
        27           O   tau(  27) = (   3.5208502  -2.4187758   6.7330219  )
        28           N   tau(  28) = (   1.5907365  -1.3506605   6.9082974  )
        29           H   tau(  29) = (  -1.2936463   4.1384096   5.8257556  )
        30           H   tau(  30) = (  -0.1923474   5.2011232   5.4594011  )
        31           C   tau(  31) = (  -1.0123466   4.7829829   5.1533873  )
        32           O   tau(  32) = (   2.6003244   4.8514419   1.8777466  )
        33           H   tau(  33) = (   0.7684481   3.3634224   2.8338602  )
        34           H   tau(  34) = (   1.2214659   4.5143280   3.8539061  )
        35           C   tau(  35) = (   0.5235018   4.2488701   3.2045248  )
        36           O   tau(  36) = (  -1.4266418   2.7907256   2.2735532  )
        37           N   tau(  37) = (   1.6331160   5.5013067   1.4833767  )
        38           O   tau(  38) = (   1.6424727   6.3006570   0.5631803  )
        39           N   tau(  39) = (   0.4554076   5.2392662   2.1176729  )
        40           N   tau(  40) = (  -1.6682921   3.2768840   3.3625601  )
        41           O   tau(  41) = (  -2.6754226   3.0932242   4.0421118  )
        42           N   tau(  42) = (  -0.7453088   4.1613395   3.8668363  )
        43           H   tau(  43) = (   1.1629963   1.3735904   9.4174668  )
        44           H   tau(  44) = (   2.2642951   0.3108768   9.0511123  )
        45           C   tau(  45) = (   1.4442960   0.7290171   8.7450985  )
        46           O   tau(  46) = (   5.0569669   0.6605581   5.4694579  )
        47           H   tau(  47) = (   3.2250907   2.1485776   6.4255714  )
        48           H   tau(  48) = (   3.6781084   0.9976720   7.4456174  )
        49           C   tau(  49) = (   2.9801444   1.2631299   6.7962360  )
        50           O   tau(  50) = (   1.0300008   2.7212744   5.8652644  )
        51           N   tau(  51) = (   4.0897585   0.0106933   5.0750880  )
        52           O   tau(  52) = (   4.0991153  -0.7886570   4.1548915  )
        53           N   tau(  53) = (   2.9120501   0.2727338   5.7093842  )
        54           N   tau(  54) = (   0.7883504   2.2351160   6.9542713  )
        55           O   tau(  55) = (  -0.2187800   2.4187758   7.6338230  )
        56           N   tau(  56) = (   1.7113337   1.3506605   7.4585475  )

   Crystallographic axes

     site n.     atom                  positions (cryst. coord.)
         1           N   tau(   1) = ( -0.0187000  0.6225200  0.4617000  )
         2           O   tau(   2) = (  0.2711000  0.7194100  0.4373000  )
         3           N   tau(   3) = (  0.1401000  0.7027500  0.5319000  )
         4           N   tau(   4) = ( -0.1426000  0.5247400  0.7052000  )
         5           O   tau(   5) = ( -0.2711000  0.4284600  0.9216000  )
         6           N   tau(   6) = ( -0.3013000  0.5009700  0.7935000  )
         7           O   tau(   7) = (  0.1405000  0.7468500  0.6835000  )
         8           C   tau(   8) = ( -0.1904000  0.6145800  0.5539000  )
         9           H   tau(   9) = ( -0.3197000  0.5905000  0.4635000  )
        10           H   tau(  10) = ( -0.2152000  0.6949000  0.6055000  )
        11           O   tau(  11) = ( -0.4631000  0.5599200  0.7386000  )
        12           C   tau(  12) = ( -0.0220000  0.5661300  0.2826000  )
        13           H   tau(  13) = ( -0.1582000  0.5282000  0.2400000  )
        14           H   tau(  14) = ( -0.0020000  0.6246000  0.1890000  )
        15           H   tau(  15) = (  0.4980000 -0.1246000  0.6890000  )
        16           H   tau(  16) = (  0.3418000 -0.0282000  0.7400000  )
        17           C   tau(  17) = (  0.4780000 -0.0661300  0.7826000  )
        18           O   tau(  18) = (  0.0369000 -0.0599200  1.2386000  )
        19           H   tau(  19) = (  0.2848000 -0.1949000  1.1055000  )
        20           H   tau(  20) = (  0.1803000 -0.0905000  0.9635000  )
        21           C   tau(  21) = (  0.3096000 -0.1145800  1.0539000  )
        22           O   tau(  22) = (  0.6405000 -0.2468500  1.1835000  )
        23           N   tau(  23) = (  0.1987000 -0.0009700  1.2935000  )
        24           O   tau(  24) = (  0.2289000  0.0715400  1.4216000  )
        25           N   tau(  25) = (  0.3574000 -0.0247400  1.2052000  )
        26           N   tau(  26) = (  0.6401000 -0.2027500  1.0319000  )
        27           O   tau(  27) = (  0.7711000 -0.2194100  0.9373000  )
        28           N   tau(  28) = (  0.4813000 -0.1225200  0.9617000  )
        29           H   tau(  29) = (  0.0020000  0.3754000  0.8110000  )
        30           H   tau(  30) = (  0.1582000  0.4718000  0.7600000  )
        31           C   tau(  31) = (  0.0220000  0.4338700  0.7174000  )
        32           O   tau(  32) = (  0.4631000  0.4400800  0.2614000  )
        33           H   tau(  33) = (  0.2152000  0.3051000  0.3945000  )
        34           H   tau(  34) = (  0.3197000  0.4095000  0.5365000  )
        35           C   tau(  35) = (  0.1904000  0.3854200  0.4461000  )
        36           O   tau(  36) = ( -0.1405000  0.2531500  0.3165000  )
        37           N   tau(  37) = (  0.3013000  0.4990300  0.2065000  )
        38           O   tau(  38) = (  0.2711000  0.5715400  0.0784000  )
        39           N   tau(  39) = (  0.1426000  0.4752600  0.2948000  )
        40           N   tau(  40) = ( -0.1401000  0.2972500  0.4681000  )
        41           O   tau(  41) = ( -0.2711000  0.2805900  0.5627000  )
        42           N   tau(  42) = (  0.0187000  0.3774800  0.5383000  )
        43           H   tau(  43) = (  0.5020000  0.1246000  1.3110000  )
        44           H   tau(  44) = (  0.6582000  0.0282000  1.2600000  )
        45           C   tau(  45) = (  0.5220000  0.0661300  1.2174000  )
        46           O   tau(  46) = (  0.9631000  0.0599200  0.7614000  )
        47           H   tau(  47) = (  0.7152000  0.1949000  0.8945000  )
        48           H   tau(  48) = (  0.8197000  0.0905000  1.0365000  )
        49           C   tau(  49) = (  0.6904000  0.1145800  0.9461000  )
        50           O   tau(  50) = (  0.3595000  0.2468500  0.8165000  )
        51           N   tau(  51) = (  0.8013000  0.0009700  0.7065000  )
        52           O   tau(  52) = (  0.7711000 -0.0715400  0.5784000  )
        53           N   tau(  53) = (  0.6426000  0.0247400  0.7948000  )
        54           N   tau(  54) = (  0.3599000  0.2027500  0.9681000  )
        55           O   tau(  55) = (  0.2289000  0.2194100  1.0627000  )
        56           N   tau(  56) = (  0.5187000  0.1225200  1.0383000  )

     number of k points=    32
                       cart. coord. in units 2pi/alat
        k(    1) = (   0.0191586   0.0113389   0.0216984), wk =   0.0625000
        k(    2) = (   0.0191586   0.0113389   0.0565007), wk =   0.0625000
        k(    3) = (   0.0191586   0.0113389  -0.0479063), wk =   0.0625000
        k(    4) = (   0.0191586   0.0113389  -0.0131040), wk =   0.0625000
        k(    5) = (   0.0191586   0.0340167   0.0216984), wk =   0.0625000
        k(    6) = (   0.0191586   0.0340167   0.0565007), wk =   0.0625000
        k(    7) = (   0.0191586   0.0340167  -0.0479063), wk =   0.0625000
        k(    8) = (   0.0191586   0.0340167  -0.0131040), wk =   0.0625000
        k(    9) = (   0.0574757   0.0113389   0.0302928), wk =   0.0625000
        k(   10) = (   0.0574757   0.0113389   0.0650951), wk =   0.0625000
        k(   11) = (   0.0574757   0.0113389  -0.0393120), wk =   0.0625000
        k(   12) = (   0.0574757   0.0113389  -0.0045096), wk =   0.0625000
        k(   13) = (   0.0574757   0.0340167   0.0302928), wk =   0.0625000
        k(   14) = (   0.0574757   0.0340167   0.0650951), wk =   0.0625000
        k(   15) = (   0.0574757   0.0340167  -0.0393120), wk =   0.0625000
        k(   16) = (   0.0574757   0.0340167  -0.0045096), wk =   0.0625000
        k(   17) = (  -0.0191586   0.0113389  -0.0216984), wk =   0.0625000
        k(   18) = (  -0.0191586   0.0113389  -0.0565007), wk =   0.0625000
        k(   19) = (  -0.0191586   0.0113389   0.0479063), wk =   0.0625000
        k(   20) = (  -0.0191586   0.0113389   0.0131040), wk =   0.0625000
        k(   21) = (  -0.0191586   0.0340167  -0.0216984), wk =   0.0625000
        k(   22) = (  -0.0191586   0.0340167  -0.0565007), wk =   0.0625000
        k(   23) = (  -0.0191586   0.0340167   0.0479063), wk =   0.0625000
        k(   24) = (  -0.0191586   0.0340167   0.0131040), wk =   0.0625000
        k(   25) = (  -0.0574757   0.0113389  -0.0302928), wk =   0.0625000
        k(   26) = (  -0.0574757   0.0113389  -0.0650951), wk =   0.0625000
        k(   27) = (  -0.0574757   0.0113389   0.0393120), wk =   0.0625000
        k(   28) = (  -0.0574757   0.0113389   0.0045096), wk =   0.0625000
        k(   29) = (  -0.0574757   0.0340167  -0.0302928), wk =   0.0625000
        k(   30) = (  -0.0574757   0.0340167  -0.0650951), wk =   0.0625000
        k(   31) = (  -0.0574757   0.0340167   0.0393120), wk =   0.0625000
        k(   32) = (  -0.0574757   0.0340167   0.0045096), wk =   0.0625000

                       cryst. coord.
        k(    1) = (   0.1250000   0.1250000   0.1250000), wk =   0.0625000
        k(    2) = (   0.1250000   0.1250000   0.3750000), wk =   0.0625000
        k(    3) = (   0.1250000   0.1250000  -0.3750000), wk =   0.0625000
        k(    4) = (   0.1250000   0.1250000  -0.1250000), wk =   0.0625000
        k(    5) = (   0.1250000   0.3750000   0.1250000), wk =   0.0625000
        k(    6) = (   0.1250000   0.3750000   0.3750000), wk =   0.0625000
        k(    7) = (   0.1250000   0.3750000  -0.3750000), wk =   0.0625000
        k(    8) = (   0.1250000   0.3750000  -0.1250000), wk =   0.0625000
        k(    9) = (   0.3750000   0.1250000   0.1250000), wk =   0.0625000
        k(   10) = (   0.3750000   0.1250000   0.3750000), wk =   0.0625000
        k(   11) = (   0.3750000   0.1250000  -0.3750000), wk =   0.0625000
        k(   12) = (   0.3750000   0.1250000  -0.1250000), wk =   0.0625000
        k(   13) = (   0.3750000   0.3750000   0.1250000), wk =   0.0625000
        k(   14) = (   0.3750000   0.3750000   0.3750000), wk =   0.0625000
        k(   15) = (   0.3750000   0.3750000  -0.3750000), wk =   0.0625000
        k(   16) = (   0.3750000   0.3750000  -0.1250000), wk =   0.0625000
        k(   17) = (  -0.1250000   0.1250000  -0.1250000), wk =   0.0625000
        k(   18) = (  -0.1250000   0.1250000  -0.3750000), wk =   0.0625000
        k(   19) = (  -0.1250000   0.1250000   0.3750000), wk =   0.0625000
        k(   20) = (  -0.1250000   0.1250000   0.1250000), wk =   0.0625000
        k(   21) = (  -0.1250000   0.3750000  -0.1250000), wk =   0.0625000
        k(   22) = (  -0.1250000   0.3750000  -0.3750000), wk =   0.0625000
        k(   23) = (  -0.1250000   0.3750000   0.3750000), wk =   0.0625000
        k(   24) = (  -0.1250000   0.3750000   0.1250000), wk =   0.0625000
        k(   25) = (  -0.3750000   0.1250000  -0.1250000), wk =   0.0625000
        k(   26) = (  -0.3750000   0.1250000  -0.3750000), wk =   0.0625000
        k(   27) = (  -0.3750000   0.1250000   0.3750000), wk =   0.0625000
        k(   28) = (  -0.3750000   0.1250000   0.1250000), wk =   0.0625000
        k(   29) = (  -0.3750000   0.3750000  -0.1250000), wk =   0.0625000
        k(   30) = (  -0.3750000   0.3750000  -0.3750000), wk =   0.0625000
        k(   31) = (  -0.3750000   0.3750000   0.3750000), wk =   0.0625000
        k(   32) = (  -0.3750000   0.3750000   0.1250000), wk =   0.0625000

     Dense  grid:  1861745 G-vectors     FFT dimensions: ( 125, 216, 144)

     Smooth grid:   471173 G-vectors     FFT dimensions: (  80, 135,  90)

     Largest allocated arrays     est. size (Mb)     dimensions
        Kohn-Sham Wavefunctions         3.16 Mb     (    1848,  112)
        NL pseudopotentials             9.93 Mb     (    1848,  352)
        Each V/rho on FFT grid          2.06 Mb     (  135000)
        Each G-vector array             0.44 Mb     (   58179)
        G-vector shells                 0.44 Mb     (   57181)
     Largest temporary arrays     est. size (Mb)     dimensions
        Auxiliary wavefunctions        12.63 Mb     (    1848,  448)
        Each subspace H/S matrix        3.06 Mb     (     448,  448)
        Each <psi_i|beta_j> matrix      0.60 Mb     (     352,  112)
        Arrays for rho mixing          16.48 Mb     (  135000,    8)

     Initial potential from superposition of free atoms

     starting charge  223.99937, renormalised to  224.00000
     Starting wfc are  176 randomized atomic wfcs
     Checking if some PAW data can be deallocated... 
       node    0, deallocated PAW data for type:  2
       node    0, deallocated PAW data for type:  3
       node    1, deallocated PAW data for type:  2
       node    1, deallocated PAW data for type:  3
       node    1, deallocated PAW data for type:  4
       node    2, deallocated PAW data for type:  2
       node    2, deallocated PAW data for type:  3
       node    3, deallocated PAW data for type:  1
       node    3, deallocated PAW data for type:  3
       node    4, deallocated PAW data for type:  1
       node    4, deallocated PAW data for type:  2
       node    4, deallocated PAW data for type:  4
       node    5, deallocated PAW data for type:  1
       node    5, deallocated PAW data for type:  3
       node    6, deallocated PAW data for type:  1
       node    6, deallocated PAW data for type:  2
       node    6, deallocated PAW data for type:  4
       node    7, deallocated PAW data for type:  1
       node    7, deallocated PAW data for type:  2
       node    7, deallocated PAW data for type:  4
       node    8, deallocated PAW data for type:  1
       node    8, deallocated PAW data for type:  3
       node    9, deallocated PAW data for type:  1
       node    9, deallocated PAW data for type:  2
       node    9, deallocated PAW data for type:  4
       node   10, deallocated PAW data for type:  1
       node   10, deallocated PAW data for type:  3
       node   11, deallocated PAW data for type:  2
       node   11, deallocated PAW data for type:  3
       node   12, deallocated PAW data for type:  2
       node   12, deallocated PAW data for type:  3
       node   12, deallocated PAW data for type:  4
       node   13, deallocated PAW data for type:  2
       node   13, deallocated PAW data for type:  3
       node   14, deallocated PAW data for type:  1
       node   14, deallocated PAW data for type:  2
       node   14, deallocated PAW data for type:  4
       node   15, deallocated PAW data for type:  1
       node   15, deallocated PAW data for type:  3
       node   16, deallocated PAW data for type:  1
       node   16, deallocated PAW data for type:  2
       node   16, deallocated PAW data for type:  4
       node   17, deallocated PAW data for type:  1
       node   17, deallocated PAW data for type:  3
       node   18, deallocated PAW data for type:  2
       node   18, deallocated PAW data for type:  3
       node   19, deallocated PAW data for type:  2
       node   19, deallocated PAW data for type:  3
       node   19, deallocated PAW data for type:  4
       node   20, deallocated PAW data for type:  2
       node   20, deallocated PAW data for type:  3
       node   21, deallocated PAW data for type:  1
       node   21, deallocated PAW data for type:  2
       node   21, deallocated PAW data for type:  4
       node   22, deallocated PAW data for type:  1
       node   22, deallocated PAW data for type:  3
       node   23, deallocated PAW data for type:  1
       node   23, deallocated PAW data for type:  2
       node   23, deallocated PAW data for type:  4
       node   24, deallocated PAW data for type:  1
       node   24, deallocated PAW data for type:  3
       node   24, deallocated PAW data for type:  4
       node   25, deallocated PAW data for type:  1
       node   25, deallocated PAW data for type:  2
       node   25, deallocated PAW data for type:  3
       node   26, deallocated PAW data for type:  2
       node   26, deallocated PAW data for type:  3
       node   26, deallocated PAW data for type:  4
       node   27, deallocated PAW data for type:  1
       node   27, deallocated PAW data for type:  2
       node   27, deallocated PAW data for type:  3
       node   28, deallocated PAW data for type:  2
       node   28, deallocated PAW data for type:  3
       node   28, deallocated PAW data for type:  4
       node   29, deallocated PAW data for type:  2
       node   29, deallocated PAW data for type:  3
       node   29, deallocated PAW data for type:  4
       node   30, deallocated PAW data for type:  1
       node   30, deallocated PAW data for type:  2
       node   30, deallocated PAW data for type:  3
       node   31, deallocated PAW data for type:  2
       node   31, deallocated PAW data for type:  3
       node   31, deallocated PAW data for type:  4

     total cpu time spent up to now is      185.0 secs

     per-process dynamical memory:   161.7 Mb

     Self-consistent Calculation

     iteration #  1     ecut=   100.00 Ry     beta=0.70
     Davidson diagonalization with overlap
     ethr =  1.00E-02,  avg # of iterations =  3.0

     total cpu time spent up to now is      603.8 secs

     total energy              =   -1279.68827012 Ry
     Harris-Foulkes estimate   =   -1283.99019495 Ry
     estimated scf accuracy    <       6.62834008 Ry

     iteration #  2     ecut=   100.00 Ry     beta=0.70
     Davidson diagonalization with overlap
     ethr =  2.96E-03,  avg # of iterations =  4.0

     total cpu time spent up to now is     1106.3 secs

     total energy              =   -1280.37943517 Ry
     Harris-Foulkes estimate   =   -1283.80991862 Ry
     estimated scf accuracy    <       6.90360671 Ry

     iteration #  3     ecut=   100.00 Ry     beta=0.70
     Davidson diagonalization with overlap
     ethr =  2.96E-03,  avg # of iterations =  4.7

     total cpu time spent up to now is     1480.8 secs

     total energy              =   -1281.86179039 Ry
     Harris-Foulkes estimate   =   -1282.07623576 Ry
     estimated scf accuracy    <       0.39608941 Ry

     iteration #  4     ecut=   100.00 Ry     beta=0.70
     Davidson diagonalization with overlap
     ethr =  1.77E-04,  avg # of iterations =  4.8

     total cpu time spent up to now is     1996.6 secs

     total energy              =   -1282.00539827 Ry
     Harris-Foulkes estimate   =   -1282.08620605 Ry
     estimated scf accuracy    <       0.17591904 Ry

     iteration #  5     ecut=   100.00 Ry     beta=0.70
     Davidson diagonalization with overlap
     ethr =  7.85E-05,  avg # of iterations =  4.0

     total cpu time spent up to now is     2367.6 secs

     total energy              =   -1282.04181771 Ry
     Harris-Foulkes estimate   =   -1282.05069185 Ry
     estimated scf accuracy    <       0.02219713 Ry

     iteration #  6     ecut=   100.00 Ry     beta=0.70
     Davidson diagonalization with overlap
     ethr =  9.91E-06,  avg # of iterations =  5.8

     total cpu time spent up to now is     2710.9 secs

     total energy              =   -1282.04375579 Ry
     Harris-Foulkes estimate   =   -1282.04512065 Ry
     estimated scf accuracy    <       0.00360034 Ry

     iteration #  7     ecut=   100.00 Ry     beta=0.70
     Davidson diagonalization with overlap
     ethr =  1.61E-06,  avg # of iterations =  4.8

     total cpu time spent up to now is     3232.0 secs

     total energy              =   -1282.04618438 Ry
     Harris-Foulkes estimate   =   -1282.04713619 Ry
     estimated scf accuracy    <       0.00330395 Ry

     iteration #  8     ecut=   100.00 Ry     beta=0.70
     Davidson diagonalization with overlap
     ethr =  1.47E-06,  avg # of iterations =  1.0

     total cpu time spent up to now is     3542.9 secs

     total energy              =   -1282.04538098 Ry
     Harris-Foulkes estimate   =   -1282.04624828 Ry
     estimated scf accuracy    <       0.00177794 Ry

     iteration #  9     ecut=   100.00 Ry     beta=0.70
     Davidson diagonalization with overlap
     ethr =  7.94E-07,  avg # of iterations =  5.0

     total cpu time spent up to now is     4043.4 secs

     total energy              =   -1282.04655309 Ry
     Harris-Foulkes estimate   =   -1282.04728339 Ry
     estimated scf accuracy    <       0.00412061 Ry

     iteration # 10     ecut=   100.00 Ry     beta=0.70
     Davidson diagonalization with overlap
     ethr =  7.94E-07,  avg # of iterations =  1.0

     total cpu time spent up to now is     4310.5 secs

     total energy              =   -1282.04555421 Ry
     Harris-Foulkes estimate   =   -1282.04657404 Ry
     estimated scf accuracy    <       0.00294087 Ry

     iteration # 11     ecut=   100.00 Ry     beta=0.70
     Davidson diagonalization with overlap
     ethr =  7.94E-07,  avg # of iterations =  5.0

     total cpu time spent up to now is     4733.6 secs

     total energy              =   -1282.04644695 Ry
     Harris-Foulkes estimate   =   -1282.04658219 Ry
     estimated scf accuracy    <       0.00048679 Ry

     iteration # 12     ecut=   100.00 Ry     beta=0.70
     Davidson diagonalization with overlap
     ethr =  2.17E-07,  avg # of iterations =  1.0

     total cpu time spent up to now is     5018.3 secs

     total energy              =   -1282.04633451 Ry
     Harris-Foulkes estimate   =   -1282.04645544 Ry
     estimated scf accuracy    <       0.00027115 Ry

     iteration # 13     ecut=   100.00 Ry     beta=0.70
     Davidson diagonalization with overlap
     ethr =  1.21E-07,  avg # of iterations =  5.0

     total cpu time spent up to now is     5476.3 secs

     total energy              =   -1282.04648111 Ry
     Harris-Foulkes estimate   =   -1282.04655560 Ry
     estimated scf accuracy    <       0.00033595 Ry

     iteration # 14     ecut=   100.00 Ry     beta=0.70
     Davidson diagonalization with overlap
     ethr =  1.21E-07,  avg # of iterations =  1.0

     total cpu time spent up to now is     5735.8 secs

     total energy              =   -1282.04644318 Ry
     Harris-Foulkes estimate   =   -1282.04648376 Ry
     estimated scf accuracy    <       0.00021718 Ry

     iteration # 15     ecut=   100.00 Ry     beta=0.70
     Davidson diagonalization with overlap
     ethr =  9.70E-08,  avg # of iterations =  5.0

     total cpu time spent up to now is     6080.2 secs

     End of self-consistent calculation

          k = 0.0192 0.0113 0.0217 ( 58873 PWs)   bands (ev):

   -24.0392 -24.0169 -24.0051 -23.9958 -23.7664 -23.7581 -23.7573 -23.7534
   -19.2674 -19.2623 -19.2555 -19.2437 -18.9617 -18.9613 -18.9577 -18.9564
   -18.2945 -18.2702 -17.2651 -17.2174 -17.1188 -17.1174 -16.0976 -16.0843
   -12.1241 -12.1203 -12.1022 -11.9899 -11.9355 -11.8633 -11.8050 -11.7893
    -8.9239  -8.8857  -8.3192  -8.2833  -7.5942  -7.5529  -7.4662  -7.4582
    -6.9096  -6.8093  -6.6606  -6.5649  -6.5529  -6.4677  -6.4005  -6.3254
    -6.1937  -6.1647  -6.1429  -6.0240  -5.9654  -5.8888  -5.8298  -5.7836
    -5.7166  -5.6946  -5.5938  -5.5459  -5.1822  -5.0691  -4.9836  -4.9758
    -4.5168  -4.5038  -4.4804  -4.4375  -4.2767  -4.1685  -3.9135  -3.9023
    -3.7313  -3.6072  -3.5454  -3.5014  -3.1953  -3.1618  -3.0624  -3.0470
    -0.8499  -0.8454  -0.3641  -0.3618  -0.2654  -0.2142  -0.1547  -0.1359
    -0.0818  -0.0553   0.1095   0.1435   0.1547   0.1835   0.3107   0.3364
     0.3918   0.4142   0.5955   0.6397   0.7251   0.7617   0.8039   0.8440
     0.8565   0.9749   1.0017   1.0621   1.1669   1.2964   1.3136   1.3444

     occupation numbers 
     1.0000   1.0000   1.0000   1.0000   1.0000   1.0000   1.0000   1.0000
     1.0000   1.0000   1.0000   1.0000   1.0000   1.0000   1.0000   1.0000
     1.0000   1.0000   1.0000   1.0000   1.0000   1.0000   1.0000   1.0000
     1.0000   1.0000   1.0000   1.0000   1.0000   1.0000   1.0000   1.0000
     1.0000   1.0000   1.0000   1.0000   1.0000   1.0000   1.0000   1.0000
     1.0000   1.0000   1.0000   1.0000   1.0000   1.0000   1.0000   1.0000
     1.0000   1.0000   1.0000   1.0000   1.0000   1.0000   1.0000   1.0000
     1.0000   1.0000   1.0000   1.0000   1.0000   1.0000   1.0000   1.0000
     1.0000   1.0000   1.0000   1.0000   1.0000   1.0000   1.0000   1.0000
     1.0000   1.0000   1.0000   1.0000   1.0000   1.0000   1.0000   1.0000
     1.0000   1.0000   1.0000   1.0000   1.0000   1.0000   1.0000   1.0000
     1.0000   1.0000   1.0000   1.0000   1.0000   1.0000   1.0000   1.0000
     1.0000   1.0000   1.0000   1.0000   1.0000   1.0000   1.0000   1.0000
     1.0000   1.0000   1.0000   1.0000   1.0000   1.0000   1.0000   1.0000

          k = 0.0192 0.0113 0.0565 ( 58905 PWs)   bands (ev):

   -24.0313 -24.0223 -24.0015 -24.0004 -23.7683 -23.7652 -23.7538 -23.7494
   -19.2656 -19.2610 -19.2564 -19.2472 -18.9672 -18.9664 -18.9531 -18.9513
   -18.2835 -18.2832 -17.2425 -17.2400 -17.1147 -17.1123 -16.0929 -16.0915
   -12.1324 -12.1293 -12.0528 -12.0340 -11.8943 -11.8835 -11.8128 -11.8061
    -8.9047  -8.8702  -8.2996  -8.2757  -7.6088  -7.5602  -7.4458  -7.3654
    -6.9553  -6.8350  -6.6385  -6.6047  -6.5952  -6.4850  -6.4224  -6.3948
    -6.2523  -6.2233  -6.0299  -5.9842  -5.9620  -5.8921  -5.8679  -5.8184
    -5.7849  -5.7232  -5.5160  -5.4708  -5.1870  -5.1084  -4.9803  -4.9431
    -4.4789  -4.4716  -4.4073  -4.3449  -4.2051  -4.1728  -4.0253  -4.0229
    -3.7093  -3.6552  -3.4821  -3.4720  -3.2202  -3.2165  -3.0475  -3.0257
    -0.8161  -0.7825  -0.3766  -0.3677  -0.2739  -0.2399  -0.1859  -0.1665
    -0.1341  -0.0930   0.0127   0.0708   0.1749   0.2224   0.2795   0.2912
     0.5037   0.5664   0.6073   0.6587   0.7171   0.7423   0.7698   0.8198
     0.9367   0.9731   1.0365   1.0612   1.1721   1.2402   1.3230   1.3526

     occupation numbers 
     1.0000   1.0000   1.0000   1.0000   1.0000   1.0000   1.0000   1.0000
     1.0000   1.0000   1.0000   1.0000   1.0000   1.0000   1.0000   1.0000
     1.0000   1.0000   1.0000   1.0000   1.0000   1.0000   1.0000   1.0000
     1.0000   1.0000   1.0000   1.0000   1.0000   1.0000   1.0000   1.0000
     1.0000   1.0000   1.0000   1.0000   1.0000   1.0000   1.0000   1.0000
     1.0000   1.0000   1.0000   1.0000   1.0000   1.0000   1.0000   1.0000
     1.0000   1.0000   1.0000   1.0000   1.0000   1.0000   1.0000   1.0000
     1.0000   1.0000   1.0000   1.0000   1.0000   1.0000   1.0000   1.0000
     1.0000   1.0000   1.0000   1.0000   1.0000   1.0000   1.0000   1.0000
     1.0000   1.0000   1.0000   1.0000   1.0000   1.0000   1.0000   1.0000
     1.0000   1.0000   1.0000   1.0000   1.0000   1.0000   1.0000   1.0000
     1.0000   1.0000   1.0000   1.0000   1.0000   1.0000   1.0000   1.0000
     1.0000   1.0000   1.0000   1.0000   1.0000   1.0000   1.0000   1.0000
     1.0000   1.0000   1.0000   1.0000   1.0000   1.0000   1.0000   1.0000

          k = 0.0192 0.0113-0.0479 ( 58886 PWs)   bands (ev):

   -24.0322 -24.0218 -24.0051 -23.9965 -23.7697 -23.7668 -23.7507 -23.7494
   -19.2633 -19.2616 -19.2534 -19.2520 -18.9687 -18.9682 -18.9513 -18.9497
   -18.2946 -18.2709 -17.2632 -17.2193 -17.1174 -17.1150 -16.0968 -16.0814
   -12.1427 -12.1278 -12.0857 -12.0020 -11.9214 -11.8521 -11.8148 -11.8052
    -8.9142  -8.8328  -8.2868  -8.2850  -7.6030  -7.5885  -7.4523  -7.3428
    -6.9673  -6.8607  -6.6385  -6.5997  -6.5608  -6.5327  -6.4367  -6.4024
    -6.2753  -6.2432  -6.0358  -6.0032  -5.8891  -5.8620  -5.8518  -5.8402
    -5.7812  -5.7093  -5.5147  -5.4700  -5.1823  -5.1102  -4.9649  -4.9359
    -4.5081  -4.4343  -4.4031  -4.3502  -4.2197  -4.2003  -4.0323  -3.9839
    -3.7087  -3.6593  -3.5342  -3.4520  -3.2275  -3.2043  -3.0441  -3.0319
    -0.7518  -0.6920  -0.3667  -0.3588  -0.3238  -0.2961  -0.2236  -0.2046
    -0.1446  -0.1423  -0.0255   0.0563   0.1913   0.2252   0.2366   0.2861
     0.5494   0.6243   0.6449   0.6568   0.7013   0.7796   0.7904   0.8001
     0.9305   0.9804   1.0547   1.1025   1.1752   1.2034   1.3162   1.3343

     occupation numbers 
     1.0000   1.0000   1.0000   1.0000   1.0000   1.0000   1.0000   1.0000
     1.0000   1.0000   1.0000   1.0000   1.0000   1.0000   1.0000   1.0000
     1.0000   1.0000   1.0000   1.0000   1.0000   1.0000   1.0000   1.0000
     1.0000   1.0000   1.0000   1.0000   1.0000   1.0000   1.0000   1.0000
     1.0000   1.0000   1.0000   1.0000   1.0000   1.0000   1.0000   1.0000
     1.0000   1.0000   1.0000   1.0000   1.0000   1.0000   1.0000   1.0000
     1.0000   1.0000   1.0000   1.0000   1.0000   1.0000   1.0000   1.0000
     1.0000   1.0000   1.0000   1.0000   1.0000   1.0000   1.0000   1.0000
     1.0000   1.0000   1.0000   1.0000   1.0000   1.0000   1.0000   1.0000
     1.0000   1.0000   1.0000   1.0000   1.0000   1.0000   1.0000   1.0000
     1.0000   1.0000   1.0000   1.0000   1.0000   1.0000   1.0000   1.0000
     1.0000   1.0000   1.0000   1.0000   1.0000   1.0000   1.0000   1.0000
     1.0000   1.0000   1.0000   1.0000   1.0000   1.0000   1.0000   1.0000
     1.0000   1.0000   1.0000   1.0000   1.0000   1.0000   1.0000   1.0000

          k = 0.0192 0.0113-0.0131 ( 58882 PWs)   bands (ev):

   -24.0396 -24.0170 -24.0063 -23.9941 -23.7689 -23.7609 -23.7536 -23.7518
   -19.2664 -19.2610 -19.2558 -19.2458 -18.9651 -18.9649 -18.9535 -18.9534
   -18.2988 -18.2647 -17.2737 -17.2088 -17.1211 -17.1205 -16.0980 -16.0778
   -12.1389 -12.1211 -12.1073 -11.9871 -11.9362 -11.8524 -11.8034 -11.7898
    -8.9349  -8.8468  -8.3132  -8.2861  -7.5981  -7.5758  -7.4920  -7.4147
    -6.8809  -6.8671  -6.6568  -6.5547  -6.5486  -6.5124  -6.4092  -6.3409
    -6.2419  -6.1986  -6.0755  -6.0279  -5.9289  -5.8804  -5.8117  -5.7835
    -5.7280  -5.6788  -5.5634  -5.5615  -5.1518  -5.1065  -4.9766  -4.9458
    -4.5152  -4.5016  -4.4776  -4.4514  -4.2875  -4.1757  -3.9202  -3.8707
    -3.7487  -3.6159  -3.5599  -3.4993  -3.2028  -3.1558  -3.0561  -3.0546
    -0.8029  -0.7800  -0.3554  -0.3488  -0.2662  -0.2334  -0.1620  -0.1439
    -0.1371  -0.0994   0.0039   0.0639   0.1260   0.2001   0.2558   0.3210
     0.5188   0.5518   0.5820   0.6599   0.7211   0.7668   0.8199   0.8335
     0.8707   0.9546   1.0298   1.0898   1.1660   1.2789   1.3005   1.3297

     occupation numbers 
     1.0000   1.0000   1.0000   1.0000   1.0000   1.0000   1.0000   1.0000
     1.0000   1.0000   1.0000   1.0000   1.0000   1.0000   1.0000   1.0000
     1.0000   1.0000   1.0000   1.0000   1.0000   1.0000   1.0000   1.0000
     1.0000   1.0000   1.0000   1.0000   1.0000   1.0000   1.0000   1.0000
     1.0000   1.0000   1.0000   1.0000   1.0000   1.0000   1.0000   1.0000
     1.0000   1.0000   1.0000   1.0000   1.0000   1.0000   1.0000   1.0000
     1.0000   1.0000   1.0000   1.0000   1.0000   1.0000   1.0000   1.0000
     1.0000   1.0000   1.0000   1.0000   1.0000   1.0000   1.0000   1.0000
     1.0000   1.0000   1.0000   1.0000   1.0000   1.0000   1.0000   1.0000
     1.0000   1.0000   1.0000   1.0000   1.0000   1.0000   1.0000   1.0000
     1.0000   1.0000   1.0000   1.0000   1.0000   1.0000   1.0000   1.0000
     1.0000   1.0000   1.0000   1.0000   1.0000   1.0000   1.0000   1.0000
     1.0000   1.0000   1.0000   1.0000   1.0000   1.0000   1.0000   1.0000
     1.0000   1.0000   1.0000   1.0000   1.0000   1.0000   1.0000   1.0000

          k = 0.0192 0.0340 0.0217 ( 58876 PWs)   bands (ev):

   -24.0339 -24.0253 -24.0006 -23.9974 -23.7629 -23.7590 -23.7571 -23.7559
   -19.2670 -19.2655 -19.2503 -19.2459 -18.9616 -18.9615 -18.9573 -18.9567
   -18.2876 -18.2776 -17.2511 -17.2313 -17.1183 -17.1177 -16.0937 -16.0881
   -12.1240 -12.1230 -12.0774 -12.0368 -11.8995 -11.8748 -11.8002 -11.7937
    -8.9136  -8.8977  -8.3095  -8.2946  -7.5843  -7.5667  -7.4589  -7.4553
    -6.8867  -6.8417  -6.6074  -6.5660  -6.5587  -6.5152  -6.3779  -6.3547
    -6.2043  -6.1884  -6.0718  -6.0345  -5.9681  -5.9312  -5.8264  -5.8108
    -5.6860  -5.6746  -5.5722  -5.5499  -5.1362  -5.0699  -5.0277  -5.0049
    -4.5300  -4.5206  -4.4464  -4.4271  -4.2502  -4.2003  -3.9090  -3.9023
    -3.6943  -3.6409  -3.5330  -3.5131  -3.1890  -3.1754  -3.0549  -3.0491
    -0.8456  -0.8434  -0.3552  -0.3496  -0.2779  -0.2422  -0.1772  -0.1705
    -0.0487  -0.0394   0.1335   0.1448   0.1748   0.1815   0.3333   0.3434
     0.3729   0.3909   0.6076   0.6327   0.7052   0.7171   0.8220   0.8429
     0.9025   0.9473   1.0286   1.0514   1.2036   1.2574   1.3243   1.3342

     occupation numbers 
     1.0000   1.0000   1.0000   1.0000   1.0000   1.0000   1.0000   1.0000
     1.0000   1.0000   1.0000   1.0000   1.0000   1.0000   1.0000   1.0000
     1.0000   1.0000   1.0000   1.0000   1.0000   1.0000   1.0000   1.0000
     1.0000   1.0000   1.0000   1.0000   1.0000   1.0000   1.0000   1.0000
     1.0000   1.0000   1.0000   1.0000   1.0000   1.0000   1.0000   1.0000
     1.0000   1.0000   1.0000   1.0000   1.0000   1.0000   1.0000   1.0000
     1.0000   1.0000   1.0000   1.0000   1.0000   1.0000   1.0000   1.0000
     1.0000   1.0000   1.0000   1.0000   1.0000   1.0000   1.0000   1.0000
     1.0000   1.0000   1.0000   1.0000   1.0000   1.0000   1.0000   1.0000
     1.0000   1.0000   1.0000   1.0000   1.0000   1.0000   1.0000   1.0000
     1.0000   1.0000   1.0000   1.0000   1.0000   1.0000   1.0000   1.0000
     1.0000   1.0000   1.0000   1.0000   1.0000   1.0000   1.0000   1.0000
     1.0000   1.0000   1.0000   1.0000   1.0000   1.0000   1.0000   1.0000
     1.0000   1.0000   1.0000   1.0000   1.0000   1.0000   1.0000   1.0000

          k = 0.0192 0.0340 0.0565 ( 58889 PWs)   bands (ev):

   -24.0284 -24.0246 -24.0017 -24.0011 -23.7667 -23.7655 -23.7530 -23.7511
   -19.2654 -19.2641 -19.2519 -19.2487 -18.9669 -18.9666 -18.9526 -18.9518
   -18.2834 -18.2833 -17.2421 -17.2411 -17.1137 -17.1127 -16.0925 -16.0919
   -12.1310 -12.1296 -12.0497 -12.0417 -11.8882 -11.8832 -11.8122 -11.8093
    -8.8948  -8.8806  -8.2931  -8.2831  -7.5930  -7.5732  -7.4225  -7.3899
    -6.9358  -6.8912  -6.6252  -6.6143  -6.5442  -6.4978  -6.4328  -6.4143
    -6.2103  -6.1833  -6.0528  -6.0080  -5.9412  -5.9097  -5.8635  -5.8443
    -5.7638  -5.7305  -5.5212  -5.5008  -5.1239  -5.0746  -5.0242  -4.9886
    -4.4562  -4.4443  -4.4050  -4.3756  -4.1989  -4.1846  -4.0252  -4.0236
    -3.6882  -3.6655  -3.4814  -3.4768  -3.2160  -3.2123  -3.0472  -3.0367
    -0.8056  -0.7919  -0.3700  -0.3621  -0.2845  -0.2569  -0.2017  -0.1860
    -0.1062  -0.0880   0.0586   0.0785   0.1784   0.2014   0.2729   0.2842
     0.5193   0.5463   0.6218   0.6449   0.7277   0.7378   0.7757   0.8057
     0.9389   0.9582   1.0487   1.0584   1.1951   1.2228   1.3306   1.3428

     occupation numbers 
     1.0000   1.0000   1.0000   1.0000   1.0000   1.0000   1.0000   1.0000
     1.0000   1.0000   1.0000   1.0000   1.0000   1.0000   1.0000   1.0000
     1.0000   1.0000   1.0000   1.0000   1.0000   1.0000   1.0000   1.0000
     1.0000   1.0000   1.0000   1.0000   1.0000   1.0000   1.0000   1.0000
     1.0000   1.0000   1.0000   1.0000   1.0000   1.0000   1.0000   1.0000
     1.0000   1.0000   1.0000   1.0000   1.0000   1.0000   1.0000   1.0000
     1.0000   1.0000   1.0000   1.0000   1.0000   1.0000   1.0000   1.0000
     1.0000   1.0000   1.0000   1.0000   1.0000   1.0000   1.0000   1.0000
     1.0000   1.0000   1.0000   1.0000   1.0000   1.0000   1.0000   1.0000
     1.0000   1.0000   1.0000   1.0000   1.0000   1.0000   1.0000   1.0000
     1.0000   1.0000   1.0000   1.0000   1.0000   1.0000   1.0000   1.0000
     1.0000   1.0000   1.0000   1.0000   1.0000   1.0000   1.0000   1.0000
     1.0000   1.0000   1.0000   1.0000   1.0000   1.0000   1.0000   1.0000
     1.0000   1.0000   1.0000   1.0000   1.0000   1.0000   1.0000   1.0000

          k = 0.0192 0.0340-0.0479 ( 58907 PWs)   bands (ev):

   -24.0292 -24.0250 -24.0025 -23.9990 -23.7684 -23.7672 -23.7507 -23.7501
   -19.2637 -19.2631 -19.2519 -19.2515 -18.9685 -18.9683 -18.9508 -18.9502
   -18.2879 -18.2780 -17.2503 -17.2321 -17.1166 -17.1156 -16.0922 -16.0859
   -12.1389 -12.1329 -12.0672 -12.0356 -11.8915 -11.8656 -11.8120 -11.8078
    -8.8913  -8.8576  -8.2876  -8.2864  -7.5955  -7.5904  -7.4232  -7.3770
    -6.9350  -6.8903  -6.6435  -6.6155  -6.5423  -6.5269  -6.4641  -6.4449
    -6.1919  -6.1754  -6.0693  -6.0429  -5.8847  -5.8748  -5.8555  -5.8395
    -5.7605  -5.7287  -5.5094  -5.4838  -5.1558  -5.1057  -4.9867  -4.9558
    -4.4952  -4.4657  -4.3647  -4.3443  -4.2212  -4.2137  -4.0188  -3.9990
    -3.6875  -3.6670  -3.5108  -3.4766  -3.2154  -3.2046  -3.0486  -3.0441
    -0.7356  -0.7112  -0.3665  -0.3631  -0.2968  -0.2798  -0.2486  -0.2249
    -0.1616  -0.1498   0.0260   0.0572   0.1919   0.2078   0.2490   0.2748
     0.5715   0.6010   0.6681   0.6797   0.6897   0.7312   0.7972   0.8013
     0.9445   0.9611   1.0761   1.0939   1.1816   1.1939   1.3210   1.3288

     occupation numbers 
     1.0000   1.0000   1.0000   1.0000   1.0000   1.0000   1.0000   1.0000
     1.0000   1.0000   1.0000   1.0000   1.0000   1.0000   1.0000   1.0000
     1.0000   1.0000   1.0000   1.0000   1.0000   1.0000   1.0000   1.0000
     1.0000   1.0000   1.0000   1.0000   1.0000   1.0000   1.0000   1.0000
     1.0000   1.0000   1.0000   1.0000   1.0000   1.0000   1.0000   1.0000
     1.0000   1.0000   1.0000   1.0000   1.0000   1.0000   1.0000   1.0000
     1.0000   1.0000   1.0000   1.0000   1.0000   1.0000   1.0000   1.0000
     1.0000   1.0000   1.0000   1.0000   1.0000   1.0000   1.0000   1.0000
     1.0000   1.0000   1.0000   1.0000   1.0000   1.0000   1.0000   1.0000
     1.0000   1.0000   1.0000   1.0000   1.0000   1.0000   1.0000   1.0000
     1.0000   1.0000   1.0000   1.0000   1.0000   1.0000   1.0000   1.0000
     1.0000   1.0000   1.0000   1.0000   1.0000   1.0000   1.0000   1.0000
     1.0000   1.0000   1.0000   1.0000   1.0000   1.0000   1.0000   1.0000
     1.0000   1.0000   1.0000   1.0000   1.0000   1.0000   1.0000   1.0000

          k = 0.0192 0.0340-0.0131 ( 58894 PWs)   bands (ev):

   -24.0344 -24.0259 -24.0006 -23.9963 -23.7660 -23.7626 -23.7535 -23.7529
   -19.2660 -19.2644 -19.2510 -19.2475 -18.9651 -18.9650 -18.9535 -18.9534
   -18.2892 -18.2751 -17.2543 -17.2273 -17.1211 -17.1209 -16.0919 -16.0835
   -12.1340 -12.1281 -12.0817 -12.0392 -11.8948 -11.8666 -11.7987 -11.7930
    -8.9106  -8.8741  -8.3068  -8.2956  -7.5914  -7.5814  -7.4675  -7.4365
    -6.8573  -6.8428  -6.6437  -6.5894  -6.5506  -6.5299  -6.4276  -6.3962
    -6.1834  -6.1654  -6.0823  -6.0536  -5.9254  -5.9009  -5.8099  -5.8037
    -5.6880  -5.6724  -5.5546  -5.5500  -5.1466  -5.1165  -4.9862  -4.9661
    -4.5327  -4.5306  -4.4470  -4.4263  -4.2614  -4.2096  -3.9044  -3.8840
    -3.7011  -3.6452  -3.5447  -3.5189  -3.1918  -3.1725  -3.0551  -3.0545
    -0.7933  -0.7838  -0.3459  -0.3401  -0.2784  -0.2441  -0.1795  -0.1703
    -0.1290  -0.1099   0.0348   0.0633   0.1479   0.1818   0.2897   0.3178
     0.5269   0.5480   0.5969   0.6490   0.6917   0.7202   0.8334   0.8368
     0.9090   0.9392   1.0571   1.0809   1.1933   1.2419   1.3107   1.3194

     occupation numbers 
     1.0000   1.0000   1.0000   1.0000   1.0000   1.0000   1.0000   1.0000
     1.0000   1.0000   1.0000   1.0000   1.0000   1.0000   1.0000   1.0000
     1.0000   1.0000   1.0000   1.0000   1.0000   1.0000   1.0000   1.0000
     1.0000   1.0000   1.0000   1.0000   1.0000   1.0000   1.0000   1.0000
     1.0000   1.0000   1.0000   1.0000   1.0000   1.0000   1.0000   1.0000
     1.0000   1.0000   1.0000   1.0000   1.0000   1.0000   1.0000   1.0000
     1.0000   1.0000   1.0000   1.0000   1.0000   1.0000   1.0000   1.0000
     1.0000   1.0000   1.0000   1.0000   1.0000   1.0000   1.0000   1.0000
     1.0000   1.0000   1.0000   1.0000   1.0000   1.0000   1.0000   1.0000
     1.0000   1.0000   1.0000   1.0000   1.0000   1.0000   1.0000   1.0000
     1.0000   1.0000   1.0000   1.0000   1.0000   1.0000   1.0000   1.0000
     1.0000   1.0000   1.0000   1.0000   1.0000   1.0000   1.0000   1.0000
     1.0000   1.0000   1.0000   1.0000   1.0000   1.0000   1.0000   1.0000
     1.0000   1.0000   1.0000   1.0000   1.0000   1.0000   1.0000   1.0000

          k = 0.0575 0.0113 0.0303 ( 58849 PWs)   bands (ev):

   -24.0287 -24.0191 -24.0022 -24.0016 -23.7651 -23.7625 -23.7584 -23.7535
   -19.2652 -19.2613 -19.2571 -19.2481 -18.9643 -18.9633 -18.9559 -18.9543
   -18.2894 -18.2892 -17.2396 -17.2374 -17.1201 -17.1182 -16.0934 -16.0917
   -12.1212 -12.1196 -12.0216 -12.0038 -11.8683 -11.8512 -11.8164 -11.8023
    -8.9238  -8.8917  -8.3184  -8.2971  -7.5830  -7.5574  -7.5372  -7.4736
    -7.0290  -6.9626  -6.7213  -6.5935  -6.5182  -6.4824  -6.3179  -6.2807
    -6.2618  -6.2052  -6.0868  -6.0199  -5.9460  -5.9033  -5.8328  -5.8093
    -5.7247  -5.6805  -5.5928  -5.5729  -5.1986  -5.0902  -4.9744  -4.9663
    -4.5113  -4.4894  -4.4354  -4.3911  -4.0773  -4.0282  -3.8606  -3.8182
    -3.7704  -3.6580  -3.6022  -3.5964  -3.1942  -3.1921  -3.0627  -3.0360
    -0.8050  -0.7905  -0.3465  -0.3440  -0.2541  -0.2368  -0.1750  -0.1496
    -0.1221  -0.0917   0.0525   0.0669   0.1441   0.1585   0.2846   0.3098
     0.5332   0.5415   0.6108   0.6614   0.7308   0.7407   0.8044   0.8246
     0.8787   0.9301   0.9627   1.0054   1.2347   1.2704   1.3035   1.3403

     occupation numbers 
     1.0000   1.0000   1.0000   1.0000   1.0000   1.0000   1.0000   1.0000
     1.0000   1.0000   1.0000   1.0000   1.0000   1.0000   1.0000   1.0000
     1.0000   1.0000   1.0000   1.0000   1.0000   1.0000   1.0000   1.0000
     1.0000   1.0000   1.0000   1.0000   1.0000   1.0000   1.0000   1.0000
     1.0000   1.0000   1.0000   1.0000   1.0000   1.0000   1.0000   1.0000
     1.0000   1.0000   1.0000   1.0000   1.0000   1.0000   1.0000   1.0000
     1.0000   1.0000   1.0000   1.0000   1.0000   1.0000   1.0000   1.0000
     1.0000   1.0000   1.0000   1.0000   1.0000   1.0000   1.0000   1.0000
     1.0000   1.0000   1.0000   1.0000   1.0000   1.0000   1.0000   1.0000
     1.0000   1.0000   1.0000   1.0000   1.0000   1.0000   1.0000   1.0000
     1.0000   1.0000   1.0000   1.0000   1.0000   1.0000   1.0000   1.0000
     1.0000   1.0000   1.0000   1.0000   1.0000   1.0000   1.0000   1.0000
     1.0000   1.0000   1.0000   1.0000   1.0000   1.0000   1.0000   1.0000
     1.0000   1.0000   1.0000   1.0000   1.0000   1.0000   1.0000   1.0000

          k = 0.0575 0.0113 0.0651 ( 58911 PWs)   bands (ev):

   -24.0247 -24.0218 -24.0059 -23.9980 -23.7646 -23.7643 -23.7606 -23.7512
   -19.2656 -19.2627 -19.2575 -19.2472 -18.9736 -18.9716 -18.9488 -18.9451
   -18.3035 -18.2802 -17.2588 -17.2169 -17.1108 -17.1069 -16.1085 -16.0906
   -12.1345 -12.1270 -12.0516 -11.9771 -11.8666 -11.8258 -11.8200 -11.8046
    -8.9668  -8.8481  -8.3117  -8.2776  -7.5880  -7.5601  -7.5023  -7.3592
    -7.1283  -6.9119  -6.7259  -6.5487  -6.5382  -6.4911  -6.4570  -6.3729
    -6.3066  -6.2372  -6.0373  -6.0266  -5.9734  -5.9351  -5.8700  -5.8115
    -5.7010  -5.6510  -5.5493  -5.4774  -5.2110  -5.0487  -5.0387  -4.9764
    -4.4529  -4.4382  -4.3746  -4.3307  -4.0345  -4.0124  -3.9662  -3.9277
    -3.7796  -3.6834  -3.6092  -3.5145  -3.2408  -3.2080  -3.0599  -3.0071
    -0.8794  -0.8369  -0.3525  -0.3203  -0.2581  -0.2282  -0.1716  -0.1335
    -0.0884  -0.0541   0.1144   0.1455   0.1639   0.1873   0.2536   0.3458
     0.4512   0.4711   0.5226   0.6284   0.7185   0.7504   0.7856   0.8221
     0.9143   0.9584   0.9729   1.0025   1.2488   1.2889   1.3058   1.3541

     occupation numbers 
     1.0000   1.0000   1.0000   1.0000   1.0000   1.0000   1.0000   1.0000
     1.0000   1.0000   1.0000   1.0000   1.0000   1.0000   1.0000   1.0000
     1.0000   1.0000   1.0000   1.0000   1.0000   1.0000   1.0000   1.0000
     1.0000   1.0000   1.0000   1.0000   1.0000   1.0000   1.0000   1.0000
     1.0000   1.0000   1.0000   1.0000   1.0000   1.0000   1.0000   1.0000
     1.0000   1.0000   1.0000   1.0000   1.0000   1.0000   1.0000   1.0000
     1.0000   1.0000   1.0000   1.0000   1.0000   1.0000   1.0000   1.0000
     1.0000   1.0000   1.0000   1.0000   1.0000   1.0000   1.0000   1.0000
     1.0000   1.0000   1.0000   1.0000   1.0000   1.0000   1.0000   1.0000
     1.0000   1.0000   1.0000   1.0000   1.0000   1.0000   1.0000   1.0000
     1.0000   1.0000   1.0000   1.0000   1.0000   1.0000   1.0000   1.0000
     1.0000   1.0000   1.0000   1.0000   1.0000   1.0000   1.0000   1.0000
     1.0000   1.0000   1.0000   1.0000   1.0000   1.0000   1.0000   1.0000
     1.0000   1.0000   1.0000   1.0000   1.0000   1.0000   1.0000   1.0000

          k = 0.0575 0.0113-0.0393 ( 58842 PWs)   bands (ev):

   -24.0262 -24.0208 -24.0074 -23.9960 -23.7676 -23.7665 -23.7564 -23.7502
   -19.2637 -19.2618 -19.2577 -19.2499 -18.9746 -18.9727 -18.9477 -18.9440
   -18.3079 -18.2746 -17.2683 -17.2070 -17.1135 -17.1099 -16.1083 -16.0846
   -12.1389 -12.1280 -12.0747 -11.9577 -11.8824 -11.8195 -11.8141 -11.7987
    -8.9624  -8.8247  -8.3057  -8.2794  -7.5872  -7.5611  -7.5231  -7.3481
    -7.1483  -6.9148  -6.7122  -6.5732  -6.5404  -6.5239  -6.4517  -6.3922
    -6.3148  -6.2511  -6.0271  -5.9690  -5.9614  -5.9340  -5.8723  -5.8276
    -5.6776  -5.6482  -5.5547  -5.4772  -5.2018  -5.0740  -5.0125  -4.9613
    -4.4582  -4.4183  -4.3700  -4.3466  -4.0637  -4.0575  -3.9100  -3.9067
    -3.7317  -3.7099  -3.6609  -3.5190  -3.2448  -3.2044  -3.0573  -3.0121
    -0.8368  -0.7727  -0.3461  -0.2969  -0.2719  -0.2480  -0.1777  -0.1495
    -0.1457  -0.1074   0.0499   0.1265   0.1624   0.2032   0.2209   0.2482
     0.5035   0.5726   0.5977   0.6130   0.7213   0.7371   0.8086   0.8344
     0.9082   0.9390   0.9925   1.0562   1.2652   1.2841   1.2868   1.3185

     occupation numbers 
     1.0000   1.0000   1.0000   1.0000   1.0000   1.0000   1.0000   1.0000
     1.0000   1.0000   1.0000   1.0000   1.0000   1.0000   1.0000   1.0000
     1.0000   1.0000   1.0000   1.0000   1.0000   1.0000   1.0000   1.0000
     1.0000   1.0000   1.0000   1.0000   1.0000   1.0000   1.0000   1.0000
     1.0000   1.0000   1.0000   1.0000   1.0000   1.0000   1.0000   1.0000
     1.0000   1.0000   1.0000   1.0000   1.0000   1.0000   1.0000   1.0000
     1.0000   1.0000   1.0000   1.0000   1.0000   1.0000   1.0000   1.0000
     1.0000   1.0000   1.0000   1.0000   1.0000   1.0000   1.0000   1.0000
     1.0000   1.0000   1.0000   1.0000   1.0000   1.0000   1.0000   1.0000
     1.0000   1.0000   1.0000   1.0000   1.0000   1.0000   1.0000   1.0000
     1.0000   1.0000   1.0000   1.0000   1.0000   1.0000   1.0000   1.0000
     1.0000   1.0000   1.0000   1.0000   1.0000   1.0000   1.0000   1.0000
     1.0000   1.0000   1.0000   1.0000   1.0000   1.0000   1.0000   1.0000
     1.0000   1.0000   1.0000   1.0000   1.0000   1.0000   1.0000   1.0000

          k = 0.0575 0.0113-0.0045 ( 58822 PWs)   bands (ev):

   -24.0294 -24.0189 -24.0059 -23.9974 -23.7679 -23.7646 -23.7543 -23.7526
   -19.2631 -19.2614 -19.2543 -19.2531 -18.9667 -18.9660 -18.9533 -18.9518
   -18.3006 -18.2767 -17.2608 -17.2156 -17.1223 -17.1217 -16.0973 -16.0817
   -12.1270 -12.1193 -12.0615 -11.9668 -11.8916 -11.8320 -11.8076 -11.8053
    -8.9335  -8.8538  -8.3077  -8.3041  -7.5823  -7.5725  -7.5545  -7.4550
    -7.0469  -6.9597  -6.6762  -6.6538  -6.5155  -6.5090  -6.3526  -6.3188
    -6.2387  -6.2360  -6.0287  -5.9983  -5.9065  -5.8729  -5.8549  -5.8380
    -5.7003  -5.6874  -5.5881  -5.5766  -5.1598  -5.1401  -4.9520  -4.9478
    -4.5124  -4.4871  -4.4294  -4.4001  -4.0914  -4.0479  -3.8251  -3.8196
    -3.7270  -3.6841  -3.6601  -3.5867  -3.2114  -3.1774  -3.0590  -3.0412
    -0.7507  -0.7026  -0.3498  -0.3407  -0.2636  -0.2609  -0.2266  -0.2251
    -0.1366  -0.1080   0.0077   0.0681   0.1266   0.1648   0.2590   0.2940
     0.5244   0.5821   0.6611   0.7070   0.7215   0.7601   0.8208   0.8468
     0.8784   0.8963   0.9762   1.0556   1.2529   1.2633   1.2858   1.3001

     occupation numbers 
     1.0000   1.0000   1.0000   1.0000   1.0000   1.0000   1.0000   1.0000
     1.0000   1.0000   1.0000   1.0000   1.0000   1.0000   1.0000   1.0000
     1.0000   1.0000   1.0000   1.0000   1.0000   1.0000   1.0000   1.0000
     1.0000   1.0000   1.0000   1.0000   1.0000   1.0000   1.0000   1.0000
     1.0000   1.0000   1.0000   1.0000   1.0000   1.0000   1.0000   1.0000
     1.0000   1.0000   1.0000   1.0000   1.0000   1.0000   1.0000   1.0000
     1.0000   1.0000   1.0000   1.0000   1.0000   1.0000   1.0000   1.0000
     1.0000   1.0000   1.0000   1.0000   1.0000   1.0000   1.0000   1.0000
     1.0000   1.0000   1.0000   1.0000   1.0000   1.0000   1.0000   1.0000
     1.0000   1.0000   1.0000   1.0000   1.0000   1.0000   1.0000   1.0000
     1.0000   1.0000   1.0000   1.0000   1.0000   1.0000   1.0000   1.0000
     1.0000   1.0000   1.0000   1.0000   1.0000   1.0000   1.0000   1.0000
     1.0000   1.0000   1.0000   1.0000   1.0000   1.0000   1.0000   1.0000
     1.0000   1.0000   1.0000   1.0000   1.0000   1.0000   1.0000   1.0000

          k = 0.0575 0.0340 0.0303 ( 58884 PWs)   bands (ev):

   -24.0257 -24.0217 -24.0025 -24.0020 -23.7634 -23.7624 -23.7578 -23.7557
   -19.2652 -19.2641 -19.2528 -19.2496 -18.9640 -18.9636 -18.9555 -18.9548
   -18.2893 -18.2893 -17.2391 -17.2382 -17.1193 -17.1185 -16.0929 -16.0923
   -12.1208 -12.1201 -12.0150 -12.0075 -11.8652 -11.8581 -11.8120 -11.8061
    -8.9143  -8.9010  -8.3094  -8.3004  -7.5757  -7.5658  -7.5203  -7.4940
    -7.0321  -7.0095  -6.6450  -6.5985  -6.5024  -6.4809  -6.3475  -6.3140
    -6.2446  -6.2167  -6.0577  -6.0294  -5.9421  -5.9168  -5.8288  -5.8093
    -5.7049  -5.6909  -5.5874  -5.5788  -5.1681  -5.1232  -4.9774  -4.9736
    -4.5021  -4.4893  -4.4290  -4.4104  -4.0547  -4.0332  -3.8493  -3.8313
    -3.7381  -3.6922  -3.6016  -3.5969  -3.1934  -3.1913  -3.0588  -3.0470
    -0.7974  -0.7914  -0.3367  -0.3302  -0.2902  -0.2734  -0.1553  -0.1353
    -0.1160  -0.1002   0.0657   0.0801   0.1491   0.1624   0.2851   0.2968
     0.5539   0.5601   0.5933   0.6195   0.7295   0.7374   0.8143   0.8362
     0.8950   0.9261   0.9635   0.9848   1.2456   1.2602   1.3146   1.3295

     occupation numbers 
     1.0000   1.0000   1.0000   1.0000   1.0000   1.0000   1.0000   1.0000
     1.0000   1.0000   1.0000   1.0000   1.0000   1.0000   1.0000   1.0000
     1.0000   1.0000   1.0000   1.0000   1.0000   1.0000   1.0000   1.0000
     1.0000   1.0000   1.0000   1.0000   1.0000   1.0000   1.0000   1.0000
     1.0000   1.0000   1.0000   1.0000   1.0000   1.0000   1.0000   1.0000
     1.0000   1.0000   1.0000   1.0000   1.0000   1.0000   1.0000   1.0000
     1.0000   1.0000   1.0000   1.0000   1.0000   1.0000   1.0000   1.0000
     1.0000   1.0000   1.0000   1.0000   1.0000   1.0000   1.0000   1.0000
     1.0000   1.0000   1.0000   1.0000   1.0000   1.0000   1.0000   1.0000
     1.0000   1.0000   1.0000   1.0000   1.0000   1.0000   1.0000   1.0000
     1.0000   1.0000   1.0000   1.0000   1.0000   1.0000   1.0000   1.0000
     1.0000   1.0000   1.0000   1.0000   1.0000   1.0000   1.0000   1.0000
     1.0000   1.0000   1.0000   1.0000   1.0000   1.0000   1.0000   1.0000
     1.0000   1.0000   1.0000   1.0000   1.0000   1.0000   1.0000   1.0000

          k = 0.0575 0.0340 0.0651 ( 58884 PWs)   bands (ev):

   -24.0235 -24.0223 -24.0041 -24.0008 -23.7644 -23.7642 -23.7579 -23.7539
   -19.2659 -19.2651 -19.2528 -19.2491 -18.9730 -18.9722 -18.9477 -18.9462
   -18.2969 -18.2872 -17.2465 -17.2291 -17.1096 -17.1081 -16.1031 -16.0957
   -12.1345 -12.1316 -12.0286 -11.9987 -11.8529 -11.8365 -11.8157 -11.8093
    -8.9332  -8.8841  -8.3003  -8.2861  -7.5670  -7.5527  -7.4844  -7.4200
    -7.0875  -7.0108  -6.6302  -6.5714  -6.5274  -6.5127  -6.4171  -6.3659
    -6.3033  -6.2538  -6.0185  -6.0094  -5.9764  -5.9634  -5.8776  -5.8409
    -5.6923  -5.6723  -5.5218  -5.4921  -5.1725  -5.1045  -5.0178  -4.9914
    -4.4402  -4.4206  -4.3711  -4.3374  -4.0242  -4.0159  -3.9562  -3.9408
    -3.7602  -3.7251  -3.5743  -3.5380  -3.2322  -3.2187  -3.0447  -3.0228
    -0.8637  -0.8463  -0.3410  -0.3269  -0.2848  -0.2765  -0.1453  -0.1335
    -0.0579  -0.0462   0.1310   0.1416   0.1771   0.1895   0.2766   0.3194
     0.4388   0.4481   0.5721   0.6275   0.6949   0.7297   0.8003   0.8184
     0.9097   0.9356   0.9926   1.0081   1.2596   1.2760   1.3197   1.3394

     occupation numbers 
     1.0000   1.0000   1.0000   1.0000   1.0000   1.0000   1.0000   1.0000
     1.0000   1.0000   1.0000   1.0000   1.0000   1.0000   1.0000   1.0000
     1.0000   1.0000   1.0000   1.0000   1.0000   1.0000   1.0000   1.0000
     1.0000   1.0000   1.0000   1.0000   1.0000   1.0000   1.0000   1.0000
     1.0000   1.0000   1.0000   1.0000   1.0000   1.0000   1.0000   1.0000
     1.0000   1.0000   1.0000   1.0000   1.0000   1.0000   1.0000   1.0000
     1.0000   1.0000   1.0000   1.0000   1.0000   1.0000   1.0000   1.0000
     1.0000   1.0000   1.0000   1.0000   1.0000   1.0000   1.0000   1.0000
     1.0000   1.0000   1.0000   1.0000   1.0000   1.0000   1.0000   1.0000
     1.0000   1.0000   1.0000   1.0000   1.0000   1.0000   1.0000   1.0000
     1.0000   1.0000   1.0000   1.0000   1.0000   1.0000   1.0000   1.0000
     1.0000   1.0000   1.0000   1.0000   1.0000   1.0000   1.0000   1.0000
     1.0000   1.0000   1.0000   1.0000   1.0000   1.0000   1.0000   1.0000
     1.0000   1.0000   1.0000   1.0000   1.0000   1.0000   1.0000   1.0000

          k = 0.0575 0.0340-0.0393 ( 58883 PWs)   bands (ev):

   -24.0247 -24.0225 -24.0040 -23.9993 -23.7670 -23.7665 -23.7548 -23.7521
   -19.2644 -19.2640 -19.2537 -19.2510 -18.9740 -18.9732 -18.9467 -18.9451
   -18.2985 -18.2847 -17.2500 -17.2246 -17.1126 -17.1112 -16.1011 -16.0913
   -12.1389 -12.1353 -12.0424 -11.9982 -11.8546 -11.8318 -11.8095 -11.8037
    -8.9239  -8.8670  -8.2977  -8.2866  -7.5717  -7.5541  -7.4926  -7.4140
    -7.0956  -7.0106  -6.6292  -6.5865  -6.5387  -6.5207  -6.4684  -6.4151
    -6.2673  -6.2255  -6.0305  -5.9952  -5.9543  -5.9405  -5.8775  -5.8490
    -5.6764  -5.6637  -5.5180  -5.4857  -5.1867  -5.1337  -4.9867  -4.9653
    -4.4577  -4.4403  -4.3442  -4.3269  -4.0585  -4.0562  -3.9111  -3.9080
    -3.7386  -3.7310  -3.6095  -3.5546  -3.2314  -3.2140  -3.0475  -3.0282
    -0.8156  -0.7888  -0.3371  -0.3193  -0.2939  -0.2774  -0.1569  -0.1501
    -0.1149  -0.0923   0.0758   0.1051   0.1703   0.1867   0.2246   0.2490
     0.5258   0.5506   0.6267   0.6277   0.7173   0.7218   0.7935   0.8028
     0.9192   0.9373   1.0177   1.0421   1.2694   1.2785   1.2940   1.3080

     occupation numbers 
     1.0000   1.0000   1.0000   1.0000   1.0000   1.0000   1.0000   1.0000
     1.0000   1.0000   1.0000   1.0000   1.0000   1.0000   1.0000   1.0000
     1.0000   1.0000   1.0000   1.0000   1.0000   1.0000   1.0000   1.0000
     1.0000   1.0000   1.0000   1.0000   1.0000   1.0000   1.0000   1.0000
     1.0000   1.0000   1.0000   1.0000   1.0000   1.0000   1.0000   1.0000
     1.0000   1.0000   1.0000   1.0000   1.0000   1.0000   1.0000   1.0000
     1.0000   1.0000   1.0000   1.0000   1.0000   1.0000   1.0000   1.0000
     1.0000   1.0000   1.0000   1.0000   1.0000   1.0000   1.0000   1.0000
     1.0000   1.0000   1.0000   1.0000   1.0000   1.0000   1.0000   1.0000
     1.0000   1.0000   1.0000   1.0000   1.0000   1.0000   1.0000   1.0000
     1.0000   1.0000   1.0000   1.0000   1.0000   1.0000   1.0000   1.0000
     1.0000   1.0000   1.0000   1.0000   1.0000   1.0000   1.0000   1.0000
     1.0000   1.0000   1.0000   1.0000   1.0000   1.0000   1.0000   1.0000
     1.0000   1.0000   1.0000   1.0000   1.0000   1.0000   1.0000   1.0000

          k = 0.0575 0.0340-0.0045 ( 58850 PWs)   bands (ev):

   -24.0266 -24.0222 -24.0032 -23.9998 -23.7665 -23.7650 -23.7542 -23.7535
   -19.2635 -19.2629 -19.2530 -19.2525 -18.9665 -18.9662 -18.9528 -18.9522
   -18.2938 -18.2839 -17.2475 -17.2288 -17.1221 -17.1218 -16.0926 -16.0862
   -12.1260 -12.1233 -12.0368 -12.0002 -11.8677 -11.8453 -11.8071 -11.8051
    -8.9106  -8.8777  -8.3056  -8.3028  -7.5790  -7.5750  -7.5282  -7.4869
    -7.0356  -7.0004  -6.6361  -6.6247  -6.5054  -6.4977  -6.4061  -6.3941
    -6.1956  -6.1878  -6.0393  -6.0202  -5.8999  -5.8855  -5.8359  -5.8268
    -5.7013  -5.6893  -5.5847  -5.5798  -5.1634  -5.1526  -4.9495  -4.9488
    -4.5116  -4.4951  -4.4280  -4.4059  -4.0665  -4.0486  -3.8267  -3.8249
    -3.7069  -3.6820  -3.6516  -3.6132  -3.1997  -3.1847  -3.0599  -3.0531
    -0.7351  -0.7152  -0.3341  -0.3285  -0.2828  -0.2596  -0.2488  -0.2304
    -0.1343  -0.1141   0.0302   0.0564   0.1442   0.1630   0.2684   0.2876
     0.5542   0.5854   0.6435   0.6697   0.7284   0.7548   0.8260   0.8319
     0.8999   0.9109   0.9905   1.0275   1.2560   1.2595   1.2894   1.2956

     occupation numbers 
     1.0000   1.0000   1.0000   1.0000   1.0000   1.0000   1.0000   1.0000
     1.0000   1.0000   1.0000   1.0000   1.0000   1.0000   1.0000   1.0000
     1.0000   1.0000   1.0000   1.0000   1.0000   1.0000   1.0000   1.0000
     1.0000   1.0000   1.0000   1.0000   1.0000   1.0000   1.0000   1.0000
     1.0000   1.0000   1.0000   1.0000   1.0000   1.0000   1.0000   1.0000
     1.0000   1.0000   1.0000   1.0000   1.0000   1.0000   1.0000   1.0000
     1.0000   1.0000   1.0000   1.0000   1.0000   1.0000   1.0000   1.0000
     1.0000   1.0000   1.0000   1.0000   1.0000   1.0000   1.0000   1.0000
     1.0000   1.0000   1.0000   1.0000   1.0000   1.0000   1.0000   1.0000
     1.0000   1.0000   1.0000   1.0000   1.0000   1.0000   1.0000   1.0000
     1.0000   1.0000   1.0000   1.0000   1.0000   1.0000   1.0000   1.0000
     1.0000   1.0000   1.0000   1.0000   1.0000   1.0000   1.0000   1.0000
     1.0000   1.0000   1.0000   1.0000   1.0000   1.0000   1.0000   1.0000
     1.0000   1.0000   1.0000   1.0000   1.0000   1.0000   1.0000   1.0000

          k =-0.0192 0.0113-0.0217 ( 58873 PWs)   bands (ev):

   -24.0392 -24.0169 -24.0051 -23.9958 -23.7664 -23.7581 -23.7573 -23.7534
   -19.2674 -19.2623 -19.2555 -19.2437 -18.9617 -18.9613 -18.9577 -18.9564
   -18.2945 -18.2702 -17.2651 -17.2174 -17.1188 -17.1174 -16.0976 -16.0843
   -12.1241 -12.1203 -12.1022 -11.9899 -11.9355 -11.8633 -11.8050 -11.7893
    -8.9239  -8.8857  -8.3192  -8.2833  -7.5942  -7.5529  -7.4662  -7.4582
    -6.9096  -6.8093  -6.6606  -6.5649  -6.5529  -6.4677  -6.4005  -6.3254
    -6.1937  -6.1648  -6.1429  -6.0240  -5.9654  -5.8888  -5.8298  -5.7836
    -5.7166  -5.6946  -5.5938  -5.5459  -5.1822  -5.0691  -4.9836  -4.9758
    -4.5168  -4.5038  -4.4804  -4.4376  -4.2767  -4.1685  -3.9135  -3.9023
    -3.7313  -3.6072  -3.5454  -3.5014  -3.1953  -3.1618  -3.0624  -3.0470
    -0.8499  -0.8454  -0.3641  -0.3618  -0.2654  -0.2142  -0.1547  -0.1359
    -0.0818  -0.0553   0.1095   0.1435   0.1547   0.1835   0.3107   0.3364
     0.3918   0.4142   0.5955   0.6397   0.7251   0.7617   0.8039   0.8440
     0.8565   0.9749   1.0017   1.0621   1.1669   1.2964   1.3136   1.3444

     occupation numbers 
     1.0000   1.0000   1.0000   1.0000   1.0000   1.0000   1.0000   1.0000
     1.0000   1.0000   1.0000   1.0000   1.0000   1.0000   1.0000   1.0000
     1.0000   1.0000   1.0000   1.0000   1.0000   1.0000   1.0000   1.0000
     1.0000   1.0000   1.0000   1.0000   1.0000   1.0000   1.0000   1.0000
     1.0000   1.0000   1.0000   1.0000   1.0000   1.0000   1.0000   1.0000
     1.0000   1.0000   1.0000   1.0000   1.0000   1.0000   1.0000   1.0000
     1.0000   1.0000   1.0000   1.0000   1.0000   1.0000   1.0000   1.0000
     1.0000   1.0000   1.0000   1.0000   1.0000   1.0000   1.0000   1.0000
     1.0000   1.0000   1.0000   1.0000   1.0000   1.0000   1.0000   1.0000
     1.0000   1.0000   1.0000   1.0000   1.0000   1.0000   1.0000   1.0000
     1.0000   1.0000   1.0000   1.0000   1.0000   1.0000   1.0000   1.0000
     1.0000   1.0000   1.0000   1.0000   1.0000   1.0000   1.0000   1.0000
     1.0000   1.0000   1.0000   1.0000   1.0000   1.0000   1.0000   1.0000
     1.0000   1.0000   1.0000   1.0000   1.0000   1.0000   1.0000   1.0000

          k =-0.0192 0.0113-0.0565 ( 58905 PWs)   bands (ev):

   -24.0313 -24.0223 -24.0015 -24.0004 -23.7683 -23.7652 -23.7538 -23.7494
   -19.2656 -19.2610 -19.2564 -19.2472 -18.9672 -18.9664 -18.9531 -18.9513
   -18.2835 -18.2832 -17.2425 -17.2400 -17.1147 -17.1123 -16.0929 -16.0915
   -12.1323 -12.1293 -12.0528 -12.0340 -11.8943 -11.8835 -11.8128 -11.8061
    -8.9047  -8.8702  -8.2996  -8.2757  -7.6088  -7.5602  -7.4458  -7.3654
    -6.9553  -6.8350  -6.6385  -6.6047  -6.5952  -6.4850  -6.4224  -6.3948
    -6.2523  -6.2233  -6.0299  -5.9842  -5.9620  -5.8921  -5.8679  -5.8184
    -5.7849  -5.7232  -5.5160  -5.4708  -5.1870  -5.1084  -4.9803  -4.9431
    -4.4789  -4.4716  -4.4073  -4.3449  -4.2051  -4.1728  -4.0253  -4.0229
    -3.7093  -3.6552  -3.4821  -3.4720  -3.2202  -3.2165  -3.0475  -3.0257
    -0.8161  -0.7825  -0.3766  -0.3677  -0.2739  -0.2399  -0.1859  -0.1665
    -0.1341  -0.0930   0.0127   0.0708   0.1749   0.2224   0.2795   0.2912
     0.5037   0.5664   0.6073   0.6587   0.7171   0.7423   0.7698   0.8198
     0.9367   0.9731   1.0365   1.0612   1.1721   1.2402   1.3230   1.3526

     occupation numbers 
     1.0000   1.0000   1.0000   1.0000   1.0000   1.0000   1.0000   1.0000
     1.0000   1.0000   1.0000   1.0000   1.0000   1.0000   1.0000   1.0000
     1.0000   1.0000   1.0000   1.0000   1.0000   1.0000   1.0000   1.0000
     1.0000   1.0000   1.0000   1.0000   1.0000   1.0000   1.0000   1.0000
     1.0000   1.0000   1.0000   1.0000   1.0000   1.0000   1.0000   1.0000
     1.0000   1.0000   1.0000   1.0000   1.0000   1.0000   1.0000   1.0000
     1.0000   1.0000   1.0000   1.0000   1.0000   1.0000   1.0000   1.0000
     1.0000   1.0000   1.0000   1.0000   1.0000   1.0000   1.0000   1.0000
     1.0000   1.0000   1.0000   1.0000   1.0000   1.0000   1.0000   1.0000
     1.0000   1.0000   1.0000   1.0000   1.0000   1.0000   1.0000   1.0000
     1.0000   1.0000   1.0000   1.0000   1.0000   1.0000   1.0000   1.0000
     1.0000   1.0000   1.0000   1.0000   1.0000   1.0000   1.0000   1.0000
     1.0000   1.0000   1.0000   1.0000   1.0000   1.0000   1.0000   1.0000
     1.0000   1.0000   1.0000   1.0000   1.0000   1.0000   1.0000   1.0000

          k =-0.0192 0.0113 0.0479 ( 58886 PWs)   bands (ev):

   -24.0322 -24.0218 -24.0051 -23.9965 -23.7697 -23.7668 -23.7507 -23.7494
   -19.2633 -19.2616 -19.2534 -19.2520 -18.9687 -18.9682 -18.9513 -18.9497
   -18.2946 -18.2709 -17.2632 -17.2193 -17.1174 -17.1150 -16.0968 -16.0814
   -12.1427 -12.1278 -12.0857 -12.0020 -11.9214 -11.8521 -11.8148 -11.8052
    -8.9142  -8.8328  -8.2868  -8.2850  -7.6030  -7.5885  -7.4523  -7.3428
    -6.9673  -6.8607  -6.6385  -6.5997  -6.5608  -6.5327  -6.4367  -6.4024
    -6.2753  -6.2432  -6.0358  -6.0032  -5.8891  -5.8620  -5.8518  -5.8402
    -5.7812  -5.7093  -5.5147  -5.4700  -5.1823  -5.1102  -4.9649  -4.9359
    -4.5081  -4.4343  -4.4031  -4.3502  -4.2197  -4.2003  -4.0323  -3.9839
    -3.7087  -3.6593  -3.5342  -3.4520  -3.2275  -3.2043  -3.0441  -3.0319
    -0.7518  -0.6919  -0.3667  -0.3588  -0.3238  -0.2961  -0.2236  -0.2046
    -0.1446  -0.1423  -0.0255   0.0563   0.1913   0.2252   0.2366   0.2861
     0.5494   0.6243   0.6449   0.6568   0.7013   0.7796   0.7904   0.8001
     0.9305   0.9804   1.0547   1.1025   1.1752   1.2034   1.3162   1.3343

     occupation numbers 
     1.0000   1.0000   1.0000   1.0000   1.0000   1.0000   1.0000   1.0000
     1.0000   1.0000   1.0000   1.0000   1.0000   1.0000   1.0000   1.0000
     1.0000   1.0000   1.0000   1.0000   1.0000   1.0000   1.0000   1.0000
     1.0000   1.0000   1.0000   1.0000   1.0000   1.0000   1.0000   1.0000
     1.0000   1.0000   1.0000   1.0000   1.0000   1.0000   1.0000   1.0000
     1.0000   1.0000   1.0000   1.0000   1.0000   1.0000   1.0000   1.0000
     1.0000   1.0000   1.0000   1.0000   1.0000   1.0000   1.0000   1.0000
     1.0000   1.0000   1.0000   1.0000   1.0000   1.0000   1.0000   1.0000
     1.0000   1.0000   1.0000   1.0000   1.0000   1.0000   1.0000   1.0000
     1.0000   1.0000   1.0000   1.0000   1.0000   1.0000   1.0000   1.0000
     1.0000   1.0000   1.0000   1.0000   1.0000   1.0000   1.0000   1.0000
     1.0000   1.0000   1.0000   1.0000   1.0000   1.0000   1.0000   1.0000
     1.0000   1.0000   1.0000   1.0000   1.0000   1.0000   1.0000   1.0000
     1.0000   1.0000   1.0000   1.0000   1.0000   1.0000   1.0000   1.0000

          k =-0.0192 0.0113 0.0131 ( 58882 PWs)   bands (ev):

   -24.0396 -24.0170 -24.0063 -23.9941 -23.7689 -23.7609 -23.7536 -23.7518
   -19.2664 -19.2610 -19.2558 -19.2458 -18.9651 -18.9649 -18.9535 -18.9534
   -18.2988 -18.2647 -17.2737 -17.2088 -17.1211 -17.1205 -16.0980 -16.0778
   -12.1389 -12.1211 -12.1073 -11.9871 -11.9362 -11.8524 -11.8034 -11.7898
    -8.9349  -8.8468  -8.3132  -8.2861  -7.5981  -7.5758  -7.4920  -7.4147
    -6.8809  -6.8671  -6.6568  -6.5547  -6.5486  -6.5124  -6.4092  -6.3409
    -6.2419  -6.1986  -6.0755  -6.0279  -5.9289  -5.8804  -5.8117  -5.7835
    -5.7280  -5.6788  -5.5634  -5.5615  -5.1518  -5.1065  -4.9766  -4.9458
    -4.5152  -4.5016  -4.4776  -4.4514  -4.2875  -4.1757  -3.9202  -3.8707
    -3.7487  -3.6159  -3.5599  -3.4993  -3.2028  -3.1558  -3.0561  -3.0546
    -0.8029  -0.7800  -0.3554  -0.3488  -0.2662  -0.2334  -0.1620  -0.1439
    -0.1371  -0.0994   0.0039   0.0639   0.1260   0.2001   0.2558   0.3210
     0.5188   0.5518   0.5820   0.6599   0.7211   0.7668   0.8199   0.8335
     0.8707   0.9546   1.0298   1.0898   1.1660   1.2789   1.3005   1.3297

     occupation numbers 
     1.0000   1.0000   1.0000   1.0000   1.0000   1.0000   1.0000   1.0000
     1.0000   1.0000   1.0000   1.0000   1.0000   1.0000   1.0000   1.0000
     1.0000   1.0000   1.0000   1.0000   1.0000   1.0000   1.0000   1.0000
     1.0000   1.0000   1.0000   1.0000   1.0000   1.0000   1.0000   1.0000
     1.0000   1.0000   1.0000   1.0000   1.0000   1.0000   1.0000   1.0000
     1.0000   1.0000   1.0000   1.0000   1.0000   1.0000   1.0000   1.0000
     1.0000   1.0000   1.0000   1.0000   1.0000   1.0000   1.0000   1.0000
     1.0000   1.0000   1.0000   1.0000   1.0000   1.0000   1.0000   1.0000
     1.0000   1.0000   1.0000   1.0000   1.0000   1.0000   1.0000   1.0000
     1.0000   1.0000   1.0000   1.0000   1.0000   1.0000   1.0000   1.0000
     1.0000   1.0000   1.0000   1.0000   1.0000   1.0000   1.0000   1.0000
     1.0000   1.0000   1.0000   1.0000   1.0000   1.0000   1.0000   1.0000
     1.0000   1.0000   1.0000   1.0000   1.0000   1.0000   1.0000   1.0000
     1.0000   1.0000   1.0000   1.0000   1.0000   1.0000   1.0000   1.0000

          k =-0.0192 0.0340-0.0217 ( 58876 PWs)   bands (ev):

   -24.0339 -24.0253 -24.0006 -23.9974 -23.7629 -23.7590 -23.7571 -23.7559
   -19.2670 -19.2655 -19.2503 -19.2459 -18.9616 -18.9615 -18.9573 -18.9567
   -18.2876 -18.2776 -17.2511 -17.2313 -17.1183 -17.1177 -16.0937 -16.0881
   -12.1240 -12.1230 -12.0774 -12.0368 -11.8995 -11.8748 -11.8002 -11.7937
    -8.9136  -8.8977  -8.3095  -8.2946  -7.5843  -7.5667  -7.4589  -7.4553
    -6.8867  -6.8417  -6.6074  -6.5660  -6.5587  -6.5152  -6.3779  -6.3547
    -6.2043  -6.1884  -6.0718  -6.0345  -5.9681  -5.9312  -5.8264  -5.8108
    -5.6860  -5.6746  -5.5722  -5.5499  -5.1362  -5.0699  -5.0277  -5.0049
    -4.5300  -4.5206  -4.4465  -4.4271  -4.2502  -4.2003  -3.9090  -3.9023
    -3.6943  -3.6409  -3.5330  -3.5131  -3.1890  -3.1754  -3.0549  -3.0491
    -0.8456  -0.8434  -0.3552  -0.3496  -0.2779  -0.2422  -0.1772  -0.1705
    -0.0487  -0.0394   0.1335   0.1448   0.1748   0.1815   0.3333   0.3434
     0.3730   0.3909   0.6076   0.6327   0.7052   0.7171   0.8220   0.8429
     0.9025   0.9473   1.0286   1.0514   1.2036   1.2574   1.3243   1.3342

     occupation numbers 
     1.0000   1.0000   1.0000   1.0000   1.0000   1.0000   1.0000   1.0000
     1.0000   1.0000   1.0000   1.0000   1.0000   1.0000   1.0000   1.0000
     1.0000   1.0000   1.0000   1.0000   1.0000   1.0000   1.0000   1.0000
     1.0000   1.0000   1.0000   1.0000   1.0000   1.0000   1.0000   1.0000
     1.0000   1.0000   1.0000   1.0000   1.0000   1.0000   1.0000   1.0000
     1.0000   1.0000   1.0000   1.0000   1.0000   1.0000   1.0000   1.0000
     1.0000   1.0000   1.0000   1.0000   1.0000   1.0000   1.0000   1.0000
     1.0000   1.0000   1.0000   1.0000   1.0000   1.0000   1.0000   1.0000
     1.0000   1.0000   1.0000   1.0000   1.0000   1.0000   1.0000   1.0000
     1.0000   1.0000   1.0000   1.0000   1.0000   1.0000   1.0000   1.0000
     1.0000   1.0000   1.0000   1.0000   1.0000   1.0000   1.0000   1.0000
     1.0000   1.0000   1.0000   1.0000   1.0000   1.0000   1.0000   1.0000
     1.0000   1.0000   1.0000   1.0000   1.0000   1.0000   1.0000   1.0000
     1.0000   1.0000   1.0000   1.0000   1.0000   1.0000   1.0000   1.0000

          k =-0.0192 0.0340-0.0565 ( 58889 PWs)   bands (ev):

   -24.0284 -24.0246 -24.0017 -24.0011 -23.7667 -23.7655 -23.7530 -23.7511
   -19.2654 -19.2641 -19.2519 -19.2487 -18.9669 -18.9666 -18.9526 -18.9518
   -18.2834 -18.2833 -17.2421 -17.2411 -17.1137 -17.1127 -16.0925 -16.0919
   -12.1310 -12.1296 -12.0497 -12.0417 -11.8882 -11.8832 -11.8122 -11.8093
    -8.8948  -8.8805  -8.2931  -8.2831  -7.5930  -7.5731  -7.4225  -7.3899
    -6.9358  -6.8912  -6.6252  -6.6143  -6.5442  -6.4978  -6.4328  -6.4143
    -6.2103  -6.1833  -6.0528  -6.0080  -5.9412  -5.9097  -5.8635  -5.8443
    -5.7638  -5.7305  -5.5212  -5.5008  -5.1239  -5.0746  -5.0242  -4.9886
    -4.4562  -4.4443  -4.4050  -4.3756  -4.1989  -4.1846  -4.0252  -4.0236
    -3.6882  -3.6655  -3.4814  -3.4768  -3.2160  -3.2123  -3.0472  -3.0367
    -0.8056  -0.7919  -0.3700  -0.3621  -0.2845  -0.2569  -0.2017  -0.1860
    -0.1062  -0.0880   0.0586   0.0785   0.1784   0.2014   0.2729   0.2842
     0.5193   0.5463   0.6218   0.6449   0.7277   0.7378   0.7757   0.8057
     0.9389   0.9582   1.0487   1.0584   1.1951   1.2228   1.3306   1.3428

     occupation numbers 
     1.0000   1.0000   1.0000   1.0000   1.0000   1.0000   1.0000   1.0000
     1.0000   1.0000   1.0000   1.0000   1.0000   1.0000   1.0000   1.0000
     1.0000   1.0000   1.0000   1.0000   1.0000   1.0000   1.0000   1.0000
     1.0000   1.0000   1.0000   1.0000   1.0000   1.0000   1.0000   1.0000
     1.0000   1.0000   1.0000   1.0000   1.0000   1.0000   1.0000   1.0000
     1.0000   1.0000   1.0000   1.0000   1.0000   1.0000   1.0000   1.0000
     1.0000   1.0000   1.0000   1.0000   1.0000   1.0000   1.0000   1.0000
     1.0000   1.0000   1.0000   1.0000   1.0000   1.0000   1.0000   1.0000
     1.0000   1.0000   1.0000   1.0000   1.0000   1.0000   1.0000   1.0000
     1.0000   1.0000   1.0000   1.0000   1.0000   1.0000   1.0000   1.0000
     1.0000   1.0000   1.0000   1.0000   1.0000   1.0000   1.0000   1.0000
     1.0000   1.0000   1.0000   1.0000   1.0000   1.0000   1.0000   1.0000
     1.0000   1.0000   1.0000   1.0000   1.0000   1.0000   1.0000   1.0000
     1.0000   1.0000   1.0000   1.0000   1.0000   1.0000   1.0000   1.0000

          k =-0.0192 0.0340 0.0479 ( 58907 PWs)   bands (ev):

   -24.0292 -24.0250 -24.0025 -23.9990 -23.7684 -23.7672 -23.7507 -23.7501
   -19.2637 -19.2631 -19.2520 -19.2515 -18.9685 -18.9683 -18.9508 -18.9502
   -18.2879 -18.2780 -17.2503 -17.2321 -17.1166 -17.1156 -16.0922 -16.0859
   -12.1389 -12.1330 -12.0672 -12.0356 -11.8915 -11.8656 -11.8120 -11.8078
[...]
     1.0000   1.0000   1.0000   1.0000   1.0000   1.0000   1.0000   1.0000
     1.0000   1.0000   1.0000   1.0000   1.0000   1.0000   1.0000   1.0000
     1.0000   1.0000   1.0000   1.0000   1.0000   1.0000   1.0000   1.0000
     1.0000   1.0000   1.0000   1.0000   1.0000   1.0000   1.0000   1.0000
     1.0000   1.0000   1.0000   1.0000   1.0000   1.0000   1.0000   1.0000
     1.0000   1.0000   1.0000   1.0000   1.0000   1.0000   1.0000   1.0000
     1.0000   1.0000   1.0000   1.0000   1.0000   1.0000   1.0000   1.0000
     1.0000   1.0000   1.0000   1.0000   1.0000   1.0000   1.0000   1.0000
     1.0000   1.0000   1.0000   1.0000   1.0000   1.0000   1.0000   1.0000
     1.0000   1.0000   1.0000   1.0000   1.0000   1.0000   1.0000   1.0000
     1.0000   1.0000   1.0000   1.0000   1.0000   1.0000   1.0000   1.0000
     1.0000   1.0000   1.0000   1.0000   1.0000   1.0000   1.0000   1.0000
     1.0000   1.0000   1.0000   1.0000   1.0000   1.0000   1.0000   1.0000
     1.0000   1.0000   1.0000   1.0000   1.0000   1.0000   1.0000   1.0000

          k =-0.0575 0.0113-0.0651 ( 58911 PWs)   bands (ev):

   -24.0247 -24.0218 -24.0059 -23.9980 -23.7646 -23.7643 -23.7606 -23.7512
   -19.2656 -19.2627 -19.2575 -19.2472 -18.9736 -18.9716 -18.9488 -18.9451
   -18.3035 -18.2802 -17.2588 -17.2169 -17.1108 -17.1069 -16.1085 -16.0906
   -12.1345 -12.1270 -12.0516 -11.9771 -11.8666 -11.8258 -11.8200 -11.8046
    -8.9668  -8.8481  -8.3117  -8.2776  -7.5880  -7.5601  -7.5023  -7.3591
    -7.1283  -6.9119  -6.7259  -6.5488  -6.5382  -6.4911  -6.4570  -6.3729
    -6.3066  -6.2372  -6.0373  -6.0266  -5.9734  -5.9351  -5.8700  -5.8115
    -5.7010  -5.6510  -5.5493  -5.4774  -5.2110  -5.0487  -5.0387  -4.9764
    -4.4529  -4.4382  -4.3746  -4.3307  -4.0345  -4.0124  -3.9662  -3.9277
    -3.7796  -3.6834  -3.6092  -3.5145  -3.2408  -3.2080  -3.0599  -3.0071
    -0.8794  -0.8369  -0.3525  -0.3203  -0.2581  -0.2282  -0.1716  -0.1335
    -0.0884  -0.0541   0.1144   0.1455   0.1639   0.1873   0.2536   0.3458
     0.4512   0.4711   0.5226   0.6284   0.7185   0.7504   0.7856   0.8221
     0.9143   0.9584   0.9729   1.0025   1.2488   1.2889   1.3058   1.3541

     occupation numbers 
     1.0000   1.0000   1.0000   1.0000   1.0000   1.0000   1.0000   1.0000
     1.0000   1.0000   1.0000   1.0000   1.0000   1.0000   1.0000   1.0000
     1.0000   1.0000   1.0000   1.0000   1.0000   1.0000   1.0000   1.0000
     1.0000   1.0000   1.0000   1.0000   1.0000   1.0000   1.0000   1.0000
     1.0000   1.0000   1.0000   1.0000   1.0000   1.0000   1.0000   1.0000
     1.0000   1.0000   1.0000   1.0000   1.0000   1.0000   1.0000   1.0000
     1.0000   1.0000   1.0000   1.0000   1.0000   1.0000   1.0000   1.0000
     1.0000   1.0000   1.0000   1.0000   1.0000   1.0000   1.0000   1.0000
     1.0000   1.0000   1.0000   1.0000   1.0000   1.0000   1.0000   1.0000
     1.0000   1.0000   1.0000   1.0000   1.0000   1.0000   1.0000   1.0000
     1.0000   1.0000   1.0000   1.0000   1.0000   1.0000   1.0000   1.0000
     1.0000   1.0000   1.0000   1.0000   1.0000   1.0000   1.0000   1.0000
     1.0000   1.0000   1.0000   1.0000   1.0000   1.0000   1.0000   1.0000
     1.0000   1.0000   1.0000   1.0000   1.0000   1.0000   1.0000   1.0000

          k =-0.0575 0.0113 0.0393 ( 58842 PWs)   bands (ev):

   -24.0262 -24.0208 -24.0074 -23.9960 -23.7676 -23.7665 -23.7564 -23.7502
   -19.2637 -19.2618 -19.2577 -19.2499 -18.9746 -18.9727 -18.9477 -18.9440
   -18.3079 -18.2746 -17.2683 -17.2070 -17.1135 -17.1099 -16.1083 -16.0846
   -12.1389 -12.1280 -12.0747 -11.9577 -11.8824 -11.8195 -11.8141 -11.7987
    -8.9624  -8.8247  -8.3057  -8.2794  -7.5872  -7.5611  -7.5231  -7.3481
    -7.1483  -6.9148  -6.7122  -6.5732  -6.5404  -6.5239  -6.4517  -6.3922
    -6.3148  -6.2511  -6.0271  -5.9690  -5.9614  -5.9340  -5.8723  -5.8276
    -5.6776  -5.6482  -5.5547  -5.4772  -5.2018  -5.0740  -5.0125  -4.9613
    -4.4582  -4.4183  -4.3701  -4.3466  -4.0637  -4.0575  -3.9100  -3.9067
    -3.7317  -3.7099  -3.6609  -3.5190  -3.2448  -3.2044  -3.0573  -3.0121
    -0.8368  -0.7727  -0.3461  -0.2969  -0.2719  -0.2480  -0.1777  -0.1495
    -0.1457  -0.1074   0.0499   0.1265   0.1624   0.2032   0.2209   0.2482
     0.5035   0.5726   0.5977   0.6130   0.7213   0.7371   0.8086   0.8344
     0.9082   0.9390   0.9925   1.0562   1.2652   1.2841   1.2868   1.3185

     occupation numbers 
     1.0000   1.0000   1.0000   1.0000   1.0000   1.0000   1.0000   1.0000
     1.0000   1.0000   1.0000   1.0000   1.0000   1.0000   1.0000   1.0000
     1.0000   1.0000   1.0000   1.0000   1.0000   1.0000   1.0000   1.0000
     1.0000   1.0000   1.0000   1.0000   1.0000   1.0000   1.0000   1.0000
     1.0000   1.0000   1.0000   1.0000   1.0000   1.0000   1.0000   1.0000
     1.0000   1.0000   1.0000   1.0000   1.0000   1.0000   1.0000   1.0000
     1.0000   1.0000   1.0000   1.0000   1.0000   1.0000   1.0000   1.0000
     1.0000   1.0000   1.0000   1.0000   1.0000   1.0000   1.0000   1.0000
     1.0000   1.0000   1.0000   1.0000   1.0000   1.0000   1.0000   1.0000
     1.0000   1.0000   1.0000   1.0000   1.0000   1.0000   1.0000   1.0000
     1.0000   1.0000   1.0000   1.0000   1.0000   1.0000   1.0000   1.0000
     1.0000   1.0000   1.0000   1.0000   1.0000   1.0000   1.0000   1.0000
     1.0000   1.0000   1.0000   1.0000   1.0000   1.0000   1.0000   1.0000
     1.0000   1.0000   1.0000   1.0000   1.0000   1.0000   1.0000   1.0000

          k =-0.0575 0.0113 0.0045 ( 58822 PWs)   bands (ev):

   -24.0294 -24.0189 -24.0059 -23.9974 -23.7679 -23.7646 -23.7543 -23.7526
   -19.2631 -19.2614 -19.2543 -19.2531 -18.9667 -18.9660 -18.9533 -18.9518
   -18.3006 -18.2767 -17.2608 -17.2156 -17.1223 -17.1217 -16.0973 -16.0817
   -12.1270 -12.1193 -12.0615 -11.9668 -11.8916 -11.8320 -11.8076 -11.8053
    -8.9335  -8.8538  -8.3077  -8.3041  -7.5823  -7.5725  -7.5545  -7.4550
    -7.0469  -6.9597  -6.6762  -6.6538  -6.5155  -6.5090  -6.3526  -6.3188
    -6.2387  -6.2360  -6.0287  -5.9983  -5.9065  -5.8729  -5.8549  -5.8380
    -5.7003  -5.6874  -5.5881  -5.5766  -5.1598  -5.1401  -4.9520  -4.9478
    -4.5124  -4.4872  -4.4295  -4.4001  -4.0914  -4.0479  -3.8251  -3.8196
    -3.7270  -3.6841  -3.6601  -3.5867  -3.2114  -3.1774  -3.0590  -3.0412
    -0.7507  -0.7026  -0.3498  -0.3407  -0.2636  -0.2609  -0.2266  -0.2251
    -0.1366  -0.1081   0.0077   0.0681   0.1266   0.1648   0.2590   0.2940
     0.5244   0.5821   0.6611   0.7070   0.7215   0.7601   0.8208   0.8468
     0.8784   0.8963   0.9762   1.0556   1.2529   1.2633   1.2858   1.3001

     occupation numbers 
     1.0000   1.0000   1.0000   1.0000   1.0000   1.0000   1.0000   1.0000
     1.0000   1.0000   1.0000   1.0000   1.0000   1.0000   1.0000   1.0000
     1.0000   1.0000   1.0000   1.0000   1.0000   1.0000   1.0000   1.0000
     1.0000   1.0000   1.0000   1.0000   1.0000   1.0000   1.0000   1.0000
     1.0000   1.0000   1.0000   1.0000   1.0000   1.0000   1.0000   1.0000
     1.0000   1.0000   1.0000   1.0000   1.0000   1.0000   1.0000   1.0000
     1.0000   1.0000   1.0000   1.0000   1.0000   1.0000   1.0000   1.0000
     1.0000   1.0000   1.0000   1.0000   1.0000   1.0000   1.0000   1.0000
     1.0000   1.0000   1.0000   1.0000   1.0000   1.0000   1.0000   1.0000
     1.0000   1.0000   1.0000   1.0000   1.0000   1.0000   1.0000   1.0000
     1.0000   1.0000   1.0000   1.0000   1.0000   1.0000   1.0000   1.0000
     1.0000   1.0000   1.0000   1.0000   1.0000   1.0000   1.0000   1.0000
     1.0000   1.0000   1.0000   1.0000   1.0000   1.0000   1.0000   1.0000
     1.0000   1.0000   1.0000   1.0000   1.0000   1.0000   1.0000   1.0000

          k =-0.0575 0.0340-0.0303 ( 58884 PWs)   bands (ev):

   -24.0257 -24.0217 -24.0025 -24.0020 -23.7634 -23.7624 -23.7578 -23.7557
   -19.2652 -19.2641 -19.2528 -19.2496 -18.9640 -18.9636 -18.9555 -18.9548
   -18.2894 -18.2893 -17.2391 -17.2382 -17.1193 -17.1185 -16.0929 -16.0923
   -12.1208 -12.1201 -12.0150 -12.0075 -11.8652 -11.8580 -11.8120 -11.8061
    -8.9144  -8.9010  -8.3094  -8.3004  -7.5757  -7.5658  -7.5203  -7.4940
    -7.0321  -7.0095  -6.6450  -6.5985  -6.5024  -6.4809  -6.3475  -6.3140
    -6.2446  -6.2167  -6.0577  -6.0294  -5.9421  -5.9168  -5.8288  -5.8093
    -5.7049  -5.6909  -5.5874  -5.5788  -5.1681  -5.1232  -4.9774  -4.9736
    -4.5021  -4.4893  -4.4290  -4.4104  -4.0547  -4.0332  -3.8493  -3.8313
    -3.7381  -3.6922  -3.6016  -3.5969  -3.1934  -3.1913  -3.0588  -3.0470
    -0.7974  -0.7914  -0.3367  -0.3302  -0.2902  -0.2734  -0.1553  -0.1353
    -0.1160  -0.1002   0.0657   0.0801   0.1491   0.1624   0.2851   0.2969
     0.5539   0.5601   0.5933   0.6195   0.7295   0.7374   0.8143   0.8362
     0.8950   0.9261   0.9635   0.9848   1.2456   1.2602   1.3146   1.3295

     occupation numbers 
     1.0000   1.0000   1.0000   1.0000   1.0000   1.0000   1.0000   1.0000
     1.0000   1.0000   1.0000   1.0000   1.0000   1.0000   1.0000   1.0000
     1.0000   1.0000   1.0000   1.0000   1.0000   1.0000   1.0000   1.0000
     1.0000   1.0000   1.0000   1.0000   1.0000   1.0000   1.0000   1.0000
     1.0000   1.0000   1.0000   1.0000   1.0000   1.0000   1.0000   1.0000
     1.0000   1.0000   1.0000   1.0000   1.0000   1.0000   1.0000   1.0000
     1.0000   1.0000   1.0000   1.0000   1.0000   1.0000   1.0000   1.0000
     1.0000   1.0000   1.0000   1.0000   1.0000   1.0000   1.0000   1.0000
     1.0000   1.0000   1.0000   1.0000   1.0000   1.0000   1.0000   1.0000
     1.0000   1.0000   1.0000   1.0000   1.0000   1.0000   1.0000   1.0000
     1.0000   1.0000   1.0000   1.0000   1.0000   1.0000   1.0000   1.0000
     1.0000   1.0000   1.0000   1.0000   1.0000   1.0000   1.0000   1.0000
     1.0000   1.0000   1.0000   1.0000   1.0000   1.0000   1.0000   1.0000
     1.0000   1.0000   1.0000   1.0000   1.0000   1.0000   1.0000   1.0000

          k =-0.0575 0.0340-0.0651 ( 58884 PWs)   bands (ev):

   -24.0235 -24.0223 -24.0041 -24.0008 -23.7644 -23.7642 -23.7579 -23.7539
   -19.2659 -19.2651 -19.2528 -19.2491 -18.9730 -18.9722 -18.9477 -18.9462
   -18.2969 -18.2872 -17.2465 -17.2291 -17.1096 -17.1081 -16.1031 -16.0957
   -12.1345 -12.1317 -12.0286 -11.9987 -11.8529 -11.8365 -11.8157 -11.8093
    -8.9332  -8.8841  -8.3003  -8.2861  -7.5670  -7.5527  -7.4844  -7.4200
    -7.0875  -7.0108  -6.6301  -6.5714  -6.5274  -6.5127  -6.4171  -6.3659
    -6.3033  -6.2538  -6.0185  -6.0094  -5.9764  -5.9634  -5.8776  -5.8409
    -5.6923  -5.6723  -5.5217  -5.4921  -5.1725  -5.1045  -5.0178  -4.9914
    -4.4402  -4.4206  -4.3711  -4.3374  -4.0242  -4.0159  -3.9562  -3.9408
    -3.7602  -3.7251  -3.5743  -3.5380  -3.2322  -3.2187  -3.0447  -3.0228
    -0.8637  -0.8463  -0.3410  -0.3269  -0.2848  -0.2765  -0.1453  -0.1335
    -0.0579  -0.0462   0.1310   0.1416   0.1771   0.1895   0.2766   0.3194
     0.4388   0.4481   0.5721   0.6275   0.6949   0.7297   0.8003   0.8184
     0.9097   0.9356   0.9926   1.0081   1.2596   1.2760   1.3197   1.3394

     occupation numbers 
     1.0000   1.0000   1.0000   1.0000   1.0000   1.0000   1.0000   1.0000
     1.0000   1.0000   1.0000   1.0000   1.0000   1.0000   1.0000   1.0000
     1.0000   1.0000   1.0000   1.0000   1.0000   1.0000   1.0000   1.0000
     1.0000   1.0000   1.0000   1.0000   1.0000   1.0000   1.0000   1.0000
     1.0000   1.0000   1.0000   1.0000   1.0000   1.0000   1.0000   1.0000
     1.0000   1.0000   1.0000   1.0000   1.0000   1.0000   1.0000   1.0000
     1.0000   1.0000   1.0000   1.0000   1.0000   1.0000   1.0000   1.0000
     1.0000   1.0000   1.0000   1.0000   1.0000   1.0000   1.0000   1.0000
     1.0000   1.0000   1.0000   1.0000   1.0000   1.0000   1.0000   1.0000
     1.0000   1.0000   1.0000   1.0000   1.0000   1.0000   1.0000   1.0000
     1.0000   1.0000   1.0000   1.0000   1.0000   1.0000   1.0000   1.0000
     1.0000   1.0000   1.0000   1.0000   1.0000   1.0000   1.0000   1.0000
     1.0000   1.0000   1.0000   1.0000   1.0000   1.0000   1.0000   1.0000
     1.0000   1.0000   1.0000   1.0000   1.0000   1.0000   1.0000   1.0000

          k =-0.0575 0.0340 0.0393 ( 58883 PWs)   bands (ev):

   -24.0247 -24.0225 -24.0040 -23.9993 -23.7670 -23.7665 -23.7548 -23.7521
   -19.2643 -19.2640 -19.2537 -19.2510 -18.9740 -18.9732 -18.9467 -18.9451
   -18.2985 -18.2847 -17.2500 -17.2246 -17.1126 -17.1112 -16.1011 -16.0913
   -12.1389 -12.1353 -12.0424 -11.9982 -11.8546 -11.8318 -11.8095 -11.8037
    -8.9239  -8.8670  -8.2977  -8.2866  -7.5717  -7.5541  -7.4926  -7.4140
    -7.0956  -7.0106  -6.6292  -6.5865  -6.5387  -6.5207  -6.4684  -6.4151
    -6.2673  -6.2255  -6.0305  -5.9952  -5.9543  -5.9405  -5.8775  -5.8490
    -5.6764  -5.6637  -5.5180  -5.4857  -5.1868  -5.1337  -4.9867  -4.9652
    -4.4577  -4.4403  -4.3442  -4.3269  -4.0585  -4.0562  -3.9111  -3.9080
    -3.7386  -3.7310  -3.6095  -3.5546  -3.2314  -3.2140  -3.0475  -3.0282
    -0.8156  -0.7888  -0.3371  -0.3193  -0.2939  -0.2774  -0.1569  -0.1501
    -0.1149  -0.0923   0.0758   0.1051   0.1703   0.1867   0.2246   0.2490
     0.5258   0.5506   0.6267   0.6277   0.7173   0.7218   0.7935   0.8028
     0.9192   0.9373   1.0177   1.0421   1.2694   1.2785   1.2940   1.3080

     occupation numbers 
     1.0000   1.0000   1.0000   1.0000   1.0000   1.0000   1.0000   1.0000
     1.0000   1.0000   1.0000   1.0000   1.0000   1.0000   1.0000   1.0000
     1.0000   1.0000   1.0000   1.0000   1.0000   1.0000   1.0000   1.0000
     1.0000   1.0000   1.0000   1.0000   1.0000   1.0000   1.0000   1.0000
     1.0000   1.0000   1.0000   1.0000   1.0000   1.0000   1.0000   1.0000
     1.0000   1.0000   1.0000   1.0000   1.0000   1.0000   1.0000   1.0000
     1.0000   1.0000   1.0000   1.0000   1.0000   1.0000   1.0000   1.0000
     1.0000   1.0000   1.0000   1.0000   1.0000   1.0000   1.0000   1.0000
     1.0000   1.0000   1.0000   1.0000   1.0000   1.0000   1.0000   1.0000
     1.0000   1.0000   1.0000   1.0000   1.0000   1.0000   1.0000   1.0000
     1.0000   1.0000   1.0000   1.0000   1.0000   1.0000   1.0000   1.0000
     1.0000   1.0000   1.0000   1.0000   1.0000   1.0000   1.0000   1.0000
     1.0000   1.0000   1.0000   1.0000   1.0000   1.0000   1.0000   1.0000
     1.0000   1.0000   1.0000   1.0000   1.0000   1.0000   1.0000   1.0000

          k =-0.0575 0.0340 0.0045 ( 58850 PWs)   bands (ev):

   -24.0266 -24.0222 -24.0032 -23.9998 -23.7665 -23.7650 -23.7542 -23.7535
   -19.2635 -19.2628 -19.2530 -19.2525 -18.9665 -18.9662 -18.9528 -18.9522
   -18.2938 -18.2839 -17.2475 -17.2288 -17.1221 -17.1218 -16.0926 -16.0862
   -12.1260 -12.1233 -12.0368 -12.0002 -11.8677 -11.8452 -11.8071 -11.8050
    -8.9106  -8.8777  -8.3055  -8.3028  -7.5790  -7.5750  -7.5282  -7.4869
    -7.0355  -7.0004  -6.6361  -6.6247  -6.5054  -6.4977  -6.4061  -6.3941
    -6.1956  -6.1878  -6.0393  -6.0202  -5.8999  -5.8855  -5.8359  -5.8268
    -5.7013  -5.6893  -5.5847  -5.5798  -5.1634  -5.1526  -4.9495  -4.9488
    -4.5116  -4.4951  -4.4280  -4.4059  -4.0665  -4.0486  -3.8267  -3.8249
    -3.7069  -3.6820  -3.6516  -3.6132  -3.1997  -3.1847  -3.0599  -3.0531
    -0.7351  -0.7152  -0.3341  -0.3285  -0.2828  -0.2596  -0.2488  -0.2304
    -0.1342  -0.1141   0.0302   0.0564   0.1442   0.1630   0.2684   0.2876
     0.5542   0.5854   0.6435   0.6697   0.7284   0.7548   0.8260   0.8319
     0.8999   0.9109   0.9906   1.0275   1.2560   1.2595   1.2894   1.2956

     occupation numbers 
     1.0000   1.0000   1.0000   1.0000   1.0000   1.0000   1.0000   1.0000
     1.0000   1.0000   1.0000   1.0000   1.0000   1.0000   1.0000   1.0000
     1.0000   1.0000   1.0000   1.0000   1.0000   1.0000   1.0000   1.0000
     1.0000   1.0000   1.0000   1.0000   1.0000   1.0000   1.0000   1.0000
     1.0000   1.0000   1.0000   1.0000   1.0000   1.0000   1.0000   1.0000
     1.0000   1.0000   1.0000   1.0000   1.0000   1.0000   1.0000   1.0000
     1.0000   1.0000   1.0000   1.0000   1.0000   1.0000   1.0000   1.0000
     1.0000   1.0000   1.0000   1.0000   1.0000   1.0000   1.0000   1.0000
     1.0000   1.0000   1.0000   1.0000   1.0000   1.0000   1.0000   1.0000
     1.0000   1.0000   1.0000   1.0000   1.0000   1.0000   1.0000   1.0000
     1.0000   1.0000   1.0000   1.0000   1.0000   1.0000   1.0000   1.0000
     1.0000   1.0000   1.0000   1.0000   1.0000   1.0000   1.0000   1.0000
     1.0000   1.0000   1.0000   1.0000   1.0000   1.0000   1.0000   1.0000
     1.0000   1.0000   1.0000   1.0000   1.0000   1.0000   1.0000   1.0000

     highest occupied level (ev):     1.3541

!    total energy              =   -1282.04648856 Ry
     Harris-Foulkes estimate   =   -1282.04648935 Ry
     estimated scf accuracy    <       0.00000092 Ry

     total all-electron energy =     -4786.490236 Ry

     The total energy is the sum of the following terms:

     one-electron contribution =    -651.46145156 Ry
     hartree contribution      =     423.55327647 Ry
     xc contribution           =    -260.28792191 Ry
     ewald contribution        =    -463.45998747 Ry
     one-center paw contrib.   =    -330.39040408 Ry

     convergence has been achieved in  15 iterations

     Writing output data file scf.pbe-ec-100-kp444.HMX-792828-nofor.nostress.save

     init_run     :    153.39s CPU    183.12s WALL (       1 calls)
     electrons    :   5193.80s CPU   5896.75s WALL (       1 calls)

     Called by init_run:
     wfcinit      :    110.73s CPU    129.24s WALL (       1 calls)
     potinit      :     13.96s CPU     14.82s WALL (       1 calls)

     Called by electrons:
     c_bands      :   4423.70s CPU   4980.20s WALL (      15 calls)
     sum_band     :    723.40s CPU    867.37s WALL (      15 calls)
     v_of_rho     :     10.67s CPU     11.90s WALL (      16 calls)
     v_h          :      0.76s CPU      0.86s WALL (      16 calls)
     v_xc         :      9.90s CPU     11.03s WALL (      16 calls)
     newd         :     17.96s CPU     19.85s WALL (      16 calls)
     PAW_pot      :      4.86s CPU      4.98s WALL (      16 calls)
     mix_rho      :      8.88s CPU      9.26s WALL (      15 calls)

     Called by c_bands:
     init_us_2    :     28.19s CPU     28.68s WALL (     992 calls)
     cegterg      :   4214.64s CPU   4723.40s WALL (     480 calls)

     Called by sum_band:
     sum_band:bec :      0.71s CPU      0.66s WALL (     480 calls)
     addusdens    :     95.13s CPU     78.74s WALL (      15 calls)

     Called by *egterg:
     h_psi        :   2138.07s CPU   2638.52s WALL (    2276 calls)
     s_psi        :    351.78s CPU    261.62s WALL (    2276 calls)
     g_psi        :      4.91s CPU      6.49s WALL (    1764 calls)
     cdiaghg      :    751.29s CPU    674.54s WALL (    2244 calls)
     cegterg:over :    420.84s CPU    580.73s WALL (    1764 calls)
     cegterg:upda :    259.02s CPU    186.02s WALL (    1764 calls)
     cegterg:last :    117.64s CPU     87.21s WALL (     480 calls)

     Called by h_psi:
     h_psi:vloc   :   1314.94s CPU   1631.45s WALL (    2276 calls)
     h_psi:vnl    :    803.28s CPU    986.83s WALL (    2276 calls)
     add_vuspsi   :    359.37s CPU    343.23s WALL (    2276 calls)

     General routines
     calbec       :    589.76s CPU    875.45s WALL (    2756 calls)
     fft          :     10.32s CPU     15.82s WALL (     252 calls)
     ffts         :      0.74s CPU      0.93s WALL (      31 calls)
     fftw         :   1101.62s CPU   1469.84s WALL (  370194 calls)
     interpolate  :      5.84s CPU      6.36s WALL (      31 calls)
     davcio       :      0.38s CPU     77.03s WALL (      32 calls)

     Parallel routines
     fft_scatter  :    491.82s CPU    829.71s WALL (  370477 calls)

     PAW routines
     PAW_pot      :      4.86s CPU      4.98s WALL (      16 calls)
     PAW_symme    :      0.05s CPU      0.05s WALL (      31 calls)

     PWSCF        :     1h29m CPU        1h42m WALL


   This run was terminated on:  11:20:58  22May2016            

=------------------------------------------------------------------------------=
   JOB DONE.
=------------------------------------------------------------------------------=
