
     Program PWSCF v.5.3.0 (svn rev. 11974) starts on 22May2016 at 15:59:40 

     This program is part of the open-source Quantum ESPRESSO suite
     for quantum simulation of materials; please cite
         "P. Giannozzi et al., J. Phys.:Condens. Matter 21 395502 (2009);
          URL http://www.quantum-espresso.org", 
     in publications or presentations arising from this work. More details at
     http://www.quantum-espresso.org/quote

     Parallel version (MPI), running on    32 processors
     R & G space division:  proc/nbgrp/npool/nimage =      32
     Waiting for input...
     Reading input from standard input
Warning: card    &IONS ignored
Warning: card TRUST_RADIUS_MAX=0.2 ignored
Warning: card / ignored
Warning: card     &CELL ignored
Warning: card CELL_DYNAMICS='BFGS' ignored
Warning: card / ignored

     Current dimensions of program PWSCF are:
     Max number of different atomic species (ntypx) = 10
     Max number of k-points (npk) =  40000
     Max angular momentum in pseudopotentials (lmaxx) =  3
               file N.pbe-n-kjpaw_psl.1.0.0.UPF: wavefunction(s)  2S renormalized
               file C.pbe-n-kjpaw_psl.1.0.0.UPF: wavefunction(s)  2S 2P renormalized
               file H.pbe-kjpaw_psl.1.0.0.UPF: wavefunction(s)  1S renormalized
               file O.pbe-n-kjpaw_psl.1.0.0.UPF: wavefunction(s)  2S 2P renormalized

     Subspace diagonalization in iterative solution of the eigenvalue problem:
     a serial algorithm will be used


     Parallelization info
     --------------------
     sticks:   dense  smooth     PW     G-vecs:    dense   smooth      PW
     Min        1404     562    146               189850    48011    6388
     Max        1405     563    147               189854    48064    6392
     Sum       44955   18005   4683              6075291  1537253  204471


     Title: 
     HMX-scf-pbe-n-kjpaw-kp242-ec-220-nofor-nostress-conv-em4                   


     bravais-lattice index     =            0
     lattice parameter (alat)  =       1.8897  a.u.
     unit-cell volume          =    3486.6982 (a.u.)^3
     number of atoms/cell      =           56
     number of atomic types    =            4
     number of electrons       =       224.00
     number of Kohn-Sham states=          112
     kinetic-energy cutoff     =     220.0000  Ry
     charge density cutoff     =    2200.0000  Ry
     convergence threshold     =      1.0E-06
     mixing beta               =       0.7000
     number of iterations used =            8  plain     mixing
     Exchange-correlation      =  SLA  PW   PBX  PBC ( 1  4  3  4 0 0)

     celldm(1)=   1.889726  celldm(2)=   0.000000  celldm(3)=   0.000000
     celldm(4)=   0.000000  celldm(5)=   0.000000  celldm(6)=   0.000000

     crystal axes: (cart. coord. in units of alat)
               a(1) = (   6.524500   0.000000   0.000000 )  
               a(2) = (   0.000000  11.024000   0.000000 )  
               a(3) = (  -1.611215   0.000000   7.183422 )  

     reciprocal axes: (cart. coord. in units 2 pi/alat)
               b(1) = (  0.153268 -0.000000  0.034378 )  
               b(2) = (  0.000000  0.090711 -0.000000 )  
               b(3) = (  0.000000  0.000000  0.139209 )  


     PseudoPot. # 1 for  N read from file:
     /users/majewski/.data/PSEUDOPOTENTIALS/N.pbe-n-kjpaw_psl.1.0.0.UPF
     MD5 check sum: c21df8f53e59d08c3548513d559cdda6
     Pseudo is Projector augmented-wave + core cor, Zval =  5.0
     Generated using "atomic" code by A. Dal Corso  v.5.3.0 svn rev. 11974
     Shape of augmentation charge: PSQ
     Using radial grid of 1085 points,  4 beta functions with: 
                l(1) =   0
                l(2) =   0
                l(3) =   1
                l(4) =   1
     Q(r) pseudized with 0 coefficients 


     PseudoPot. # 2 for  C read from file:
     /users/majewski/.data/PSEUDOPOTENTIALS/C.pbe-n-kjpaw_psl.1.0.0.UPF
     MD5 check sum: 2ba8448e293caca687844dde9a1b88a8
     Pseudo is Projector augmented-wave + core cor, Zval =  4.0
     Generated using "atomic" code by A. Dal Corso  v.5.3.0 svn rev. 11974
     Shape of augmentation charge: PSQ
     Using radial grid of 1073 points,  4 beta functions with: 
                l(1) =   0
                l(2) =   0
                l(3) =   1
                l(4) =   1
     Q(r) pseudized with 0 coefficients 


     PseudoPot. # 3 for  H read from file:
     /users/majewski/.data/PSEUDOPOTENTIALS/H.pbe-kjpaw_psl.1.0.0.UPF
     MD5 check sum: bc0feb48a24907a0b97fa6ee2d589a29
     Pseudo is Projector augmented-wave, Zval =  1.0
     Generated using "atomic" code by A. Dal Corso  v.5.3.0 svn rev. 11974
     Shape of augmentation charge: PSQ
     Using radial grid of  929 points,  2 beta functions with: 
                l(1) =   0
                l(2) =   0
     Q(r) pseudized with 0 coefficients 


     PseudoPot. # 4 for  O read from file:
     /users/majewski/.data/PSEUDOPOTENTIALS/O.pbe-n-kjpaw_psl.1.0.0.UPF
     MD5 check sum: 9c0ade6c043cf4a781bde3908a3a8206
     Pseudo is Projector augmented-wave + core cor, Zval =  6.0
     Generated using "atomic" code by A. Dal Corso  v.5.3.0 svn rev. 11974
     Shape of augmentation charge: PSQ
     Using radial grid of 1095 points,  4 beta functions with: 
                l(1) =   0
                l(2) =   0
                l(3) =   1
                l(4) =   1
     Q(r) pseudized with 0 coefficients 


     atomic species   valence    mass     pseudopotential
        N              5.00    14.00670      N( 1.00)
        C              4.00    12.01100      C( 1.00)
        H              1.00     1.00790      H( 1.00)
        O              6.00    15.99940      O( 1.00)

      4 Sym. Ops., with inversion, found ( 2 have fractional translation)


                                    s                        frac. trans.

      isym =  1     identity                                     

 cryst.   s( 1) = (     1          0          0      )
                  (     0          1          0      )
                  (     0          0          1      )

 cart.    s( 1) = (  1.0000000  0.0000000  0.0000000 )
                  (  0.0000000  1.0000000  0.0000000 )
                  (  0.0000000  0.0000000  1.0000000 )


      isym =  2     180 deg rotation - cart. axis [0,1,0]        

 cryst.   s( 2) = (    -1          0          0      )    f =(  0.5000000 )
                  (     0          1          0      )       ( -0.5000000 )
                  (     0          0         -1      )       (  0.5000000 )

 cart.    s( 2) = ( -1.0000000  0.0000000  0.0000000 )    f =(  2.4566426 )
                  (  0.0000000  1.0000000  0.0000000 )       ( -5.5120000 )
                  (  0.0000000  0.0000000 -1.0000000 )       (  3.5917112 )


      isym =  3     inversion                                    

 cryst.   s( 3) = (    -1          0          0      )
                  (     0         -1          0      )
                  (     0          0         -1      )

 cart.    s( 3) = ( -1.0000000  0.0000000  0.0000000 )
                  (  0.0000000 -1.0000000  0.0000000 )
                  (  0.0000000  0.0000000 -1.0000000 )


      isym =  4     inv. 180 deg rotation - cart. axis [0,1,0]   

 cryst.   s( 4) = (     1          0          0      )    f =( -0.5000000 )
                  (     0         -1          0      )       ( -0.5000000 )
                  (     0          0          1      )       ( -0.5000000 )

 cart.    s( 4) = (  1.0000000  0.0000000  0.0000000 )    f =( -2.4566426 )
                  (  0.0000000 -1.0000000  0.0000000 )       ( -5.5120000 )
                  (  0.0000000  0.0000000  1.0000000 )       ( -3.5917112 )


   Cartesian axes

     site n.     atom                  positions (alat units)
         1           N   tau(   1) = (  -0.8659061   6.8626605   3.3165861  )
         2           O   tau(   2) = (   1.0642077   7.9307758   3.1413106  )
         3           N   tau(   3) = (   0.0570773   7.7471160   3.8208624  )
         4           N   tau(   4) = (  -2.0666224   5.7847338   5.0657495  )
         5           O   tau(   5) = (  -3.2536876   4.7233430   6.6202421  )
         6           N   tau(   6) = (  -3.2443309   5.5226933   5.7000457  )
         7           O   tau(   7) = (  -0.1845731   8.2332744   4.9098692  )
         8           C   tau(   8) = (  -2.1347167   6.7751299   3.9788977  )
         9           H   tau(   9) = (  -2.8326807   6.5096720   3.3295163  )
        10           H   tau(  10) = (  -2.3796630   7.6605776   4.3495623  )
        11           O   tau(  11) = (  -4.2115393   6.1725581   5.3056758  )
        12           C   tau(  12) = (  -0.5988683   6.2410171   2.0300352  )
        13           H   tau(  13) = (  -1.4188675   5.8228768   1.7240214  )
        14           H   tau(  14) = (  -0.3175686   6.8855904   1.3576668  )
        15           H   tau(  15) = (   2.1390739  -1.3735904   4.9493781  )
        16           H   tau(  16) = (   1.0377751  -0.3108768   5.3157326  )
        17           C   tau(  17) = (   1.8577742  -0.7290171   5.6217464  )
        18           O   tau(  18) = (  -1.7548967  -0.6605581   8.8973871  )
        19           H   tau(  19) = (   0.0769795  -2.1485776   7.9412735  )
        20           H   tau(  20) = (  -0.3760382  -0.9976720   6.9212275  )
        21           C   tau(  21) = (   0.3219258  -1.2631299   7.5706089  )
        22           O   tau(  22) = (   2.2720694  -2.7212744   8.5015805  )
        23           N   tau(  23) = (  -0.7876883  -0.0106933   9.2917569  )
        24           O   tau(  24) = (  -0.7970450   0.7886570  10.2119534  )
        25           N   tau(  25) = (   0.3900201  -0.2727338   8.6574607  )
        26           N   tau(  26) = (   2.5137198  -2.2351160   7.4125736  )
        27           O   tau(  27) = (   3.5208502  -2.4187758   6.7330219  )
        28           N   tau(  28) = (   1.5907365  -1.3506605   6.9082974  )
        29           H   tau(  29) = (  -1.2936463   4.1384096   5.8257556  )
        30           H   tau(  30) = (  -0.1923474   5.2011232   5.4594011  )
        31           C   tau(  31) = (  -1.0123466   4.7829829   5.1533873  )
        32           O   tau(  32) = (   2.6003244   4.8514419   1.8777466  )
        33           H   tau(  33) = (   0.7684481   3.3634224   2.8338602  )
        34           H   tau(  34) = (   1.2214659   4.5143280   3.8539061  )
        35           C   tau(  35) = (   0.5235018   4.2488701   3.2045248  )
        36           O   tau(  36) = (  -1.4266418   2.7907256   2.2735532  )
        37           N   tau(  37) = (   1.6331160   5.5013067   1.4833767  )
        38           O   tau(  38) = (   1.6424727   6.3006570   0.5631803  )
        39           N   tau(  39) = (   0.4554076   5.2392662   2.1176729  )
        40           N   tau(  40) = (  -1.6682921   3.2768840   3.3625601  )
        41           O   tau(  41) = (  -2.6754226   3.0932242   4.0421118  )
        42           N   tau(  42) = (  -0.7453088   4.1613395   3.8668363  )
        43           H   tau(  43) = (   1.1629963   1.3735904   9.4174668  )
        44           H   tau(  44) = (   2.2642951   0.3108768   9.0511123  )
        45           C   tau(  45) = (   1.4442960   0.7290171   8.7450985  )
        46           O   tau(  46) = (   5.0569669   0.6605581   5.4694579  )
        47           H   tau(  47) = (   3.2250907   2.1485776   6.4255714  )
        48           H   tau(  48) = (   3.6781084   0.9976720   7.4456174  )
        49           C   tau(  49) = (   2.9801444   1.2631299   6.7962360  )
        50           O   tau(  50) = (   1.0300008   2.7212744   5.8652644  )
        51           N   tau(  51) = (   4.0897585   0.0106933   5.0750880  )
        52           O   tau(  52) = (   4.0991153  -0.7886570   4.1548915  )
        53           N   tau(  53) = (   2.9120501   0.2727338   5.7093842  )
        54           N   tau(  54) = (   0.7883504   2.2351160   6.9542713  )
        55           O   tau(  55) = (  -0.2187800   2.4187758   7.6338230  )
        56           N   tau(  56) = (   1.7113337   1.3506605   7.4585475  )

   Crystallographic axes

     site n.     atom                  positions (cryst. coord.)
         1           N   tau(   1) = ( -0.0187000  0.6225200  0.4617000  )
         2           O   tau(   2) = (  0.2711000  0.7194100  0.4373000  )
         3           N   tau(   3) = (  0.1401000  0.7027500  0.5319000  )
         4           N   tau(   4) = ( -0.1426000  0.5247400  0.7052000  )
         5           O   tau(   5) = ( -0.2711000  0.4284600  0.9216000  )
         6           N   tau(   6) = ( -0.3013000  0.5009700  0.7935000  )
         7           O   tau(   7) = (  0.1405000  0.7468500  0.6835000  )
         8           C   tau(   8) = ( -0.1904000  0.6145800  0.5539000  )
         9           H   tau(   9) = ( -0.3197000  0.5905000  0.4635000  )
        10           H   tau(  10) = ( -0.2152000  0.6949000  0.6055000  )
        11           O   tau(  11) = ( -0.4631000  0.5599200  0.7386000  )
        12           C   tau(  12) = ( -0.0220000  0.5661300  0.2826000  )
        13           H   tau(  13) = ( -0.1582000  0.5282000  0.2400000  )
        14           H   tau(  14) = ( -0.0020000  0.6246000  0.1890000  )
        15           H   tau(  15) = (  0.4980000 -0.1246000  0.6890000  )
        16           H   tau(  16) = (  0.3418000 -0.0282000  0.7400000  )
        17           C   tau(  17) = (  0.4780000 -0.0661300  0.7826000  )
        18           O   tau(  18) = (  0.0369000 -0.0599200  1.2386000  )
        19           H   tau(  19) = (  0.2848000 -0.1949000  1.1055000  )
        20           H   tau(  20) = (  0.1803000 -0.0905000  0.9635000  )
        21           C   tau(  21) = (  0.3096000 -0.1145800  1.0539000  )
        22           O   tau(  22) = (  0.6405000 -0.2468500  1.1835000  )
        23           N   tau(  23) = (  0.1987000 -0.0009700  1.2935000  )
        24           O   tau(  24) = (  0.2289000  0.0715400  1.4216000  )
        25           N   tau(  25) = (  0.3574000 -0.0247400  1.2052000  )
        26           N   tau(  26) = (  0.6401000 -0.2027500  1.0319000  )
        27           O   tau(  27) = (  0.7711000 -0.2194100  0.9373000  )
        28           N   tau(  28) = (  0.4813000 -0.1225200  0.9617000  )
        29           H   tau(  29) = (  0.0020000  0.3754000  0.8110000  )
        30           H   tau(  30) = (  0.1582000  0.4718000  0.7600000  )
        31           C   tau(  31) = (  0.0220000  0.4338700  0.7174000  )
        32           O   tau(  32) = (  0.4631000  0.4400800  0.2614000  )
        33           H   tau(  33) = (  0.2152000  0.3051000  0.3945000  )
        34           H   tau(  34) = (  0.3197000  0.4095000  0.5365000  )
        35           C   tau(  35) = (  0.1904000  0.3854200  0.4461000  )
        36           O   tau(  36) = ( -0.1405000  0.2531500  0.3165000  )
        37           N   tau(  37) = (  0.3013000  0.4990300  0.2065000  )
        38           O   tau(  38) = (  0.2711000  0.5715400  0.0784000  )
        39           N   tau(  39) = (  0.1426000  0.4752600  0.2948000  )
        40           N   tau(  40) = ( -0.1401000  0.2972500  0.4681000  )
        41           O   tau(  41) = ( -0.2711000  0.2805900  0.5627000  )
        42           N   tau(  42) = (  0.0187000  0.3774800  0.5383000  )
        43           H   tau(  43) = (  0.5020000  0.1246000  1.3110000  )
        44           H   tau(  44) = (  0.6582000  0.0282000  1.2600000  )
        45           C   tau(  45) = (  0.5220000  0.0661300  1.2174000  )
        46           O   tau(  46) = (  0.9631000  0.0599200  0.7614000  )
        47           H   tau(  47) = (  0.7152000  0.1949000  0.8945000  )
        48           H   tau(  48) = (  0.8197000  0.0905000  1.0365000  )
        49           C   tau(  49) = (  0.6904000  0.1145800  0.9461000  )
        50           O   tau(  50) = (  0.3595000  0.2468500  0.8165000  )
        51           N   tau(  51) = (  0.8013000  0.0009700  0.7065000  )
        52           O   tau(  52) = (  0.7711000 -0.0715400  0.5784000  )
        53           N   tau(  53) = (  0.6426000  0.0247400  0.7948000  )
        54           N   tau(  54) = (  0.3599000  0.2027500  0.9681000  )
        55           O   tau(  55) = (  0.2289000  0.2194100  1.0627000  )
        56           N   tau(  56) = (  0.5187000  0.1225200  1.0383000  )

     number of k points=    16
                       cart. coord. in units 2pi/alat
        k(    1) = (   0.0191586   0.0113389   0.0216984), wk =   0.1250000
        k(    2) = (   0.0191586   0.0113389   0.0565007), wk =   0.1250000
        k(    3) = (   0.0191586   0.0113389  -0.0479063), wk =   0.1250000
        k(    4) = (   0.0191586   0.0113389  -0.0131040), wk =   0.1250000
        k(    5) = (   0.0191586   0.0340167   0.0216984), wk =   0.1250000
        k(    6) = (   0.0191586   0.0340167   0.0565007), wk =   0.1250000
        k(    7) = (   0.0191586   0.0340167  -0.0479063), wk =   0.1250000
        k(    8) = (   0.0191586   0.0340167  -0.0131040), wk =   0.1250000
        k(    9) = (   0.0574757   0.0113389   0.0302928), wk =   0.1250000
        k(   10) = (   0.0574757   0.0113389   0.0650951), wk =   0.1250000
        k(   11) = (   0.0574757   0.0113389  -0.0393120), wk =   0.1250000
        k(   12) = (   0.0574757   0.0113389  -0.0045096), wk =   0.1250000
        k(   13) = (   0.0574757   0.0340167   0.0302928), wk =   0.1250000
        k(   14) = (   0.0574757   0.0340167   0.0650951), wk =   0.1250000
        k(   15) = (   0.0574757   0.0340167  -0.0393120), wk =   0.1250000
        k(   16) = (   0.0574757   0.0340167  -0.0045096), wk =   0.1250000

                       cryst. coord.
        k(    1) = (   0.1250000   0.1250000   0.1250000), wk =   0.1250000
        k(    2) = (   0.1250000   0.1250000   0.3750000), wk =   0.1250000
        k(    3) = (   0.1250000   0.1250000  -0.3750000), wk =   0.1250000
        k(    4) = (   0.1250000   0.1250000  -0.1250000), wk =   0.1250000
        k(    5) = (   0.1250000   0.3750000   0.1250000), wk =   0.1250000
        k(    6) = (   0.1250000   0.3750000   0.3750000), wk =   0.1250000
        k(    7) = (   0.1250000   0.3750000  -0.3750000), wk =   0.1250000
        k(    8) = (   0.1250000   0.3750000  -0.1250000), wk =   0.1250000
        k(    9) = (   0.3750000   0.1250000   0.1250000), wk =   0.1250000
        k(   10) = (   0.3750000   0.1250000   0.3750000), wk =   0.1250000
        k(   11) = (   0.3750000   0.1250000  -0.3750000), wk =   0.1250000
        k(   12) = (   0.3750000   0.1250000  -0.1250000), wk =   0.1250000
        k(   13) = (   0.3750000   0.3750000   0.1250000), wk =   0.1250000
        k(   14) = (   0.3750000   0.3750000   0.3750000), wk =   0.1250000
        k(   15) = (   0.3750000   0.3750000  -0.3750000), wk =   0.1250000
        k(   16) = (   0.3750000   0.3750000  -0.1250000), wk =   0.1250000

     Dense  grid:  6075291 G-vectors     FFT dimensions: ( 192, 320, 216)

     Smooth grid:  1537253 G-vectors     FFT dimensions: ( 120, 200, 135)

     Largest allocated arrays     est. size (Mb)     dimensions
        Kohn-Sham Wavefunctions        10.26 Mb     (    6002,  112)
        NL pseudopotentials            32.24 Mb     (    6002,  352)
        Each V/rho on FFT grid          6.56 Mb     (  430080)
        Each G-vector array             1.45 Mb     (  189854)
        G-vector shells                 1.42 Mb     (  186336)
     Largest temporary arrays     est. size (Mb)     dimensions
        Auxiliary wavefunctions        41.03 Mb     (    6002,  448)
        Each subspace H/S matrix        3.06 Mb     (     448,  448)
        Each <psi_i|beta_j> matrix      0.60 Mb     (     352,  112)
        Arrays for rho mixing          52.50 Mb     (  430080,    8)

     Initial potential from superposition of free atoms

     starting charge  223.99937, renormalised to  224.00000
     Starting wfc are  176 randomized atomic wfcs
     Checking if some PAW data can be deallocated... 
       node    0, deallocated PAW data for type:  2
       node    0, deallocated PAW data for type:  3
       node    1, deallocated PAW data for type:  2
       node    1, deallocated PAW data for type:  3
       node    1, deallocated PAW data for type:  4
       node    2, deallocated PAW data for type:  2
       node    2, deallocated PAW data for type:  3
       node    3, deallocated PAW data for type:  1
       node    3, deallocated PAW data for type:  3
       node    4, deallocated PAW data for type:  1
       node    4, deallocated PAW data for type:  2
       node    4, deallocated PAW data for type:  4
       node    5, deallocated PAW data for type:  1
       node    5, deallocated PAW data for type:  3
       node    6, deallocated PAW data for type:  1
       node    6, deallocated PAW data for type:  2
       node    6, deallocated PAW data for type:  4
       node    7, deallocated PAW data for type:  1
       node    7, deallocated PAW data for type:  2
       node    7, deallocated PAW data for type:  4
       node    8, deallocated PAW data for type:  1
       node    8, deallocated PAW data for type:  3
       node    9, deallocated PAW data for type:  1
       node    9, deallocated PAW data for type:  2
       node    9, deallocated PAW data for type:  4
       node   10, deallocated PAW data for type:  1
       node   10, deallocated PAW data for type:  3
       node   11, deallocated PAW data for type:  2
       node   11, deallocated PAW data for type:  3
       node   12, deallocated PAW data for type:  2
       node   12, deallocated PAW data for type:  3
       node   12, deallocated PAW data for type:  4
       node   13, deallocated PAW data for type:  2
       node   13, deallocated PAW data for type:  3
       node   14, deallocated PAW data for type:  1
       node   14, deallocated PAW data for type:  2
       node   14, deallocated PAW data for type:  4
       node   15, deallocated PAW data for type:  1
       node   15, deallocated PAW data for type:  3
       node   16, deallocated PAW data for type:  1
       node   16, deallocated PAW data for type:  2
       node   16, deallocated PAW data for type:  4
       node   17, deallocated PAW data for type:  1
       node   17, deallocated PAW data for type:  3
       node   18, deallocated PAW data for type:  2
       node   18, deallocated PAW data for type:  3
       node   19, deallocated PAW data for type:  2
       node   19, deallocated PAW data for type:  3
       node   19, deallocated PAW data for type:  4
       node   20, deallocated PAW data for type:  2
       node   20, deallocated PAW data for type:  3
       node   21, deallocated PAW data for type:  1
       node   21, deallocated PAW data for type:  2
       node   21, deallocated PAW data for type:  4
       node   22, deallocated PAW data for type:  1
       node   22, deallocated PAW data for type:  3
       node   23, deallocated PAW data for type:  1
       node   23, deallocated PAW data for type:  2
       node   23, deallocated PAW data for type:  4
       node   24, deallocated PAW data for type:  1
       node   24, deallocated PAW data for type:  3
       node   24, deallocated PAW data for type:  4
       node   25, deallocated PAW data for type:  1
       node   25, deallocated PAW data for type:  2
       node   25, deallocated PAW data for type:  3
       node   26, deallocated PAW data for type:  2
       node   26, deallocated PAW data for type:  3
       node   26, deallocated PAW data for type:  4
       node   27, deallocated PAW data for type:  1
       node   27, deallocated PAW data for type:  2
       node   27, deallocated PAW data for type:  3
       node   28, deallocated PAW data for type:  2
       node   28, deallocated PAW data for type:  3
       node   28, deallocated PAW data for type:  4
       node   29, deallocated PAW data for type:  2
       node   29, deallocated PAW data for type:  3
       node   29, deallocated PAW data for type:  4
       node   30, deallocated PAW data for type:  1
       node   30, deallocated PAW data for type:  2
       node   30, deallocated PAW data for type:  3
       node   31, deallocated PAW data for type:  2
       node   31, deallocated PAW data for type:  3
       node   31, deallocated PAW data for type:  4

     total cpu time spent up to now is      411.7 secs

     per-process dynamical memory:   328.7 Mb

     Self-consistent Calculation

     iteration #  1     ecut=   220.00 Ry     beta=0.70
     Davidson diagonalization with overlap
     ethr =  1.00E-02,  avg # of iterations =  3.0

     total cpu time spent up to now is     1256.8 secs

     total energy              =   -1279.69778570 Ry
     Harris-Foulkes estimate   =   -1283.99859021 Ry
     estimated scf accuracy    <       6.62863225 Ry

     iteration #  2     ecut=   220.00 Ry     beta=0.70
     Davidson diagonalization with overlap
     ethr =  2.96E-03,  avg # of iterations =  4.0

     total cpu time spent up to now is     3816.9 secs

     total energy              =   -1280.38639794 Ry
     Harris-Foulkes estimate   =   -1283.80898564 Ry
     estimated scf accuracy    <       6.88497755 Ry

     iteration #  3     ecut=   220.00 Ry     beta=0.70
     Davidson diagonalization with overlap
     ethr =  2.96E-03,  avg # of iterations =  4.8

     total cpu time spent up to now is     4479.7 secs

     total energy              =   -1281.86195229 Ry
     Harris-Foulkes estimate   =   -1282.07371420 Ry
     estimated scf accuracy    <       0.38968448 Ry

     iteration #  4     ecut=   220.00 Ry     beta=0.70
     Davidson diagonalization with overlap
     ethr =  1.74E-04,  avg # of iterations =  4.8

     total cpu time spent up to now is     5302.1 secs

     total energy              =   -1282.00936935 Ry
     Harris-Foulkes estimate   =   -1282.08897127 Ry
     estimated scf accuracy    <       0.17267311 Ry

     iteration #  5     ecut=   220.00 Ry     beta=0.70
     Davidson diagonalization with overlap
     ethr =  7.71E-05,  avg # of iterations =  4.0

     total cpu time spent up to now is     5992.4 secs

     total energy              =   -1282.04503578 Ry
     Harris-Foulkes estimate   =   -1282.05428468 Ry
     estimated scf accuracy    <       0.02331912 Ry

     iteration #  6     ecut=   220.00 Ry     beta=0.70
     Davidson diagonalization with overlap
     ethr =  1.04E-05,  avg # of iterations =  5.9

     total cpu time spent up to now is     6581.9 secs

     total energy              =   -1282.04654721 Ry
     Harris-Foulkes estimate   =   -1282.04805947 Ry
     estimated scf accuracy    <       0.00419709 Ry

     iteration #  7     ecut=   220.00 Ry     beta=0.70
     Davidson diagonalization with overlap
     ethr =  1.87E-06,  avg # of iterations =  4.9

     total cpu time spent up to now is     7466.4 secs

     total energy              =   -1282.04957782 Ry
     Harris-Foulkes estimate   =   -1282.05068825 Ry
     estimated scf accuracy    <       0.00426685 Ry

     iteration #  8     ecut=   220.00 Ry     beta=0.70
     Davidson diagonalization with overlap
     ethr =  1.87E-06,  avg # of iterations =  1.0

     total cpu time spent up to now is     7972.6 secs

     total energy              =   -1282.04845485 Ry
     Harris-Foulkes estimate   =   -1282.04964581 Ry
     estimated scf accuracy    <       0.00248887 Ry

     iteration #  9     ecut=   220.00 Ry     beta=0.70
     Davidson diagonalization with overlap
     ethr =  1.11E-06,  avg # of iterations =  5.0

     total cpu time spent up to now is     8753.8 secs

     total energy              =   -1282.04990949 Ry
     Harris-Foulkes estimate   =   -1282.05078127 Ry
     estimated scf accuracy    <       0.00484339 Ry

     iteration # 10     ecut=   220.00 Ry     beta=0.70
     Davidson diagonalization with overlap
     ethr =  1.11E-06,  avg # of iterations =  1.0

     total cpu time spent up to now is     9236.2 secs

     total energy              =   -1282.04867824 Ry
     Harris-Foulkes estimate   =   -1282.04993478 Ry
     estimated scf accuracy    <       0.00344106 Ry

     iteration # 11     ecut=   220.00 Ry     beta=0.70
     Davidson diagonalization with overlap
     ethr =  1.11E-06,  avg # of iterations =  5.0

     total cpu time spent up to now is     9934.3 secs

     total energy              =   -1282.04978988 Ry
     Harris-Foulkes estimate   =   -1282.05000016 Ry
     estimated scf accuracy    <       0.00078577 Ry

     iteration # 12     ecut=   220.00 Ry     beta=0.70
     Davidson diagonalization with overlap
     ethr =  3.51E-07,  avg # of iterations =  1.0

     total cpu time spent up to now is    10421.0 secs

     total energy              =   -1282.04960764 Ry
     Harris-Foulkes estimate   =   -1282.04980160 Ry
     estimated scf accuracy    <       0.00045041 Ry

     iteration # 13     ecut=   220.00 Ry     beta=0.70
     Davidson diagonalization with overlap
     ethr =  2.01E-07,  avg # of iterations =  5.0

     total cpu time spent up to now is    11116.0 secs

     total energy              =   -1282.04984800 Ry
     Harris-Foulkes estimate   =   -1282.04993958 Ry
     estimated scf accuracy    <       0.00045651 Ry

     iteration # 14     ecut=   220.00 Ry     beta=0.70
     Davidson diagonalization with overlap
     ethr =  2.01E-07,  avg # of iterations =  1.0

     total cpu time spent up to now is    11612.4 secs

     total energy              =   -1282.04978039 Ry
     Harris-Foulkes estimate   =   -1282.04985096 Ry
     estimated scf accuracy    <       0.00031050 Ry

     iteration # 15     ecut=   220.00 Ry     beta=0.70
     Davidson diagonalization with overlap
     ethr =  1.39E-07,  avg # of iterations =  5.0

     total cpu time spent up to now is    12227.9 secs

     total energy              =   -1282.04985919 Ry
     Harris-Foulkes estimate   =   -1282.04985014 Ry
     estimated scf accuracy    <       0.00000231 Ry

     iteration # 16     ecut=   220.00 Ry     beta=0.70
     Davidson diagonalization with overlap
     ethr =  1.03E-09,  avg # of iterations =  5.1

     total cpu time spent up to now is    13294.9 secs

     total energy              =   -1282.04984905 Ry
     Harris-Foulkes estimate   =   -1282.04988147 Ry
     estimated scf accuracy    <       0.00015271 Ry

     iteration # 17     ecut=   220.00 Ry     beta=0.70
     Davidson diagonalization with overlap
     ethr =  1.03E-09,  avg # of iterations =  5.0

     total cpu time spent up to now is    14200.4 secs

     total energy              =   -1282.04985145 Ry
     Harris-Foulkes estimate   =   -1282.04985672 Ry
     estimated scf accuracy    <       0.00002809 Ry

     iteration # 18     ecut=   220.00 Ry     beta=0.70
     Davidson diagonalization with overlap
     ethr =  1.03E-09,  avg # of iterations =  5.0

     total cpu time spent up to now is    14879.2 secs

     total energy              =   -1282.04985103 Ry
     Harris-Foulkes estimate   =   -1282.04985275 Ry
     estimated scf accuracy    <       0.00000587 Ry

     iteration # 19     ecut=   220.00 Ry     beta=0.70
     Davidson diagonalization with overlap
     ethr =  1.03E-09,  avg # of iterations =  6.6

     total cpu time spent up to now is    15509.0 secs

     End of self-consistent calculation

          k = 0.0192 0.0113 0.0217 (192070 PWs)   bands (ev):

   -24.0400 -24.0178 -24.0060 -23.9967 -23.7661 -23.7577 -23.7569 -23.7531
   -19.2683 -19.2632 -19.2564 -19.2446 -18.9611 -18.9607 -18.9571 -18.9558
   -18.2948 -18.2705 -17.2655 -17.2178 -17.1189 -17.1175 -16.0979 -16.0845
   -12.1241 -12.1203 -12.1024 -11.9900 -11.9358 -11.8636 -11.8051 -11.7894
    -8.9240  -8.8858  -8.3193  -8.2834  -7.5942  -7.5529  -7.4662  -7.4582
    -6.9099  -6.8096  -6.6609  -6.5650  -6.5529  -6.4681  -6.4004  -6.3257
    -6.1938  -6.1649  -6.1429  -6.0239  -5.9656  -5.8890  -5.8297  -5.7836
    -5.7167  -5.6947  -5.5940  -5.5460  -5.1821  -5.0688  -4.9833  -4.9756
    -4.5168  -4.5040  -4.4805  -4.4378  -4.2768  -4.1686  -3.9134  -3.9021
    -3.7312  -3.6071  -3.5454  -3.5013  -3.1951  -3.1616  -3.0623  -3.0469
    -0.8499  -0.8454  -0.3645  -0.3623  -0.2660  -0.2147  -0.1551  -0.1363
    -0.0824  -0.0558   0.1101   0.1440   0.1551   0.1840   0.3111   0.3366
     0.3919   0.4143   0.5952   0.6393   0.7249   0.7613   0.8035   0.8438
     0.8561   0.9748   1.0020   1.0626   1.1670   1.2966   1.3139   1.3445

     occupation numbers 
     1.0000   1.0000   1.0000   1.0000   1.0000   1.0000   1.0000   1.0000
     1.0000   1.0000   1.0000   1.0000   1.0000   1.0000   1.0000   1.0000
     1.0000   1.0000   1.0000   1.0000   1.0000   1.0000   1.0000   1.0000
     1.0000   1.0000   1.0000   1.0000   1.0000   1.0000   1.0000   1.0000
     1.0000   1.0000   1.0000   1.0000   1.0000   1.0000   1.0000   1.0000
     1.0000   1.0000   1.0000   1.0000   1.0000   1.0000   1.0000   1.0000
     1.0000   1.0000   1.0000   1.0000   1.0000   1.0000   1.0000   1.0000
     1.0000   1.0000   1.0000   1.0000   1.0000   1.0000   1.0000   1.0000
     1.0000   1.0000   1.0000   1.0000   1.0000   1.0000   1.0000   1.0000
     1.0000   1.0000   1.0000   1.0000   1.0000   1.0000   1.0000   1.0000
     1.0000   1.0000   1.0000   1.0000   1.0000   1.0000   1.0000   1.0000
     1.0000   1.0000   1.0000   1.0000   1.0000   1.0000   1.0000   1.0000
     1.0000   1.0000   1.0000   1.0000   1.0000   1.0000   1.0000   1.0000
     1.0000   1.0000   1.0000   1.0000   1.0000   1.0000   1.0000   1.0000

          k = 0.0192 0.0113 0.0565 (192116 PWs)   bands (ev):

   -24.0321 -24.0232 -24.0024 -24.0013 -23.7679 -23.7649 -23.7535 -23.7491
   -19.2665 -19.2619 -19.2573 -19.2481 -18.9666 -18.9658 -18.9525 -18.9507
   -18.2838 -18.2835 -17.2428 -17.2404 -17.1149 -17.1125 -16.0931 -16.0917
   -12.1324 -12.1293 -12.0530 -12.0342 -11.8945 -11.8838 -11.8129 -11.8062
    -8.9048  -8.8703  -8.2997  -8.2758  -7.6088  -7.5602  -7.4458  -7.3654
    -6.9556  -6.8353  -6.6389  -6.6046  -6.5952  -6.4853  -6.4224  -6.3949
    -6.2526  -6.2235  -6.0298  -5.9842  -5.9624  -5.8920  -5.8680  -5.8182
    -5.7852  -5.7234  -5.5161  -5.4710  -5.1869  -5.1083  -4.9800  -4.9428
    -4.4790  -4.4717  -4.4075  -4.3452  -4.2051  -4.1729  -4.0252  -4.0228
    -3.7092  -3.6551  -3.4821  -3.4719  -3.2200  -3.2163  -3.0473  -3.0255
    -0.8161  -0.7825  -0.3771  -0.3681  -0.2744  -0.2402  -0.1864  -0.1668
    -0.1345  -0.0933   0.0128   0.0710   0.1754   0.2228   0.2798   0.2915
     0.5038   0.5665   0.6070   0.6585   0.7167   0.7421   0.7694   0.8192
     0.9367   0.9730   1.0366   1.0614   1.1725   1.2405   1.3233   1.3527

     occupation numbers 
     1.0000   1.0000   1.0000   1.0000   1.0000   1.0000   1.0000   1.0000
     1.0000   1.0000   1.0000   1.0000   1.0000   1.0000   1.0000   1.0000
     1.0000   1.0000   1.0000   1.0000   1.0000   1.0000   1.0000   1.0000
     1.0000   1.0000   1.0000   1.0000   1.0000   1.0000   1.0000   1.0000
     1.0000   1.0000   1.0000   1.0000   1.0000   1.0000   1.0000   1.0000
     1.0000   1.0000   1.0000   1.0000   1.0000   1.0000   1.0000   1.0000
     1.0000   1.0000   1.0000   1.0000   1.0000   1.0000   1.0000   1.0000
     1.0000   1.0000   1.0000   1.0000   1.0000   1.0000   1.0000   1.0000
     1.0000   1.0000   1.0000   1.0000   1.0000   1.0000   1.0000   1.0000
     1.0000   1.0000   1.0000   1.0000   1.0000   1.0000   1.0000   1.0000
     1.0000   1.0000   1.0000   1.0000   1.0000   1.0000   1.0000   1.0000
     1.0000   1.0000   1.0000   1.0000   1.0000   1.0000   1.0000   1.0000
     1.0000   1.0000   1.0000   1.0000   1.0000   1.0000   1.0000   1.0000
     1.0000   1.0000   1.0000   1.0000   1.0000   1.0000   1.0000   1.0000

          k = 0.0192 0.0113-0.0479 (192139 PWs)   bands (ev):

   -24.0330 -24.0226 -24.0060 -23.9974 -23.7694 -23.7664 -23.7504 -23.7491
   -19.2643 -19.2626 -19.2543 -19.2529 -18.9681 -18.9676 -18.9507 -18.9491
   -18.2949 -18.2711 -17.2635 -17.2196 -17.1176 -17.1151 -16.0970 -16.0817
   -12.1428 -12.1278 -12.0858 -12.0022 -11.9216 -11.8524 -11.8149 -11.8053
    -8.9142  -8.8329  -8.2869  -8.2851  -7.6030  -7.5885  -7.4524  -7.3428
    -6.9676  -6.8610  -6.6386  -6.5998  -6.5610  -6.5329  -6.4367  -6.4025
    -6.2756  -6.2435  -6.0359  -6.0033  -5.8891  -5.8620  -5.8520  -5.8400
    -5.7816  -5.7095  -5.5149  -5.4702  -5.1822  -5.1101  -4.9646  -4.9356
    -4.5082  -4.4345  -4.4033  -4.3504  -4.2197  -4.2003  -4.0321  -3.9838
    -3.7086  -3.6592  -3.5341  -3.4520  -3.2274  -3.2041  -3.0439  -3.0318
    -0.7518  -0.6919  -0.3672  -0.3593  -0.3238  -0.2963  -0.2240  -0.2049
    -0.1450  -0.1427  -0.0258   0.0561   0.1917   0.2258   0.2370   0.2862
     0.5492   0.6243   0.6449   0.6568   0.7011   0.7792   0.7902   0.7996
     0.9304   0.9803   1.0549   1.1029   1.1756   1.2037   1.3163   1.3345

     occupation numbers 
     1.0000   1.0000   1.0000   1.0000   1.0000   1.0000   1.0000   1.0000
     1.0000   1.0000   1.0000   1.0000   1.0000   1.0000   1.0000   1.0000
     1.0000   1.0000   1.0000   1.0000   1.0000   1.0000   1.0000   1.0000
     1.0000   1.0000   1.0000   1.0000   1.0000   1.0000   1.0000   1.0000
     1.0000   1.0000   1.0000   1.0000   1.0000   1.0000   1.0000   1.0000
     1.0000   1.0000   1.0000   1.0000   1.0000   1.0000   1.0000   1.0000
     1.0000   1.0000   1.0000   1.0000   1.0000   1.0000   1.0000   1.0000
     1.0000   1.0000   1.0000   1.0000   1.0000   1.0000   1.0000   1.0000
     1.0000   1.0000   1.0000   1.0000   1.0000   1.0000   1.0000   1.0000
     1.0000   1.0000   1.0000   1.0000   1.0000   1.0000   1.0000   1.0000
     1.0000   1.0000   1.0000   1.0000   1.0000   1.0000   1.0000   1.0000
     1.0000   1.0000   1.0000   1.0000   1.0000   1.0000   1.0000   1.0000
     1.0000   1.0000   1.0000   1.0000   1.0000   1.0000   1.0000   1.0000
     1.0000   1.0000   1.0000   1.0000   1.0000   1.0000   1.0000   1.0000

          k = 0.0192 0.0113-0.0131 (192071 PWs)   bands (ev):

   -24.0404 -24.0179 -24.0072 -23.9950 -23.7685 -23.7605 -23.7532 -23.7515
   -19.2673 -19.2619 -19.2567 -19.2468 -18.9645 -18.9643 -18.9529 -18.9528
   -18.2990 -18.2649 -17.2740 -17.2091 -17.1212 -17.1206 -16.0983 -16.0780
   -12.1390 -12.1212 -12.1074 -11.9873 -11.9364 -11.8526 -11.8035 -11.7899
    -8.9350  -8.8469  -8.3133  -8.2862  -7.5980  -7.5758  -7.4921  -7.4147
    -6.8812  -6.8674  -6.6570  -6.5548  -6.5489  -6.5126  -6.4092  -6.3412
    -6.2421  -6.1988  -6.0757  -6.0278  -5.9290  -5.8805  -5.8116  -5.7836
    -5.7281  -5.6790  -5.5636  -5.5616  -5.1517  -5.1063  -4.9762  -4.9455
    -4.5153  -4.5017  -4.4777  -4.4516  -4.2876  -4.1759  -3.9200  -3.8705
    -3.7486  -3.6158  -3.5598  -3.4993  -3.2026  -3.1556  -3.0559  -3.0545
    -0.8029  -0.7799  -0.3559  -0.3493  -0.2668  -0.2338  -0.1622  -0.1441
    -0.1376  -0.0998   0.0040   0.0639   0.1265   0.2006   0.2562   0.3212
     0.5188   0.5519   0.5819   0.6597   0.7210   0.7666   0.8195   0.8330
     0.8704   0.9544   1.0301   1.0903   1.1662   1.2791   1.3008   1.3298

     occupation numbers 
     1.0000   1.0000   1.0000   1.0000   1.0000   1.0000   1.0000   1.0000
     1.0000   1.0000   1.0000   1.0000   1.0000   1.0000   1.0000   1.0000
     1.0000   1.0000   1.0000   1.0000   1.0000   1.0000   1.0000   1.0000
     1.0000   1.0000   1.0000   1.0000   1.0000   1.0000   1.0000   1.0000
     1.0000   1.0000   1.0000   1.0000   1.0000   1.0000   1.0000   1.0000
     1.0000   1.0000   1.0000   1.0000   1.0000   1.0000   1.0000   1.0000
     1.0000   1.0000   1.0000   1.0000   1.0000   1.0000   1.0000   1.0000
     1.0000   1.0000   1.0000   1.0000   1.0000   1.0000   1.0000   1.0000
     1.0000   1.0000   1.0000   1.0000   1.0000   1.0000   1.0000   1.0000
     1.0000   1.0000   1.0000   1.0000   1.0000   1.0000   1.0000   1.0000
     1.0000   1.0000   1.0000   1.0000   1.0000   1.0000   1.0000   1.0000
     1.0000   1.0000   1.0000   1.0000   1.0000   1.0000   1.0000   1.0000
     1.0000   1.0000   1.0000   1.0000   1.0000   1.0000   1.0000   1.0000
     1.0000   1.0000   1.0000   1.0000   1.0000   1.0000   1.0000   1.0000

          k = 0.0192 0.0340 0.0217 (192102 PWs)   bands (ev):

   -24.0347 -24.0262 -24.0015 -23.9983 -23.7625 -23.7587 -23.7567 -23.7556
   -19.2680 -19.2664 -19.2512 -19.2469 -18.9610 -18.9609 -18.9566 -18.9561
   -18.2879 -18.2778 -17.2514 -17.2317 -17.1185 -17.1178 -16.0939 -16.0884
   -12.1240 -12.1230 -12.0775 -12.0369 -11.8998 -11.8750 -11.8003 -11.7938
    -8.9136  -8.8978  -8.3096  -8.2947  -7.5843  -7.5667  -7.4589  -7.4554
    -6.8870  -6.8420  -6.6076  -6.5660  -6.5588  -6.5156  -6.3779  -6.3549
    -6.2042  -6.1885  -6.0720  -6.0345  -5.9684  -5.9315  -5.8263  -5.8108
    -5.6861  -5.6747  -5.5723  -5.5500  -5.1360  -5.0697  -5.0276  -5.0046
    -4.5301  -4.5207  -4.4466  -4.4273  -4.2503  -4.2005  -3.9089  -3.9022
    -3.6942  -3.6408  -3.5329  -3.5130  -3.1888  -3.1752  -3.0548  -3.0490
    -0.8456  -0.8433  -0.3557  -0.3501  -0.2784  -0.2426  -0.1776  -0.1710
    -0.0493  -0.0400   0.1339   0.1452   0.1753   0.1820   0.3336   0.3437
     0.3730   0.3910   0.6074   0.6324   0.7049   0.7168   0.8216   0.8424
     0.9024   0.9471   1.0289   1.0519   1.2037   1.2575   1.3246   1.3344

     occupation numbers 
     1.0000   1.0000   1.0000   1.0000   1.0000   1.0000   1.0000   1.0000
     1.0000   1.0000   1.0000   1.0000   1.0000   1.0000   1.0000   1.0000
     1.0000   1.0000   1.0000   1.0000   1.0000   1.0000   1.0000   1.0000
     1.0000   1.0000   1.0000   1.0000   1.0000   1.0000   1.0000   1.0000
     1.0000   1.0000   1.0000   1.0000   1.0000   1.0000   1.0000   1.0000
     1.0000   1.0000   1.0000   1.0000   1.0000   1.0000   1.0000   1.0000
     1.0000   1.0000   1.0000   1.0000   1.0000   1.0000   1.0000   1.0000
     1.0000   1.0000   1.0000   1.0000   1.0000   1.0000   1.0000   1.0000
     1.0000   1.0000   1.0000   1.0000   1.0000   1.0000   1.0000   1.0000
     1.0000   1.0000   1.0000   1.0000   1.0000   1.0000   1.0000   1.0000
     1.0000   1.0000   1.0000   1.0000   1.0000   1.0000   1.0000   1.0000
     1.0000   1.0000   1.0000   1.0000   1.0000   1.0000   1.0000   1.0000
     1.0000   1.0000   1.0000   1.0000   1.0000   1.0000   1.0000   1.0000
     1.0000   1.0000   1.0000   1.0000   1.0000   1.0000   1.0000   1.0000

          k = 0.0192 0.0340 0.0565 (192137 PWs)   bands (ev):

   -24.0292 -24.0254 -24.0026 -24.0020 -23.7664 -23.7652 -23.7527 -23.7508
   -19.2663 -19.2650 -19.2529 -19.2496 -18.9663 -18.9660 -18.9520 -18.9512
   -18.2837 -18.2836 -17.2424 -17.2414 -17.1138 -17.1128 -16.0928 -16.0922
   -12.1311 -12.1296 -12.0499 -12.0419 -11.8885 -11.8834 -11.8123 -11.8094
    -8.8949  -8.8806  -8.2932  -8.2832  -7.5930  -7.5731  -7.4225  -7.3899
    -6.9361  -6.8915  -6.6253  -6.6142  -6.5445  -6.4982  -6.4327  -6.4143
    -6.2105  -6.1837  -6.0527  -6.0081  -5.9414  -5.9098  -5.8634  -5.8442
    -5.7640  -5.7307  -5.5214  -5.5010  -5.1238  -5.0744  -5.0239  -4.9883
    -4.4563  -4.4444  -4.4051  -4.3758  -4.1990  -4.1847  -4.0250  -4.0234
    -3.6881  -3.6654  -3.4813  -3.4767  -3.2158  -3.2121  -3.0471  -3.0365
    -0.8056  -0.7918  -0.3705  -0.3625  -0.2849  -0.2572  -0.2021  -0.1864
    -0.1065  -0.0882   0.0586   0.0786   0.1788   0.2018   0.2732   0.2845
     0.5195   0.5465   0.6215   0.6447   0.7273   0.7374   0.7755   0.8053
     0.9390   0.9581   1.0488   1.0587   1.1954   1.2231   1.3308   1.3429

     occupation numbers 
     1.0000   1.0000   1.0000   1.0000   1.0000   1.0000   1.0000   1.0000
     1.0000   1.0000   1.0000   1.0000   1.0000   1.0000   1.0000   1.0000
     1.0000   1.0000   1.0000   1.0000   1.0000   1.0000   1.0000   1.0000
     1.0000   1.0000   1.0000   1.0000   1.0000   1.0000   1.0000   1.0000
     1.0000   1.0000   1.0000   1.0000   1.0000   1.0000   1.0000   1.0000
     1.0000   1.0000   1.0000   1.0000   1.0000   1.0000   1.0000   1.0000
     1.0000   1.0000   1.0000   1.0000   1.0000   1.0000   1.0000   1.0000
     1.0000   1.0000   1.0000   1.0000   1.0000   1.0000   1.0000   1.0000
     1.0000   1.0000   1.0000   1.0000   1.0000   1.0000   1.0000   1.0000
     1.0000   1.0000   1.0000   1.0000   1.0000   1.0000   1.0000   1.0000
     1.0000   1.0000   1.0000   1.0000   1.0000   1.0000   1.0000   1.0000
     1.0000   1.0000   1.0000   1.0000   1.0000   1.0000   1.0000   1.0000
     1.0000   1.0000   1.0000   1.0000   1.0000   1.0000   1.0000   1.0000
     1.0000   1.0000   1.0000   1.0000   1.0000   1.0000   1.0000   1.0000

          k = 0.0192 0.0340-0.0479 (192118 PWs)   bands (ev):

   -24.0301 -24.0258 -24.0034 -23.9999 -23.7681 -23.7668 -23.7504 -23.7498
   -19.2647 -19.2640 -19.2529 -19.2524 -18.9679 -18.9677 -18.9502 -18.9496
   -18.2881 -18.2783 -17.2507 -17.2325 -17.1168 -17.1158 -16.0924 -16.0861
   -12.1390 -12.1330 -12.0673 -12.0357 -11.8918 -11.8659 -11.8121 -11.8079
    -8.8914  -8.8577  -8.2877  -8.2865  -7.5955  -7.5904  -7.4232  -7.3770
    -6.9353  -6.8905  -6.6436  -6.6156  -6.5426  -6.5271  -6.4640  -6.4450
    -6.1922  -6.1758  -6.0693  -6.0429  -5.8846  -5.8748  -5.8556  -5.8395
    -5.7608  -5.7289  -5.5096  -5.4839  -5.1557  -5.1056  -4.9863  -4.9555
    -4.4953  -4.4658  -4.3649  -4.3445  -4.2212  -4.2137  -4.0187  -3.9989
    -3.6874  -3.6669  -3.5107  -3.4765  -3.2152  -3.2045  -3.0484  -3.0440
    -0.7356  -0.7112  -0.3669  -0.3635  -0.2969  -0.2798  -0.2489  -0.2252
    -0.1621  -0.1503   0.0257   0.0570   0.1925   0.2083   0.2493   0.2751
     0.5714   0.6010   0.6680   0.6796   0.6895   0.7309   0.7969   0.8008
     0.9444   0.9609   1.0763   1.0943   1.1819   1.1942   1.3211   1.3290

     occupation numbers 
     1.0000   1.0000   1.0000   1.0000   1.0000   1.0000   1.0000   1.0000
     1.0000   1.0000   1.0000   1.0000   1.0000   1.0000   1.0000   1.0000
     1.0000   1.0000   1.0000   1.0000   1.0000   1.0000   1.0000   1.0000
     1.0000   1.0000   1.0000   1.0000   1.0000   1.0000   1.0000   1.0000
     1.0000   1.0000   1.0000   1.0000   1.0000   1.0000   1.0000   1.0000
     1.0000   1.0000   1.0000   1.0000   1.0000   1.0000   1.0000   1.0000
     1.0000   1.0000   1.0000   1.0000   1.0000   1.0000   1.0000   1.0000
     1.0000   1.0000   1.0000   1.0000   1.0000   1.0000   1.0000   1.0000
     1.0000   1.0000   1.0000   1.0000   1.0000   1.0000   1.0000   1.0000
     1.0000   1.0000   1.0000   1.0000   1.0000   1.0000   1.0000   1.0000
     1.0000   1.0000   1.0000   1.0000   1.0000   1.0000   1.0000   1.0000
     1.0000   1.0000   1.0000   1.0000   1.0000   1.0000   1.0000   1.0000
     1.0000   1.0000   1.0000   1.0000   1.0000   1.0000   1.0000   1.0000
     1.0000   1.0000   1.0000   1.0000   1.0000   1.0000   1.0000   1.0000

          k = 0.0192 0.0340-0.0131 (192117 PWs)   bands (ev):

   -24.0353 -24.0267 -24.0015 -23.9972 -23.7656 -23.7622 -23.7532 -23.7525
   -19.2669 -19.2653 -19.2519 -19.2484 -18.9645 -18.9644 -18.9529 -18.9528
   -18.2894 -18.2753 -17.2546 -17.2277 -17.1213 -17.1211 -16.0921 -16.0837
   -12.1340 -12.1281 -12.0819 -12.0393 -11.8950 -11.8668 -11.7988 -11.7931
    -8.9107  -8.8742  -8.3069  -8.2957  -7.5914  -7.5814  -7.4676  -7.4366
    -6.8576  -6.8431  -6.6439  -6.5896  -6.5507  -6.5301  -6.4275  -6.3963
    -6.1834  -6.1657  -6.0824  -6.0537  -5.9256  -5.9010  -5.8099  -5.8037
    -5.6881  -5.6726  -5.5547  -5.5502  -5.1465  -5.1163  -4.9858  -4.9658
    -4.5328  -4.5307  -4.4473  -4.4265  -4.2615  -4.2098  -3.9043  -3.8838
    -3.7010  -3.6451  -3.5446  -3.5189  -3.1916  -3.1723  -3.0550  -3.0544
    -0.7933  -0.7837  -0.3465  -0.3407  -0.2788  -0.2445  -0.1798  -0.1707
    -0.1293  -0.1102   0.0348   0.0633   0.1484   0.1823   0.2900   0.3181
     0.5270   0.5482   0.5968   0.6489   0.6914   0.7200   0.8329   0.8363
     0.9088   0.9389   1.0575   1.0814   1.1933   1.2420   1.3110   1.3196

     occupation numbers 
     1.0000   1.0000   1.0000   1.0000   1.0000   1.0000   1.0000   1.0000
     1.0000   1.0000   1.0000   1.0000   1.0000   1.0000   1.0000   1.0000
     1.0000   1.0000   1.0000   1.0000   1.0000   1.0000   1.0000   1.0000
     1.0000   1.0000   1.0000   1.0000   1.0000   1.0000   1.0000   1.0000
     1.0000   1.0000   1.0000   1.0000   1.0000   1.0000   1.0000   1.0000
     1.0000   1.0000   1.0000   1.0000   1.0000   1.0000   1.0000   1.0000
     1.0000   1.0000   1.0000   1.0000   1.0000   1.0000   1.0000   1.0000
     1.0000   1.0000   1.0000   1.0000   1.0000   1.0000   1.0000   1.0000
     1.0000   1.0000   1.0000   1.0000   1.0000   1.0000   1.0000   1.0000
     1.0000   1.0000   1.0000   1.0000   1.0000   1.0000   1.0000   1.0000
     1.0000   1.0000   1.0000   1.0000   1.0000   1.0000   1.0000   1.0000
     1.0000   1.0000   1.0000   1.0000   1.0000   1.0000   1.0000   1.0000
     1.0000   1.0000   1.0000   1.0000   1.0000   1.0000   1.0000   1.0000
     1.0000   1.0000   1.0000   1.0000   1.0000   1.0000   1.0000   1.0000

          k = 0.0575 0.0113 0.0303 (192142 PWs)   bands (ev):

   -24.0295 -24.0200 -24.0031 -24.0025 -23.7648 -23.7621 -23.7580 -23.7532
   -19.2661 -19.2622 -19.2580 -19.2490 -18.9637 -18.9627 -18.9553 -18.9538
   -18.2896 -18.2895 -17.2399 -17.2377 -17.1202 -17.1183 -16.0936 -16.0920
   -12.1212 -12.1196 -12.0218 -12.0040 -11.8685 -11.8514 -11.8165 -11.8024
    -8.9239  -8.8918  -8.3185  -8.2973  -7.5829  -7.5574  -7.5372  -7.4737
    -7.0293  -6.9628  -6.7217  -6.5938  -6.5182  -6.4824  -6.3181  -6.2807
    -6.2622  -6.2052  -6.0870  -6.0200  -5.9460  -5.9033  -5.8328  -5.8093
    -5.7250  -5.6807  -5.5929  -5.5730  -5.1984  -5.0900  -4.9741  -4.9661
    -4.5114  -4.4896  -4.4356  -4.3913  -4.0773  -4.0282  -3.8604  -3.8180
    -3.7704  -3.6579  -3.6022  -3.5964  -3.1940  -3.1919  -3.0625  -3.0359
    -0.8050  -0.7905  -0.3469  -0.3446  -0.2545  -0.2373  -0.1753  -0.1501
    -0.1225  -0.0922   0.0527   0.0671   0.1446   0.1589   0.2850   0.3100
     0.5331   0.5415   0.6108   0.6613   0.7306   0.7406   0.8040   0.8241
     0.8785   0.9300   0.9627   1.0056   1.2350   1.2705   1.3038   1.3405

     occupation numbers 
     1.0000   1.0000   1.0000   1.0000   1.0000   1.0000   1.0000   1.0000
     1.0000   1.0000   1.0000   1.0000   1.0000   1.0000   1.0000   1.0000
     1.0000   1.0000   1.0000   1.0000   1.0000   1.0000   1.0000   1.0000
     1.0000   1.0000   1.0000   1.0000   1.0000   1.0000   1.0000   1.0000
     1.0000   1.0000   1.0000   1.0000   1.0000   1.0000   1.0000   1.0000
     1.0000   1.0000   1.0000   1.0000   1.0000   1.0000   1.0000   1.0000
     1.0000   1.0000   1.0000   1.0000   1.0000   1.0000   1.0000   1.0000
     1.0000   1.0000   1.0000   1.0000   1.0000   1.0000   1.0000   1.0000
     1.0000   1.0000   1.0000   1.0000   1.0000   1.0000   1.0000   1.0000
     1.0000   1.0000   1.0000   1.0000   1.0000   1.0000   1.0000   1.0000
     1.0000   1.0000   1.0000   1.0000   1.0000   1.0000   1.0000   1.0000
     1.0000   1.0000   1.0000   1.0000   1.0000   1.0000   1.0000   1.0000
     1.0000   1.0000   1.0000   1.0000   1.0000   1.0000   1.0000   1.0000
     1.0000   1.0000   1.0000   1.0000   1.0000   1.0000   1.0000   1.0000

          k = 0.0575 0.0113 0.0651 (192179 PWs)   bands (ev):

   -24.0256 -24.0227 -24.0068 -23.9989 -23.7642 -23.7639 -23.7602 -23.7509
   -19.2665 -19.2636 -19.2584 -19.2481 -18.9730 -18.9710 -18.9482 -18.9445
   -18.3038 -18.2804 -17.2591 -17.2172 -17.1109 -17.1071 -16.1087 -16.0908
   -12.1345 -12.1270 -12.0518 -11.9773 -11.8669 -11.8261 -11.8201 -11.8048
    -8.9668  -8.8481  -8.3118  -8.2778  -7.5880  -7.5601  -7.5023  -7.3592
    -7.1286  -6.9121  -6.7263  -6.5488  -6.5382  -6.4912  -6.4568  -6.3732
    -6.3066  -6.2378  -6.0373  -6.0268  -5.9733  -5.9351  -5.8701  -5.8117
    -5.7014  -5.6512  -5.5494  -5.4775  -5.2109  -5.0484  -5.0385  -4.9762
    -4.4530  -4.4384  -4.3747  -4.3310  -4.0344  -4.0123  -3.9660  -3.9275
    -3.7796  -3.6833  -3.6092  -3.5145  -3.2407  -3.2078  -3.0597  -3.0069
    -0.8794  -0.8368  -0.3531  -0.3207  -0.2586  -0.2287  -0.1720  -0.1340
    -0.0890  -0.0548   0.1148   0.1460   0.1644   0.1878   0.2541   0.3460
     0.4513   0.4713   0.5223   0.6284   0.7182   0.7502   0.7850   0.8217
     0.9143   0.9584   0.9729   1.0025   1.2491   1.2892   1.3061   1.3543

     occupation numbers 
     1.0000   1.0000   1.0000   1.0000   1.0000   1.0000   1.0000   1.0000
     1.0000   1.0000   1.0000   1.0000   1.0000   1.0000   1.0000   1.0000
     1.0000   1.0000   1.0000   1.0000   1.0000   1.0000   1.0000   1.0000
     1.0000   1.0000   1.0000   1.0000   1.0000   1.0000   1.0000   1.0000
     1.0000   1.0000   1.0000   1.0000   1.0000   1.0000   1.0000   1.0000
     1.0000   1.0000   1.0000   1.0000   1.0000   1.0000   1.0000   1.0000
     1.0000   1.0000   1.0000   1.0000   1.0000   1.0000   1.0000   1.0000
     1.0000   1.0000   1.0000   1.0000   1.0000   1.0000   1.0000   1.0000
     1.0000   1.0000   1.0000   1.0000   1.0000   1.0000   1.0000   1.0000
     1.0000   1.0000   1.0000   1.0000   1.0000   1.0000   1.0000   1.0000
     1.0000   1.0000   1.0000   1.0000   1.0000   1.0000   1.0000   1.0000
     1.0000   1.0000   1.0000   1.0000   1.0000   1.0000   1.0000   1.0000
     1.0000   1.0000   1.0000   1.0000   1.0000   1.0000   1.0000   1.0000
     1.0000   1.0000   1.0000   1.0000   1.0000   1.0000   1.0000   1.0000

          k = 0.0575 0.0113-0.0393 (192151 PWs)   bands (ev):

   -24.0271 -24.0216 -24.0083 -23.9969 -23.7672 -23.7661 -23.7561 -23.7498
   -19.2646 -19.2627 -19.2586 -19.2509 -18.9740 -18.9721 -18.9471 -18.9435
   -18.3081 -18.2748 -17.2687 -17.2073 -17.1136 -17.1100 -16.1085 -16.0848
   -12.1389 -12.1280 -12.0749 -11.9578 -11.8826 -11.8197 -11.8142 -11.7989
    -8.9625  -8.8247  -8.3059  -8.2795  -7.5872  -7.5612  -7.5230  -7.3481
    -7.1486  -6.9150  -6.7126  -6.5734  -6.5403  -6.5239  -6.4517  -6.3922
    -6.3151  -6.2515  -6.0271  -5.9691  -5.9614  -5.9341  -5.8724  -5.8278
    -5.6780  -5.6485  -5.5548  -5.4774  -5.2017  -5.0739  -5.0122  -4.9610
    -4.4583  -4.4184  -4.3702  -4.3468  -4.0636  -4.0574  -3.9099  -3.9066
    -3.7316  -3.7098  -3.6608  -3.5190  -3.2446  -3.2043  -3.0571  -3.0120
    -0.8368  -0.7726  -0.3466  -0.2974  -0.2722  -0.2484  -0.1781  -0.1499
    -0.1462  -0.1079   0.0501   0.1266   0.1628   0.2038   0.2214   0.2482
     0.5033   0.5727   0.5978   0.6131   0.7209   0.7370   0.8080   0.8340
     0.9080   0.9388   0.9926   1.0564   1.2655   1.2844   1.2871   1.3187

     occupation numbers 
     1.0000   1.0000   1.0000   1.0000   1.0000   1.0000   1.0000   1.0000
     1.0000   1.0000   1.0000   1.0000   1.0000   1.0000   1.0000   1.0000
     1.0000   1.0000   1.0000   1.0000   1.0000   1.0000   1.0000   1.0000
     1.0000   1.0000   1.0000   1.0000   1.0000   1.0000   1.0000   1.0000
     1.0000   1.0000   1.0000   1.0000   1.0000   1.0000   1.0000   1.0000
     1.0000   1.0000   1.0000   1.0000   1.0000   1.0000   1.0000   1.0000
     1.0000   1.0000   1.0000   1.0000   1.0000   1.0000   1.0000   1.0000
     1.0000   1.0000   1.0000   1.0000   1.0000   1.0000   1.0000   1.0000
     1.0000   1.0000   1.0000   1.0000   1.0000   1.0000   1.0000   1.0000
     1.0000   1.0000   1.0000   1.0000   1.0000   1.0000   1.0000   1.0000
     1.0000   1.0000   1.0000   1.0000   1.0000   1.0000   1.0000   1.0000
     1.0000   1.0000   1.0000   1.0000   1.0000   1.0000   1.0000   1.0000
     1.0000   1.0000   1.0000   1.0000   1.0000   1.0000   1.0000   1.0000
     1.0000   1.0000   1.0000   1.0000   1.0000   1.0000   1.0000   1.0000

          k = 0.0575 0.0113-0.0045 (192149 PWs)   bands (ev):

   -24.0303 -24.0197 -24.0068 -23.9983 -23.7676 -23.7642 -23.7540 -23.7523
   -19.2640 -19.2623 -19.2552 -19.2540 -18.9661 -18.9653 -18.9527 -18.9512
   -18.3009 -18.2770 -17.2612 -17.2159 -17.1224 -17.1218 -16.0975 -16.0820
   -12.1270 -12.1193 -12.0617 -11.9669 -11.8919 -11.8322 -11.8077 -11.8055
    -8.9336  -8.8538  -8.3078  -8.3042  -7.5823  -7.5725  -7.5546  -7.4550
    -7.0472  -6.9599  -6.6765  -6.6542  -6.5154  -6.5090  -6.3528  -6.3188
    -6.2389  -6.2363  -6.0288  -5.9983  -5.9065  -5.8729  -5.8550  -5.8380
    -5.7006  -5.6878  -5.5882  -5.5768  -5.1597  -5.1400  -4.9517  -4.9475
    -4.5126  -4.4874  -4.4297  -4.4004  -4.0913  -4.0479  -3.8250  -3.8193
    -3.7269  -3.6841  -3.6600  -3.5867  -3.2112  -3.1772  -3.0589  -3.0411
    -0.7508  -0.7026  -0.3502  -0.3410  -0.2640  -0.2612  -0.2268  -0.2254
    -0.1371  -0.1086   0.0076   0.0680   0.1271   0.1652   0.2594   0.2943
     0.5242   0.5820   0.6612   0.7070   0.7215   0.7600   0.8203   0.8464
     0.8781   0.8962   0.9763   1.0559   1.2531   1.2634   1.2861   1.3004

     occupation numbers 
     1.0000   1.0000   1.0000   1.0000   1.0000   1.0000   1.0000   1.0000
     1.0000   1.0000   1.0000   1.0000   1.0000   1.0000   1.0000   1.0000
     1.0000   1.0000   1.0000   1.0000   1.0000   1.0000   1.0000   1.0000
     1.0000   1.0000   1.0000   1.0000   1.0000   1.0000   1.0000   1.0000
     1.0000   1.0000   1.0000   1.0000   1.0000   1.0000   1.0000   1.0000
     1.0000   1.0000   1.0000   1.0000   1.0000   1.0000   1.0000   1.0000
     1.0000   1.0000   1.0000   1.0000   1.0000   1.0000   1.0000   1.0000
     1.0000   1.0000   1.0000   1.0000   1.0000   1.0000   1.0000   1.0000
     1.0000   1.0000   1.0000   1.0000   1.0000   1.0000   1.0000   1.0000
     1.0000   1.0000   1.0000   1.0000   1.0000   1.0000   1.0000   1.0000
     1.0000   1.0000   1.0000   1.0000   1.0000   1.0000   1.0000   1.0000
     1.0000   1.0000   1.0000   1.0000   1.0000   1.0000   1.0000   1.0000
     1.0000   1.0000   1.0000   1.0000   1.0000   1.0000   1.0000   1.0000
     1.0000   1.0000   1.0000   1.0000   1.0000   1.0000   1.0000   1.0000

          k = 0.0575 0.0340 0.0303 (192163 PWs)   bands (ev):

   -24.0265 -24.0225 -24.0034 -24.0029 -23.7630 -23.7621 -23.7575 -23.7553
   -19.2661 -19.2650 -19.2537 -19.2505 -18.9634 -18.9630 -18.9549 -18.9542
   -18.2896 -18.2895 -17.2394 -17.2385 -17.1194 -17.1187 -16.0932 -16.0925
   -12.1208 -12.1201 -12.0152 -12.0076 -11.8655 -11.8583 -11.8121 -11.8062
    -8.9144  -8.9011  -8.3095  -8.3005  -7.5757  -7.5658  -7.5203  -7.4940
    -7.0324  -7.0097  -6.6454  -6.5988  -6.5025  -6.4809  -6.3477  -6.3142
    -6.2447  -6.2167  -6.0579  -6.0295  -5.9421  -5.9169  -5.8287  -5.8093
    -5.7052  -5.6911  -5.5875  -5.5789  -5.1680  -5.1231  -4.9772  -4.9734
    -4.5022  -4.4895  -4.4292  -4.4107  -4.0547  -4.0332  -3.8491  -3.8311
    -3.7381  -3.6921  -3.6016  -3.5968  -3.1932  -3.1911  -3.0587  -3.0469
    -0.7974  -0.7914  -0.3371  -0.3307  -0.2906  -0.2739  -0.1557  -0.1357
    -0.1164  -0.1007   0.0659   0.0802   0.1495   0.1628   0.2855   0.2972
     0.5541   0.5602   0.5931   0.6193   0.7293   0.7373   0.8139   0.8357
     0.8950   0.9260   0.9635   0.9850   1.2459   1.2604   1.3149   1.3298

     occupation numbers 
     1.0000   1.0000   1.0000   1.0000   1.0000   1.0000   1.0000   1.0000
     1.0000   1.0000   1.0000   1.0000   1.0000   1.0000   1.0000   1.0000
     1.0000   1.0000   1.0000   1.0000   1.0000   1.0000   1.0000   1.0000
     1.0000   1.0000   1.0000   1.0000   1.0000   1.0000   1.0000   1.0000
     1.0000   1.0000   1.0000   1.0000   1.0000   1.0000   1.0000   1.0000
     1.0000   1.0000   1.0000   1.0000   1.0000   1.0000   1.0000   1.0000
     1.0000   1.0000   1.0000   1.0000   1.0000   1.0000   1.0000   1.0000
     1.0000   1.0000   1.0000   1.0000   1.0000   1.0000   1.0000   1.0000
     1.0000   1.0000   1.0000   1.0000   1.0000   1.0000   1.0000   1.0000
     1.0000   1.0000   1.0000   1.0000   1.0000   1.0000   1.0000   1.0000
     1.0000   1.0000   1.0000   1.0000   1.0000   1.0000   1.0000   1.0000
     1.0000   1.0000   1.0000   1.0000   1.0000   1.0000   1.0000   1.0000
     1.0000   1.0000   1.0000   1.0000   1.0000   1.0000   1.0000   1.0000
     1.0000   1.0000   1.0000   1.0000   1.0000   1.0000   1.0000   1.0000

          k = 0.0575 0.0340 0.0651 (192182 PWs)   bands (ev):

   -24.0243 -24.0232 -24.0050 -24.0017 -23.7641 -23.7639 -23.7575 -23.7536
   -19.2668 -19.2660 -19.2537 -19.2500 -18.9724 -18.9716 -18.9471 -18.9456
   -18.2971 -18.2875 -17.2468 -17.2295 -17.1098 -17.1082 -16.1033 -16.0959
   -12.1345 -12.1317 -12.0288 -11.9988 -11.8532 -11.8367 -11.8158 -11.8095
    -8.9333  -8.8842  -8.3004  -8.2862  -7.5669  -7.5527  -7.4844  -7.4201
    -7.0878  -7.0110  -6.6304  -6.5716  -6.5274  -6.5127  -6.4170  -6.3658
    -6.3037  -6.2542  -6.0186  -6.0096  -5.9764  -5.9634  -5.8776  -5.8409
    -5.6926  -5.6725  -5.5219  -5.4922  -5.1724  -5.1044  -5.0175  -4.9911
    -4.4403  -4.4207  -4.3713  -4.3377  -4.0241  -4.0158  -3.9560  -3.9405
    -3.7602  -3.7250  -3.5743  -3.5380  -3.2320  -3.2186  -3.0446  -3.0226
    -0.8637  -0.8463  -0.3415  -0.3273  -0.2853  -0.2770  -0.1458  -0.1340
    -0.0585  -0.0468   0.1314   0.1421   0.1776   0.1900   0.2770   0.3197
     0.4390   0.4483   0.5720   0.6274   0.6946   0.7295   0.7998   0.8180
     0.9099   0.9357   0.9925   1.0081   1.2599   1.2763   1.3200   1.3396

     occupation numbers 
     1.0000   1.0000   1.0000   1.0000   1.0000   1.0000   1.0000   1.0000
     1.0000   1.0000   1.0000   1.0000   1.0000   1.0000   1.0000   1.0000
     1.0000   1.0000   1.0000   1.0000   1.0000   1.0000   1.0000   1.0000
     1.0000   1.0000   1.0000   1.0000   1.0000   1.0000   1.0000   1.0000
     1.0000   1.0000   1.0000   1.0000   1.0000   1.0000   1.0000   1.0000
     1.0000   1.0000   1.0000   1.0000   1.0000   1.0000   1.0000   1.0000
     1.0000   1.0000   1.0000   1.0000   1.0000   1.0000   1.0000   1.0000
     1.0000   1.0000   1.0000   1.0000   1.0000   1.0000   1.0000   1.0000
     1.0000   1.0000   1.0000   1.0000   1.0000   1.0000   1.0000   1.0000
     1.0000   1.0000   1.0000   1.0000   1.0000   1.0000   1.0000   1.0000
     1.0000   1.0000   1.0000   1.0000   1.0000   1.0000   1.0000   1.0000
     1.0000   1.0000   1.0000   1.0000   1.0000   1.0000   1.0000   1.0000
     1.0000   1.0000   1.0000   1.0000   1.0000   1.0000   1.0000   1.0000
     1.0000   1.0000   1.0000   1.0000   1.0000   1.0000   1.0000   1.0000

          k = 0.0575 0.0340-0.0393 (192164 PWs)   bands (ev):

   -24.0256 -24.0234 -24.0049 -24.0002 -23.7667 -23.7662 -23.7544 -23.7518
   -19.2653 -19.2649 -19.2546 -19.2519 -18.9734 -18.9726 -18.9461 -18.9445
   -18.2987 -18.2850 -17.2504 -17.2249 -17.1128 -17.1113 -16.1013 -16.0915
   -12.1389 -12.1353 -12.0426 -11.9984 -11.8548 -11.8319 -11.8096 -11.8039
    -8.9240  -8.8671  -8.2978  -8.2868  -7.5717  -7.5541  -7.4927  -7.4140
    -7.0958  -7.0108  -6.6295  -6.5868  -6.5386  -6.5207  -6.4684  -6.4151
    -6.2677  -6.2259  -6.0305  -5.9952  -5.9544  -5.9405  -5.8776  -5.8491
    -5.6768  -5.6640  -5.5181  -5.4859  -5.1867  -5.1336  -4.9864  -4.9650
    -4.4578  -4.4404  -4.3445  -4.3272  -4.0584  -4.0560  -3.9109  -3.9079
    -3.7386  -3.7309  -3.6094  -3.5546  -3.2312  -3.2138  -3.0474  -3.0281
    -0.8156  -0.7888  -0.3375  -0.3198  -0.2943  -0.2778  -0.1574  -0.1506
    -0.1153  -0.0928   0.0760   0.1053   0.1707   0.1872   0.2250   0.2492
     0.5258   0.5507   0.6267   0.6278   0.7171   0.7216   0.7929   0.8023
     0.9191   0.9372   1.0178   1.0422   1.2698   1.2788   1.2942   1.3082

     occupation numbers 
     1.0000   1.0000   1.0000   1.0000   1.0000   1.0000   1.0000   1.0000
     1.0000   1.0000   1.0000   1.0000   1.0000   1.0000   1.0000   1.0000
     1.0000   1.0000   1.0000   1.0000   1.0000   1.0000   1.0000   1.0000
     1.0000   1.0000   1.0000   1.0000   1.0000   1.0000   1.0000   1.0000
     1.0000   1.0000   1.0000   1.0000   1.0000   1.0000   1.0000   1.0000
     1.0000   1.0000   1.0000   1.0000   1.0000   1.0000   1.0000   1.0000
     1.0000   1.0000   1.0000   1.0000   1.0000   1.0000   1.0000   1.0000
     1.0000   1.0000   1.0000   1.0000   1.0000   1.0000   1.0000   1.0000
     1.0000   1.0000   1.0000   1.0000   1.0000   1.0000   1.0000   1.0000
     1.0000   1.0000   1.0000   1.0000   1.0000   1.0000   1.0000   1.0000
     1.0000   1.0000   1.0000   1.0000   1.0000   1.0000   1.0000   1.0000
     1.0000   1.0000   1.0000   1.0000   1.0000   1.0000   1.0000   1.0000
     1.0000   1.0000   1.0000   1.0000   1.0000   1.0000   1.0000   1.0000
     1.0000   1.0000   1.0000   1.0000   1.0000   1.0000   1.0000   1.0000

          k = 0.0575 0.0340-0.0045 (192111 PWs)   bands (ev):

   -24.0274 -24.0231 -24.0041 -24.0007 -23.7662 -23.7647 -23.7539 -23.7532
   -19.2644 -19.2638 -19.2539 -19.2535 -18.9659 -18.9656 -18.9522 -18.9517
   -18.2941 -18.2842 -17.2478 -17.2291 -17.1223 -17.1220 -16.0929 -16.0864
   -12.1261 -12.1233 -12.0370 -12.0004 -11.8679 -11.8455 -11.8072 -11.8052
    -8.9107  -8.8778  -8.3057  -8.3029  -7.5790  -7.5750  -7.5283  -7.4870
    -7.0358  -7.0007  -6.6365  -6.6251  -6.5054  -6.4977  -6.4063  -6.3942
    -6.1958  -6.1880  -6.0393  -6.0203  -5.9000  -5.8854  -5.8360  -5.8268
    -5.7015  -5.6896  -5.5848  -5.5799  -5.1633  -5.1525  -4.9492  -4.9485
    -4.5118  -4.4953  -4.4283  -4.4062  -4.0664  -4.0485  -3.8265  -3.8247
    -3.7068  -3.6819  -3.6516  -3.6132  -3.1995  -3.1845  -3.0598  -3.0530
    -0.7352  -0.7152  -0.3344  -0.3289  -0.2831  -0.2599  -0.2489  -0.2305
    -0.1348  -0.1146   0.0302   0.0564   0.1446   0.1634   0.2688   0.2879
     0.5540   0.5852   0.6436   0.6698   0.7283   0.7547   0.8255   0.8315
     0.8996   0.9106   0.9908   1.0278   1.2563   1.2597   1.2897   1.2959

     occupation numbers 
     1.0000   1.0000   1.0000   1.0000   1.0000   1.0000   1.0000   1.0000
     1.0000   1.0000   1.0000   1.0000   1.0000   1.0000   1.0000   1.0000
     1.0000   1.0000   1.0000   1.0000   1.0000   1.0000   1.0000   1.0000
     1.0000   1.0000   1.0000   1.0000   1.0000   1.0000   1.0000   1.0000
     1.0000   1.0000   1.0000   1.0000   1.0000   1.0000   1.0000   1.0000
     1.0000   1.0000   1.0000   1.0000   1.0000   1.0000   1.0000   1.0000
     1.0000   1.0000   1.0000   1.0000   1.0000   1.0000   1.0000   1.0000
     1.0000   1.0000   1.0000   1.0000   1.0000   1.0000   1.0000   1.0000
     1.0000   1.0000   1.0000   1.0000   1.0000   1.0000   1.0000   1.0000
     1.0000   1.0000   1.0000   1.0000   1.0000   1.0000   1.0000   1.0000
     1.0000   1.0000   1.0000   1.0000   1.0000   1.0000   1.0000   1.0000
     1.0000   1.0000   1.0000   1.0000   1.0000   1.0000   1.0000   1.0000
     1.0000   1.0000   1.0000   1.0000   1.0000   1.0000   1.0000   1.0000
     1.0000   1.0000   1.0000   1.0000   1.0000   1.0000   1.0000   1.0000

     highest occupied level (ev):     1.3543

!    total energy              =   -1282.04985129 Ry
     Harris-Foulkes estimate   =   -1282.04985159 Ry
     estimated scf accuracy    <       0.00000033 Ry

     total all-electron energy =     -4786.493599 Ry

     The total energy is the sum of the following terms:

     one-electron contribution =    -651.46926636 Ry
     hartree contribution      =     423.55936251 Ry
     xc contribution           =    -260.28962038 Ry
     ewald contribution        =    -463.45998747 Ry
     one-center paw contrib.   =    -330.39033959 Ry

     convergence has been achieved in  19 iterations

     Writing output data file scf.pbe-ec-220-kp444.HMX-792828-nofor.nostress.save

     init_run     :    360.59s CPU    409.69s WALL (       1 calls)
     electrons    :  11974.32s CPU  15103.01s WALL (       1 calls)

     Called by init_run:
     wfcinit      :    207.65s CPU    218.40s WALL (       1 calls)
     potinit      :     47.89s CPU     51.10s WALL (       1 calls)

     Called by electrons:
     c_bands      :  10067.87s CPU  12372.77s WALL (      19 calls)
     sum_band     :   1722.20s CPU   2360.15s WALL (      19 calls)
     v_of_rho     :     51.99s CPU     57.66s WALL (      20 calls)
     v_h          :      4.44s CPU      4.71s WALL (      20 calls)
     v_xc         :     47.55s CPU     52.94s WALL (      20 calls)
     newd         :     65.37s CPU    252.03s WALL (      20 calls)
     PAW_pot      :      6.12s CPU      6.37s WALL (      20 calls)
     mix_rho      :     40.85s CPU     44.51s WALL (      19 calls)

     Called by c_bands:
     init_us_2    :    101.58s CPU    105.29s WALL (     624 calls)
     cegterg      :   9631.57s CPU  11839.99s WALL (     304 calls)

     Called by sum_band:
     sum_band:bec :      0.42s CPU      0.46s WALL (     304 calls)
     addusdens    :    125.80s CPU    500.40s WALL (      19 calls)

     Called by *egterg:
     h_psi        :   6055.26s CPU   7536.70s WALL (    1553 calls)
     s_psi        :    752.30s CPU    580.34s WALL (    1553 calls)
     g_psi        :     11.52s CPU     16.41s WALL (    1233 calls)
     cdiaghg      :    494.70s CPU    497.31s WALL (    1537 calls)
     cegterg:over :    967.88s CPU   1048.06s WALL (    1233 calls)
     cegterg:upda :    780.06s CPU    574.62s WALL (    1233 calls)
     cegterg:last :    365.73s CPU    302.47s WALL (     336 calls)

     Called by h_psi:
     h_psi:vloc   :   4029.21s CPU   5525.80s WALL (    1553 calls)
     h_psi:vnl    :   1883.18s CPU   1859.23s WALL (    1553 calls)
     add_vuspsi   :    773.14s CPU    704.87s WALL (    1553 calls)

     General routines
     calbec       :   1416.42s CPU   1456.38s WALL (    1857 calls)
     fft          :     52.23s CPU     67.34s WALL (     316 calls)
     ffts         :      3.43s CPU      3.77s WALL (      39 calls)
     fftw         :   3234.09s CPU   4969.05s WALL (  243838 calls)
     interpolate  :     33.99s CPU     35.12s WALL (      39 calls)
     davcio       :      0.65s CPU    126.87s WALL (      16 calls)

     Parallel routines
     fft_scatter  :   1501.05s CPU   3231.62s WALL (  244193 calls)

     PAW routines
     PAW_pot      :      6.12s CPU      6.37s WALL (      20 calls)
     PAW_symme    :      0.06s CPU      0.14s WALL (      39 calls)

     PWSCF        :     3h25m CPU        4h21m WALL


   This run was terminated on:  20:20:44  22May2016            

=------------------------------------------------------------------------------=
   JOB DONE.
=------------------------------------------------------------------------------=
