
     Program PWSCF v.5.3.0 (svn rev. 11974) starts on 21Jul2016 at 20:47:11 

     This program is part of the open-source Quantum ESPRESSO suite
     for quantum simulation of materials; please cite
         "P. Giannozzi et al., J. Phys.:Condens. Matter 21 395502 (2009);
          URL http://www.quantum-espresso.org", 
     in publications or presentations arising from this work. More details at
     http://www.quantum-espresso.org/quote

     Parallel version (MPI), running on    32 processors
     R & G space division:  proc/nbgrp/npool/nimage =      32
     Waiting for input...
     Reading input from standard input
Warning: card     &CELL ignored
Warning: card CELL_DYNAMICS='BFGS' ignored
Warning: card / ignored

     Current dimensions of program PWSCF are:
     Max number of different atomic species (ntypx) = 10
     Max number of k-points (npk) =  40000
     Max angular momentum in pseudopotentials (lmaxx) =  3
               file N.pbe-n-kjpaw_psl.1.0.0.UPF: wavefunction(s)  2S renormalized
               file C.pbe-n-kjpaw_psl.1.0.0.UPF: wavefunction(s)  2S 2P renormalized
               file H.pbe-kjpaw_psl.1.0.0.UPF: wavefunction(s)  1S renormalized
               file O.pbe-n-kjpaw_psl.1.0.0.UPF: wavefunction(s)  2S 2P renormalized

     Subspace diagonalization in iterative solution of the eigenvalue problem:
     a serial algorithm will be used


     Parallelization info
     --------------------
     sticks:   dense  smooth     PW     G-vecs:    dense   smooth      PW
     Min         504     202     54                41009    10339    1430
     Max         505     203     55                41014    10397    1432
     Sum       16155    6475   1737              1312375   331997   45785


     Title: 
     HMX-relax--kp-4x2x4-ec-80-default-conv-thr                                 


     bravais-lattice index     =            0
     lattice parameter (alat)  =       1.8897  a.u.
     unit-cell volume          =    3434.3216 (a.u.)^3
     number of atoms/cell      =           56
     number of atomic types    =            4
     number of electrons       =       224.00
     number of Kohn-Sham states=          112
     kinetic-energy cutoff     =      80.0000  Ry
     charge density cutoff     =     800.0000  Ry
     convergence threshold     =      1.0E-06
     mixing beta               =       0.7000
     number of iterations used =            8  plain     mixing
     Exchange-correlation      =  SLA  PW   PBX  PBC ( 1  4  3  4 0 0)
     nstep                     =           50


     celldm(1)=   1.889726  celldm(2)=   0.000000  celldm(3)=   0.000000
     celldm(4)=   0.000000  celldm(5)=   0.000000  celldm(6)=   0.000000

     crystal axes: (cart. coord. in units of alat)
               a(1) = (   6.528800   0.000000   0.000000 )  
               a(2) = (   0.000000  10.886200   0.000000 )  
               a(3) = (  -1.569722   0.000000   7.160359 )  

     reciprocal axes: (cart. coord. in units 2 pi/alat)
               b(1) = (  0.153168 -0.000000  0.033578 )  
               b(2) = (  0.000000  0.091859 -0.000000 )  
               b(3) = (  0.000000  0.000000  0.139658 )  


     PseudoPot. # 1 for  N read from file:
     /users/majewski/.data/PSEUDOPOTENTIALS/N.pbe-n-kjpaw_psl.1.0.0.UPF
     MD5 check sum: c21df8f53e59d08c3548513d559cdda6
     Pseudo is Projector augmented-wave + core cor, Zval =  5.0
     Generated using "atomic" code by A. Dal Corso  v.5.3.0 svn rev. 11974
     Shape of augmentation charge: PSQ
     Using radial grid of 1085 points,  4 beta functions with: 
                l(1) =   0
                l(2) =   0
                l(3) =   1
                l(4) =   1
     Q(r) pseudized with 0 coefficients 


     PseudoPot. # 2 for  C read from file:
     /users/majewski/.data/PSEUDOPOTENTIALS/C.pbe-n-kjpaw_psl.1.0.0.UPF
     MD5 check sum: 2ba8448e293caca687844dde9a1b88a8
     Pseudo is Projector augmented-wave + core cor, Zval =  4.0
     Generated using "atomic" code by A. Dal Corso  v.5.3.0 svn rev. 11974
     Shape of augmentation charge: PSQ
     Using radial grid of 1073 points,  4 beta functions with: 
                l(1) =   0
                l(2) =   0
                l(3) =   1
                l(4) =   1
     Q(r) pseudized with 0 coefficients 


     PseudoPot. # 3 for  H read from file:
     /users/majewski/.data/PSEUDOPOTENTIALS/H.pbe-kjpaw_psl.1.0.0.UPF
     MD5 check sum: bc0feb48a24907a0b97fa6ee2d589a29
     Pseudo is Projector augmented-wave, Zval =  1.0
     Generated using "atomic" code by A. Dal Corso  v.5.3.0 svn rev. 11974
     Shape of augmentation charge: PSQ
     Using radial grid of  929 points,  2 beta functions with: 
                l(1) =   0
                l(2) =   0
     Q(r) pseudized with 0 coefficients 


     PseudoPot. # 4 for  O read from file:
     /users/majewski/.data/PSEUDOPOTENTIALS/O.pbe-n-kjpaw_psl.1.0.0.UPF
     MD5 check sum: 9c0ade6c043cf4a781bde3908a3a8206
     Pseudo is Projector augmented-wave + core cor, Zval =  6.0
     Generated using "atomic" code by A. Dal Corso  v.5.3.0 svn rev. 11974
     Shape of augmentation charge: PSQ
     Using radial grid of 1095 points,  4 beta functions with: 
                l(1) =   0
                l(2) =   0
                l(3) =   1
                l(4) =   1
     Q(r) pseudized with 0 coefficients 


     atomic species   valence    mass     pseudopotential
        N              5.00    14.00670      N( 1.00)
        C              4.00    12.01100      C( 1.00)
        H              1.00     1.00790      H( 1.00)
        O              6.00    15.99940      O( 1.00)

      2 Sym. Ops., with inversion, found
          (note:  2 additional sym.ops. were found but ignored
           their fractional translations are incommensurate with FFT grid)

                                    s                        frac. trans.

      isym =  1     identity                                     

 cryst.   s( 1) = (     1          0          0      )
                  (     0          1          0      )
                  (     0          0          1      )

 cart.    s( 1) = (  1.0000000  0.0000000 -0.0000000 )
                  (  0.0000000  1.0000000  0.0000000 )
                  (  0.0000000  0.0000000  1.0000000 )


      isym =  2     inversion                                    

 cryst.   s( 2) = (    -1          0          0      )
                  (     0         -1          0      )
                  (     0          0         -1      )

 cart.    s( 2) = ( -1.0000000  0.0000000  0.0000000 )
                  (  0.0000000 -1.0000000  0.0000000 )
                  (  0.0000000  0.0000000 -1.0000000 )


   Cartesian axes

     site n.     atom                  positions (alat units)
         1           N   tau(   1) = (  -0.8426245   6.7855862   3.2921181  )
         2           O   tau(   2) = (   1.0977498   7.8431805   3.1142548  )
         3           N   tau(   3) = (   0.0878624   7.6610544   3.7918395  )
         4           N   tau(   4) = (  -2.0432575   5.7306045   5.0613711  )
         5           O   tau(   5) = (  -3.2412146   4.6709418   6.6135221  )
         6           N   tau(   6) = (  -3.2299512   5.4696623   5.6821026  )
         7           O   tau(   7) = (  -0.1459332   8.1504979   4.8880905  )
         8           C   tau(   8) = (  -2.1183376   6.7096005   3.9540933  )
         9           H   tau(   9) = (  -2.8150805   6.4315670   3.3080857  )
        10           H   tau(  10) = (  -2.3643338   7.5996562   4.3105359  )
        11           O   tau(  11) = (  -4.2038894   6.1117304   5.2775424  )
        12           C   tau(  12) = (  -0.5824458   6.1523359   2.0058313  )
        13           H   tau(  13) = (  -1.4089366   5.7337615   1.7184861  )
        14           H   tau(  14) = (  -0.3166458   6.7940774   1.3282465  )
        15           H   tau(  15) = (   3.7326153  -1.3509774  -2.2519328  )
        16           H   tau(  16) = (   2.6403245  -0.2906615  -1.8616933  )
        17           C   tau(  17) = (   3.4668152  -0.7092359  -1.5743481  )
        18           O   tau(  18) = (  -0.1546283  -0.6686304   1.6973630  )
        19           H   tau(  19) = (   1.6849272  -2.1565562   0.7303566  )
        20           H   tau(  20) = (   1.2341806  -0.9884670  -0.2720936  )
        21           C   tau(  21) = (   1.9309234  -1.2665005   0.3739139  )
        22           O   tau(  22) = (   3.9033278  -2.7073979   1.3079111  )
        23           N   tau(  23) = (   0.8193099  -0.0265623   2.1019233  )
        24           O   tau(  24) = (   0.8080465   0.7721582   3.0333428  )
        25           N   tau(  25) = (   2.0060036  -0.2875045   1.4811918  )
        26           N   tau(  26) = (   4.1371235  -2.2179544   0.2116602  )
        27           O   tau(  27) = (   5.1470109  -2.4000805  -0.4659245  )
        28           N   tau(  28) = (   3.2066365  -1.3424862  -0.2880612  )
        29           H   tau(  29) = (  -1.2530763   4.0921226   5.8321122  )
        30           H   tau(  30) = (  -0.1607855   5.1524385   5.4418726  )
        31           C   tau(  31) = (  -0.9872763   4.7338641   5.1545274  )
        32           O   tau(  32) = (   2.6341672   4.7744696   1.8828163  )
        33           H   tau(  33) = (   0.7946117   3.2865438   2.8498228  )
        34           H   tau(  34) = (   1.2453584   4.4546330   3.8522730  )
        35           C   tau(  35) = (   0.5486155   4.1765995   3.2062654  )
        36           O   tau(  36) = (  -1.4237889   2.7357021   2.2722682  )
        37           N   tau(  37) = (   1.6602291   5.4165377   1.4782561  )
        38           O   tau(  38) = (   1.6714925   6.2152582   0.5468366  )
        39           N   tau(  39) = (   0.4735353   5.1555955   2.0989875  )
        40           N   tau(  40) = (  -1.6575845   3.2251456   3.3685191  )
        41           O   tau(  41) = (  -2.6674719   3.0430195   4.0461039  )
        42           N   tau(  42) = (  -0.7270976   4.1006138   3.8682406  )
        43           H   tau(  43) = (   2.7961847   1.3509774   2.2519328  )
        44           H   tau(  44) = (   3.8884755   0.2906615   1.8616933  )
        45           C   tau(  45) = (   3.0619848   0.7092359   1.5743481  )
        46           O   tau(  46) = (   6.6834283   0.6686304  -1.6973630  )
        47           H   tau(  47) = (   4.8438728   2.1565562  -0.7303566  )
        48           H   tau(  48) = (   5.2946194   0.9884670   0.2720936  )
        49           C   tau(  49) = (   4.5978766   1.2665005  -0.3739139  )
        50           O   tau(  50) = (   2.6254722   2.7073979  -1.3079111  )
        51           N   tau(  51) = (   5.7094901   0.0265623  -2.1019233  )
        52           O   tau(  52) = (   5.7207535  -0.7721582  -3.0333428  )
        53           N   tau(  53) = (   4.5227964   0.2875045  -1.4811918  )
        54           N   tau(  54) = (   2.3916765   2.2179544  -0.2116602  )
        55           O   tau(  55) = (   1.3817891   2.4000805   0.4659245  )
        56           N   tau(  56) = (   3.3221635   1.3424862   0.2880612  )

   Crystallographic axes

     site n.     atom                  positions (cryst. coord.)
         1           N   tau(   1) = ( -0.0185200  0.6233200  0.4597700  )
         2           O   tau(   2) = (  0.2727100  0.7204700  0.4349300  )
         3           N   tau(   3) = (  0.1407800  0.7037400  0.5295600  )
         4           N   tau(   4) = ( -0.1430100  0.5264100  0.7068600  )
         5           O   tau(   5) = ( -0.2743800  0.4290700  0.9236300  )
         6           N   tau(   6) = ( -0.3039300  0.5024400  0.7935500  )
         7           O   tau(   7) = (  0.1417800  0.7487000  0.6826600  )
         8           C   tau(   8) = ( -0.1916900  0.6163400  0.5522200  )
         9           H   tau(   9) = ( -0.3201000  0.5908000  0.4620000  )
        10           H   tau(  10) = ( -0.2174000  0.6981000  0.6020000  )
        11           O   tau(  11) = ( -0.4666900  0.5614200  0.7370500  )
        12           C   tau(  12) = ( -0.0218600  0.5651500  0.2801300  )
        13           H   tau(  13) = ( -0.1581000  0.5267000  0.2400000  )
        14           H   tau(  14) = ( -0.0039000  0.6241000  0.1855000  )
        15           H   tau(  15) = (  0.4961000 -0.1241000 -0.3145000  )
        16           H   tau(  16) = (  0.3419000 -0.0267000 -0.2600000  )
        17           C   tau(  17) = (  0.4781400 -0.0651500 -0.2198700  )
        18           O   tau(  18) = (  0.0333100 -0.0614200  0.2370500  )
        19           H   tau(  19) = (  0.2826000 -0.1981000  0.1020000  )
        20           H   tau(  20) = (  0.1799000 -0.0908000 -0.0380000  )
        21           C   tau(  21) = (  0.3083100 -0.1163400  0.0522200  )
        22           O   tau(  22) = (  0.6417800 -0.2487000  0.1826600  )
        23           N   tau(  23) = (  0.1960700 -0.0024400  0.2935500  )
        24           O   tau(  24) = (  0.2256200  0.0709300  0.4236300  )
        25           N   tau(  25) = (  0.3569900 -0.0264100  0.2068600  )
        26           N   tau(  26) = (  0.6407800 -0.2037400  0.0295600  )
        27           O   tau(  27) = (  0.7727100 -0.2204700 -0.0650700  )
        28           N   tau(  28) = (  0.4814800 -0.1233200 -0.0402300  )
        29           H   tau(  29) = (  0.0039000  0.3759000  0.8145000  )
        30           H   tau(  30) = (  0.1581000  0.4733000  0.7600000  )
        31           C   tau(  31) = (  0.0218600  0.4348500  0.7198700  )
        32           O   tau(  32) = (  0.4666900  0.4385800  0.2629500  )
        33           H   tau(  33) = (  0.2174000  0.3019000  0.3980000  )
        34           H   tau(  34) = (  0.3201000  0.4092000  0.5380000  )
        35           C   tau(  35) = (  0.1916900  0.3836600  0.4477800  )
        36           O   tau(  36) = ( -0.1417800  0.2513000  0.3173400  )
        37           N   tau(  37) = (  0.3039300  0.4975600  0.2064500  )
        38           O   tau(  38) = (  0.2743800  0.5709300  0.0763700  )
        39           N   tau(  39) = (  0.1430100  0.4735900  0.2931400  )
        40           N   tau(  40) = ( -0.1407800  0.2962600  0.4704400  )
        41           O   tau(  41) = ( -0.2727100  0.2795300  0.5650700  )
        42           N   tau(  42) = (  0.0185200  0.3766800  0.5402300  )
        43           H   tau(  43) = (  0.5039000  0.1241000  0.3145000  )
        44           H   tau(  44) = (  0.6581000  0.0267000  0.2600000  )
        45           C   tau(  45) = (  0.5218600  0.0651500  0.2198700  )
        46           O   tau(  46) = (  0.9666900  0.0614200 -0.2370500  )
        47           H   tau(  47) = (  0.7174000  0.1981000 -0.1020000  )
        48           H   tau(  48) = (  0.8201000  0.0908000  0.0380000  )
        49           C   tau(  49) = (  0.6916900  0.1163400 -0.0522200  )
        50           O   tau(  50) = (  0.3582200  0.2487000 -0.1826600  )
        51           N   tau(  51) = (  0.8039300  0.0024400 -0.2935500  )
        52           O   tau(  52) = (  0.7743800 -0.0709300 -0.4236300  )
        53           N   tau(  53) = (  0.6430100  0.0264100 -0.2068600  )
        54           N   tau(  54) = (  0.3592200  0.2037400 -0.0295600  )
        55           O   tau(  55) = (  0.2272900  0.2204700  0.0650700  )
        56           N   tau(  56) = (  0.5185200  0.1233200  0.0402300  )

     number of k points=    16
                       cart. coord. in units 2pi/alat
        k(    1) = (   0.0191459   0.0229649   0.0216545), wk =   0.1250000
        k(    2) = (   0.0191459   0.0229649   0.0565689), wk =   0.1250000
        k(    3) = (   0.0191459   0.0229649  -0.0481744), wk =   0.1250000
        k(    4) = (   0.0191459   0.0229649  -0.0132600), wk =   0.1250000
        k(    5) = (   0.0574378   0.0229649   0.0300490), wk =   0.1250000
        k(    6) = (   0.0574378   0.0229649   0.0649634), wk =   0.1250000
        k(    7) = (   0.0574378   0.0229649  -0.0397799), wk =   0.1250000
        k(    8) = (   0.0574378   0.0229649  -0.0048655), wk =   0.1250000
        k(    9) = (  -0.0191459   0.0229649  -0.0216545), wk =   0.1250000
        k(   10) = (  -0.0191459   0.0229649  -0.0565689), wk =   0.1250000
        k(   11) = (  -0.0191459   0.0229649   0.0481744), wk =   0.1250000
        k(   12) = (  -0.0191459   0.0229649   0.0132600), wk =   0.1250000
        k(   13) = (  -0.0574378   0.0229649  -0.0300490), wk =   0.1250000
        k(   14) = (  -0.0574378   0.0229649  -0.0649634), wk =   0.1250000
        k(   15) = (  -0.0574378   0.0229649   0.0397799), wk =   0.1250000
        k(   16) = (  -0.0574378   0.0229649   0.0048655), wk =   0.1250000

                       cryst. coord.
        k(    1) = (   0.1250000   0.2500000   0.1250000), wk =   0.1250000
        k(    2) = (   0.1250000   0.2500000   0.3750000), wk =   0.1250000
        k(    3) = (   0.1250000   0.2500000  -0.3750000), wk =   0.1250000
        k(    4) = (   0.1250000   0.2500000  -0.1250000), wk =   0.1250000
        k(    5) = (   0.3750000   0.2500000   0.1250000), wk =   0.1250000
        k(    6) = (   0.3750000   0.2500000   0.3750000), wk =   0.1250000
        k(    7) = (   0.3750000   0.2500000  -0.3750000), wk =   0.1250000
        k(    8) = (   0.3750000   0.2500000  -0.1250000), wk =   0.1250000
        k(    9) = (  -0.1250000   0.2500000  -0.1250000), wk =   0.1250000
        k(   10) = (  -0.1250000   0.2500000  -0.3750000), wk =   0.1250000
        k(   11) = (  -0.1250000   0.2500000   0.3750000), wk =   0.1250000
        k(   12) = (  -0.1250000   0.2500000   0.1250000), wk =   0.1250000
        k(   13) = (  -0.3750000   0.2500000  -0.1250000), wk =   0.1250000
        k(   14) = (  -0.3750000   0.2500000  -0.3750000), wk =   0.1250000
        k(   15) = (  -0.3750000   0.2500000   0.3750000), wk =   0.1250000
        k(   16) = (  -0.3750000   0.2500000   0.1250000), wk =   0.1250000

     Dense  grid:  1312375 G-vectors     FFT dimensions: ( 120, 192, 125)

     Smooth grid:   331997 G-vectors     FFT dimensions: (  72, 120,  80)

     Largest allocated arrays     est. size (Mb)     dimensions
        Kohn-Sham Wavefunctions         2.23 Mb     (    1306,  112)
        NL pseudopotentials             7.01 Mb     (    1306,  352)
        Each V/rho on FFT grid          1.41 Mb     (   92160)
        Each G-vector array             0.31 Mb     (   41012)
        G-vector shells                 0.30 Mb     (   39829)
     Largest temporary arrays     est. size (Mb)     dimensions
        Auxiliary wavefunctions         8.93 Mb     (    1306,  448)
        Each subspace H/S matrix        3.06 Mb     (     448,  448)
        Each <psi_i|beta_j> matrix      0.60 Mb     (     352,  112)
        Arrays for rho mixing          11.25 Mb     (   92160,    8)

     Initial potential from superposition of free atoms

     starting charge  223.99937, renormalised to  224.00000
     Starting wfc are  176 randomized atomic wfcs
     Checking if some PAW data can be deallocated... 
       node    0, deallocated PAW data for type:  2
       node    0, deallocated PAW data for type:  3
       node    1, deallocated PAW data for type:  2
       node    1, deallocated PAW data for type:  3
       node    1, deallocated PAW data for type:  4
       node    2, deallocated PAW data for type:  2
       node    2, deallocated PAW data for type:  3
       node    3, deallocated PAW data for type:  1
       node    3, deallocated PAW data for type:  3
       node    4, deallocated PAW data for type:  1
       node    4, deallocated PAW data for type:  2
       node    4, deallocated PAW data for type:  4
       node    5, deallocated PAW data for type:  1
       node    5, deallocated PAW data for type:  3
       node    6, deallocated PAW data for type:  1
       node    6, deallocated PAW data for type:  2
       node    6, deallocated PAW data for type:  4
       node    7, deallocated PAW data for type:  1
       node    7, deallocated PAW data for type:  2
       node    7, deallocated PAW data for type:  4
       node    8, deallocated PAW data for type:  1
       node    8, deallocated PAW data for type:  3
       node    9, deallocated PAW data for type:  1
       node    9, deallocated PAW data for type:  2
       node    9, deallocated PAW data for type:  4
       node   10, deallocated PAW data for type:  1
       node   10, deallocated PAW data for type:  3
       node   11, deallocated PAW data for type:  2
       node   11, deallocated PAW data for type:  3
       node   12, deallocated PAW data for type:  2
       node   12, deallocated PAW data for type:  3
       node   12, deallocated PAW data for type:  4
       node   13, deallocated PAW data for type:  2
       node   13, deallocated PAW data for type:  3
       node   14, deallocated PAW data for type:  1
       node   14, deallocated PAW data for type:  2
       node   14, deallocated PAW data for type:  4
       node   15, deallocated PAW data for type:  1
       node   15, deallocated PAW data for type:  3
       node   16, deallocated PAW data for type:  1
       node   16, deallocated PAW data for type:  2
       node   16, deallocated PAW data for type:  4
       node   17, deallocated PAW data for type:  1
       node   17, deallocated PAW data for type:  3
       node   18, deallocated PAW data for type:  2
       node   18, deallocated PAW data for type:  3
       node   19, deallocated PAW data for type:  2
       node   19, deallocated PAW data for type:  3
       node   19, deallocated PAW data for type:  4
       node   20, deallocated PAW data for type:  2
       node   20, deallocated PAW data for type:  3
       node   21, deallocated PAW data for type:  1
       node   21, deallocated PAW data for type:  2
       node   21, deallocated PAW data for type:  4
       node   22, deallocated PAW data for type:  1
       node   22, deallocated PAW data for type:  3
       node   23, deallocated PAW data for type:  1
       node   23, deallocated PAW data for type:  2
       node   23, deallocated PAW data for type:  4
       node   24, deallocated PAW data for type:  1
       node   24, deallocated PAW data for type:  3
       node   24, deallocated PAW data for type:  4
       node   25, deallocated PAW data for type:  1
       node   25, deallocated PAW data for type:  2
       node   25, deallocated PAW data for type:  3
       node   26, deallocated PAW data for type:  2
       node   26, deallocated PAW data for type:  3
       node   26, deallocated PAW data for type:  4
       node   27, deallocated PAW data for type:  1
       node   27, deallocated PAW data for type:  2
       node   27, deallocated PAW data for type:  3
       node   28, deallocated PAW data for type:  2
       node   28, deallocated PAW data for type:  3
       node   28, deallocated PAW data for type:  4
       node   29, deallocated PAW data for type:  2
       node   29, deallocated PAW data for type:  3
       node   29, deallocated PAW data for type:  4
       node   30, deallocated PAW data for type:  1
       node   30, deallocated PAW data for type:  2
       node   30, deallocated PAW data for type:  3
       node   31, deallocated PAW data for type:  2
       node   31, deallocated PAW data for type:  3
       node   31, deallocated PAW data for type:  4

     total cpu time spent up to now is       95.7 secs

     per-process dynamical memory:    80.7 Mb

     Self-consistent Calculation

     iteration #  1     ecut=    80.00 Ry     beta=0.70
     Davidson diagonalization with overlap
     ethr =  1.00E-02,  avg # of iterations =  3.0

     total cpu time spent up to now is      254.9 secs

     total energy              =   -1279.66349168 Ry
     Harris-Foulkes estimate   =   -1283.96889324 Ry
     estimated scf accuracy    <       6.62994967 Ry

     iteration #  2     ecut=    80.00 Ry     beta=0.70
     Davidson diagonalization with overlap
     ethr =  2.96E-03,  avg # of iterations =  4.0

     total cpu time spent up to now is      439.5 secs

     total energy              =   -1280.31385719 Ry
     Harris-Foulkes estimate   =   -1283.86125098 Ry
     estimated scf accuracy    <       7.19948972 Ry

     iteration #  3     ecut=    80.00 Ry     beta=0.70
     Davidson diagonalization with overlap
     ethr =  2.96E-03,  avg # of iterations =  4.3

     total cpu time spent up to now is      590.1 secs

     total energy              =   -1281.84994053 Ry
     Harris-Foulkes estimate   =   -1282.09456465 Ry
     estimated scf accuracy    <       0.45583922 Ry

     iteration #  4     ecut=    80.00 Ry     beta=0.70
     Davidson diagonalization with overlap
     ethr =  2.03E-04,  avg # of iterations =  5.0

     total cpu time spent up to now is      770.5 secs

     total energy              =   -1281.99410515 Ry
     Harris-Foulkes estimate   =   -1282.09206917 Ry
     estimated scf accuracy    <       0.22171177 Ry

     iteration #  5     ecut=    80.00 Ry     beta=0.70
     Davidson diagonalization with overlap
     ethr =  9.90E-05,  avg # of iterations =  4.0

     total cpu time spent up to now is      929.2 secs

     total energy              =   -1282.03827020 Ry
     Harris-Foulkes estimate   =   -1282.04714749 Ry
     estimated scf accuracy    <       0.02146535 Ry

     iteration #  6     ecut=    80.00 Ry     beta=0.70
     Davidson diagonalization with overlap
     ethr =  9.58E-06,  avg # of iterations =  7.7

     total cpu time spent up to now is     1076.6 secs

     total energy              =   -1282.04192437 Ry
     Harris-Foulkes estimate   =   -1282.04370957 Ry
     estimated scf accuracy    <       0.00400778 Ry

     iteration #  7     ecut=    80.00 Ry     beta=0.70
     Davidson diagonalization with overlap
     ethr =  1.79E-06,  avg # of iterations =  4.2

     total cpu time spent up to now is     1229.7 secs

     total energy              =   -1282.04348022 Ry
     Harris-Foulkes estimate   =   -1282.04369925 Ry
     estimated scf accuracy    <       0.00046036 Ry

     iteration #  8     ecut=    80.00 Ry     beta=0.70
     Davidson diagonalization with overlap
     ethr =  2.06E-07,  avg # of iterations =  5.0

     total cpu time spent up to now is     1385.1 secs

     total energy              =   -1282.04357813 Ry
     Harris-Foulkes estimate   =   -1282.04368024 Ry
     estimated scf accuracy    <       0.00026479 Ry

     iteration #  9     ecut=    80.00 Ry     beta=0.70
     Davidson diagonalization with overlap
     ethr =  1.18E-07,  avg # of iterations =  2.0

     total cpu time spent up to now is     1488.8 secs

     total energy              =   -1282.04354351 Ry
     Harris-Foulkes estimate   =   -1282.04359061 Ry
     estimated scf accuracy    <       0.00008737 Ry

     iteration # 10     ecut=    80.00 Ry     beta=0.70
     Davidson diagonalization with overlap
     ethr =  3.90E-08,  avg # of iterations =  5.0

     total cpu time spent up to now is     1700.3 secs

     total energy              =   -1282.04364453 Ry
     Harris-Foulkes estimate   =   -1282.04370483 Ry
     estimated scf accuracy    <       0.00037764 Ry

     iteration # 11     ecut=    80.00 Ry     beta=0.70
     Davidson diagonalization with overlap
     ethr =  3.90E-08,  avg # of iterations =  1.0

     total cpu time spent up to now is     1794.2 secs

     total energy              =   -1282.04353594 Ry
     Harris-Foulkes estimate   =   -1282.04364615 Ry
     estimated scf accuracy    <       0.00027821 Ry

     iteration # 12     ecut=    80.00 Ry     beta=0.70
     Davidson diagonalization with overlap
     ethr =  3.90E-08,  avg # of iterations =  5.0

     total cpu time spent up to now is     1993.9 secs

     total energy              =   -1282.04363126 Ry
     Harris-Foulkes estimate   =   -1282.04364704 Ry
     estimated scf accuracy    <       0.00007759 Ry

     iteration # 13     ecut=    80.00 Ry     beta=0.70
     Davidson diagonalization with overlap
     ethr =  3.46E-08,  avg # of iterations =  1.0

     total cpu time spent up to now is     2088.6 secs

     total energy              =   -1282.04362124 Ry
     Harris-Foulkes estimate   =   -1282.04363180 Ry
     estimated scf accuracy    <       0.00005223 Ry

     iteration # 14     ecut=    80.00 Ry     beta=0.70
     Davidson diagonalization with overlap
     ethr =  2.33E-08,  avg # of iterations =  5.0

     total cpu time spent up to now is     2218.7 secs

     End of self-consistent calculation

          k = 0.0191 0.0230 0.0217 ( 41493 PWs)   bands (ev):

   -23.8351 -23.8179 -23.8001 -23.7934 -23.5082 -23.4995 -23.4979 -23.4968
   -19.0559 -19.0525 -19.0406 -19.0314 -18.7216 -18.7210 -18.7175 -18.7164
   -18.1475 -18.1258 -17.1140 -17.0725 -16.9743 -16.9716 -15.9579 -15.9477
   -12.0028 -11.9863 -11.9732 -11.9060 -11.7991 -11.7452 -11.6600 -11.6437
    -8.7972  -8.7660  -8.1725  -8.1427  -7.4608  -7.4246  -7.3341  -7.3302
    -6.7626  -6.6781  -6.4990  -6.4223  -6.4060  -6.3405  -6.2588  -6.1991
    -6.0513  -6.0166  -5.9430  -5.8574  -5.8079  -5.7380  -5.6652  -5.6345
    -5.5380  -5.5148  -5.4505  -5.4121  -5.0414  -4.9368  -4.8719  -4.8467
    -4.3694  -4.3546  -4.3013  -4.2664  -4.1219  -4.0310  -3.7861  -3.7738
    -3.5890  -3.4807  -3.4025  -3.3662  -3.0723  -3.0424  -2.9379  -2.9237
    -0.7143  -0.7113  -0.2354  -0.2250  -0.1426  -0.0930  -0.0309  -0.0181
     0.0859   0.1021   0.2614   0.2841   0.3108   0.3302   0.4665   0.4702
     0.4966   0.5369   0.7111   0.7630   0.8419   0.8795   0.9657   1.0014
     1.0101   1.0994   1.1544   1.1989   1.2958   1.4057   1.4446   1.4597

     occupation numbers 
     1.0000   1.0000   1.0000   1.0000   1.0000   1.0000   1.0000   1.0000
     1.0000   1.0000   1.0000   1.0000   1.0000   1.0000   1.0000   1.0000
     1.0000   1.0000   1.0000   1.0000   1.0000   1.0000   1.0000   1.0000
     1.0000   1.0000   1.0000   1.0000   1.0000   1.0000   1.0000   1.0000
     1.0000   1.0000   1.0000   1.0000   1.0000   1.0000   1.0000   1.0000
     1.0000   1.0000   1.0000   1.0000   1.0000   1.0000   1.0000   1.0000
     1.0000   1.0000   1.0000   1.0000   1.0000   1.0000   1.0000   1.0000
     1.0000   1.0000   1.0000   1.0000   1.0000   1.0000   1.0000   1.0000
     1.0000   1.0000   1.0000   1.0000   1.0000   1.0000   1.0000   1.0000
     1.0000   1.0000   1.0000   1.0000   1.0000   1.0000   1.0000   1.0000
     1.0000   1.0000   1.0000   1.0000   1.0000   1.0000   1.0000   1.0000
     1.0000   1.0000   1.0000   1.0000   1.0000   1.0000   1.0000   1.0000
     1.0000   1.0000   1.0000   1.0000   1.0000   1.0000   1.0000   1.0000
     1.0000   1.0000   1.0000   1.0000   1.0000   1.0000   1.0000   1.0000

          k = 0.0191 0.0230 0.0566 ( 41493 PWs)   bands (ev):

   -23.8277 -23.8204 -23.7991 -23.7981 -23.5094 -23.5066 -23.4955 -23.4923
   -19.0545 -19.0514 -19.0417 -19.0345 -18.7276 -18.7270 -18.7121 -18.7104
   -18.1381 -18.1376 -17.0940 -17.0921 -16.9695 -16.9672 -15.9549 -15.9531
   -11.9929 -11.9859 -11.9526 -11.9338 -11.7735 -11.7611 -11.6709 -11.6621
    -8.7776  -8.7487  -8.1562  -8.1355  -7.4681  -7.4269  -7.3071  -7.2425
    -6.8128  -6.7218  -6.4938  -6.4647  -6.4315  -6.3441  -6.3021  -6.2676
    -6.0762  -6.0411  -5.8821  -5.8047  -5.7925  -5.7343  -5.7089  -5.6743
    -5.6125  -5.5544  -5.3867  -5.3450  -5.0345  -4.9642  -4.8637  -4.8206
    -4.3099  -4.2949  -4.2508  -4.1961  -4.0515  -4.0264  -3.9020  -3.8994
    -3.5686  -3.5210  -3.3448  -3.3352  -3.1000  -3.0940  -2.9250  -2.9030
    -0.6753  -0.6523  -0.2488  -0.2351  -0.1524  -0.1133  -0.0645  -0.0409
     0.0159   0.0451   0.1831   0.2256   0.3165   0.3631   0.4168   0.4361
     0.6284   0.6757   0.7395   0.7719   0.8627   0.8835   0.9108   0.9677
     1.0623   1.1030   1.1882   1.2040   1.3062   1.3656   1.4444   1.4641

     occupation numbers 
     1.0000   1.0000   1.0000   1.0000   1.0000   1.0000   1.0000   1.0000
     1.0000   1.0000   1.0000   1.0000   1.0000   1.0000   1.0000   1.0000
     1.0000   1.0000   1.0000   1.0000   1.0000   1.0000   1.0000   1.0000
     1.0000   1.0000   1.0000   1.0000   1.0000   1.0000   1.0000   1.0000
     1.0000   1.0000   1.0000   1.0000   1.0000   1.0000   1.0000   1.0000
     1.0000   1.0000   1.0000   1.0000   1.0000   1.0000   1.0000   1.0000
     1.0000   1.0000   1.0000   1.0000   1.0000   1.0000   1.0000   1.0000
     1.0000   1.0000   1.0000   1.0000   1.0000   1.0000   1.0000   1.0000
     1.0000   1.0000   1.0000   1.0000   1.0000   1.0000   1.0000   1.0000
     1.0000   1.0000   1.0000   1.0000   1.0000   1.0000   1.0000   1.0000
     1.0000   1.0000   1.0000   1.0000   1.0000   1.0000   1.0000   1.0000
     1.0000   1.0000   1.0000   1.0000   1.0000   1.0000   1.0000   1.0000
     1.0000   1.0000   1.0000   1.0000   1.0000   1.0000   1.0000   1.0000
     1.0000   1.0000   1.0000   1.0000   1.0000   1.0000   1.0000   1.0000

          k = 0.0191 0.0230-0.0482 ( 41512 PWs)   bands (ev):

   -23.8288 -23.8203 -23.8016 -23.7946 -23.5110 -23.5084 -23.4927 -23.4916
   -19.0521 -19.0513 -19.0397 -19.0393 -18.7288 -18.7286 -18.7105 -18.7091
   -18.1476 -18.1268 -17.1119 -17.0732 -16.9722 -16.9715 -15.9567 -15.9440
   -12.0151 -11.9906 -11.9659 -11.9113 -11.7863 -11.7363 -11.6708 -11.6641
    -8.7812  -8.7144  -8.1461  -8.1423  -7.4656  -7.4536  -7.3148  -7.2218
    -6.8188  -6.7283  -6.5099  -6.4593  -6.4182  -6.3861  -6.3209  -6.2921
    -6.0777  -6.0535  -5.8801  -5.8425  -5.7379  -5.7020  -5.6892  -5.6619
    -5.6121  -5.5480  -5.3836  -5.3314  -5.0507  -4.9707  -4.8458  -4.8003
    -4.3471  -4.2893  -4.2241  -4.1765  -4.0801  -4.0577  -3.9054  -3.8580
    -3.5667  -3.5276  -3.3891  -3.3221  -3.1046  -3.0815  -2.9230  -2.9112
    -0.6037  -0.5586  -0.2420  -0.2316  -0.1933  -0.1662  -0.1054  -0.0816
    -0.0204  -0.0084   0.1520   0.2163   0.3351   0.3669   0.3811   0.4276
     0.6707   0.7352   0.7818   0.7953   0.8303   0.9046   0.9345   0.9554
     1.0693   1.1047   1.2016   1.2420   1.3051   1.3301   1.4327   1.4508

     occupation numbers 
     1.0000   1.0000   1.0000   1.0000   1.0000   1.0000   1.0000   1.0000
     1.0000   1.0000   1.0000   1.0000   1.0000   1.0000   1.0000   1.0000
     1.0000   1.0000   1.0000   1.0000   1.0000   1.0000   1.0000   1.0000
     1.0000   1.0000   1.0000   1.0000   1.0000   1.0000   1.0000   1.0000
     1.0000   1.0000   1.0000   1.0000   1.0000   1.0000   1.0000   1.0000
     1.0000   1.0000   1.0000   1.0000   1.0000   1.0000   1.0000   1.0000
     1.0000   1.0000   1.0000   1.0000   1.0000   1.0000   1.0000   1.0000
     1.0000   1.0000   1.0000   1.0000   1.0000   1.0000   1.0000   1.0000
     1.0000   1.0000   1.0000   1.0000   1.0000   1.0000   1.0000   1.0000
     1.0000   1.0000   1.0000   1.0000   1.0000   1.0000   1.0000   1.0000
     1.0000   1.0000   1.0000   1.0000   1.0000   1.0000   1.0000   1.0000
     1.0000   1.0000   1.0000   1.0000   1.0000   1.0000   1.0000   1.0000
     1.0000   1.0000   1.0000   1.0000   1.0000   1.0000   1.0000   1.0000
     1.0000   1.0000   1.0000   1.0000   1.0000   1.0000   1.0000   1.0000

          k = 0.0191 0.0230-0.0133 ( 41539 PWs)   bands (ev):

   -23.8356 -23.8185 -23.8006 -23.7918 -23.5105 -23.5033 -23.4947 -23.4938
   -19.0547 -19.0512 -19.0410 -19.0338 -18.7247 -18.7246 -18.7135 -18.7134
   -18.1511 -18.1209 -17.1212 -17.0643 -16.9773 -16.9756 -15.9573 -15.9411
   -12.0257 -11.9940 -11.9675 -11.9014 -11.7958 -11.7345 -11.6593 -11.6453
    -8.8024  -8.7300  -8.1669  -8.1455  -7.4673  -7.4458  -7.3585  -7.2927
    -6.7292  -6.7082  -6.5159  -6.4251  -6.4091  -6.3689  -6.2900  -6.2353
    -6.0583  -6.0236  -5.9086  -5.8672  -5.7680  -5.7333  -5.6375  -5.6261
    -5.5437  -5.5119  -5.4269  -5.4151  -5.0278  -4.9779  -4.8466  -4.8165
    -4.3700  -4.3612  -4.3016  -4.2690  -4.1357  -4.0391  -3.7902  -3.7429
    -3.6045  -3.4896  -3.4138  -3.3672  -3.0789  -3.0366  -2.9331  -2.9318
    -0.6621  -0.6451  -0.2248  -0.2130  -0.1473  -0.1032  -0.0381  -0.0177
    -0.0052   0.0355   0.1619   0.2164   0.2751   0.3425   0.4144   0.4707
     0.6366   0.6806   0.7015   0.7905   0.8222   0.8849   0.9828   0.9915
     1.0287   1.0835   1.1799   1.2271   1.2833   1.3861   1.4308   1.4490

     occupation numbers 
     1.0000   1.0000   1.0000   1.0000   1.0000   1.0000   1.0000   1.0000
     1.0000   1.0000   1.0000   1.0000   1.0000   1.0000   1.0000   1.0000
     1.0000   1.0000   1.0000   1.0000   1.0000   1.0000   1.0000   1.0000
     1.0000   1.0000   1.0000   1.0000   1.0000   1.0000   1.0000   1.0000
     1.0000   1.0000   1.0000   1.0000   1.0000   1.0000   1.0000   1.0000
     1.0000   1.0000   1.0000   1.0000   1.0000   1.0000   1.0000   1.0000
     1.0000   1.0000   1.0000   1.0000   1.0000   1.0000   1.0000   1.0000
     1.0000   1.0000   1.0000   1.0000   1.0000   1.0000   1.0000   1.0000
     1.0000   1.0000   1.0000   1.0000   1.0000   1.0000   1.0000   1.0000
     1.0000   1.0000   1.0000   1.0000   1.0000   1.0000   1.0000   1.0000
     1.0000   1.0000   1.0000   1.0000   1.0000   1.0000   1.0000   1.0000
     1.0000   1.0000   1.0000   1.0000   1.0000   1.0000   1.0000   1.0000
     1.0000   1.0000   1.0000   1.0000   1.0000   1.0000   1.0000   1.0000
     1.0000   1.0000   1.0000   1.0000   1.0000   1.0000   1.0000   1.0000

          k = 0.0574 0.0230 0.0300 ( 41492 PWs)   bands (ev):

   -23.8251 -23.8174 -23.7998 -23.7991 -23.5068 -23.5039 -23.4995 -23.4964
   -19.0541 -19.0515 -19.0425 -19.0354 -18.7254 -18.7245 -18.7149 -18.7135
   -18.1433 -18.1429 -17.0932 -17.0917 -16.9729 -16.9713 -15.9555 -15.9535
   -11.9804 -11.9774 -11.9171 -11.9021 -11.7471 -11.7294 -11.6735 -11.6586
    -8.7981  -8.7715  -8.1718  -8.1531  -7.4569  -7.4318  -7.4005  -7.3558
    -6.8966  -6.8492  -6.5540  -6.4611  -6.3625  -6.3244  -6.1894  -6.1390
    -6.1160  -6.0614  -5.9055  -5.8560  -5.7959  -5.7546  -5.6713  -5.6359
    -5.5379  -5.5156  -5.4534  -5.4367  -5.0564  -4.9673  -4.8337  -4.8292
    -4.3451  -4.3235  -4.2753  -4.2386  -3.9250  -3.8813  -3.7249  -3.6866
    -3.6290  -3.5314  -3.4759  -3.4653  -3.0706  -3.0666  -2.9430  -2.9166
    -0.6643  -0.6581  -0.2150  -0.2090  -0.1481  -0.1224  -0.0315   0.0049
     0.0160   0.0441   0.1941   0.2256   0.2790   0.3034   0.4380   0.4556
     0.6670   0.6738   0.7280   0.7745   0.8563   0.8644   0.9602   0.9894
     1.0241   1.0743   1.1012   1.1376   1.3614   1.3876   1.4215   1.4517

     occupation numbers 
     1.0000   1.0000   1.0000   1.0000   1.0000   1.0000   1.0000   1.0000
     1.0000   1.0000   1.0000   1.0000   1.0000   1.0000   1.0000   1.0000
     1.0000   1.0000   1.0000   1.0000   1.0000   1.0000   1.0000   1.0000
     1.0000   1.0000   1.0000   1.0000   1.0000   1.0000   1.0000   1.0000
     1.0000   1.0000   1.0000   1.0000   1.0000   1.0000   1.0000   1.0000
     1.0000   1.0000   1.0000   1.0000   1.0000   1.0000   1.0000   1.0000
     1.0000   1.0000   1.0000   1.0000   1.0000   1.0000   1.0000   1.0000
     1.0000   1.0000   1.0000   1.0000   1.0000   1.0000   1.0000   1.0000
     1.0000   1.0000   1.0000   1.0000   1.0000   1.0000   1.0000   1.0000
     1.0000   1.0000   1.0000   1.0000   1.0000   1.0000   1.0000   1.0000
     1.0000   1.0000   1.0000   1.0000   1.0000   1.0000   1.0000   1.0000
     1.0000   1.0000   1.0000   1.0000   1.0000   1.0000   1.0000   1.0000
     1.0000   1.0000   1.0000   1.0000   1.0000   1.0000   1.0000   1.0000
     1.0000   1.0000   1.0000   1.0000   1.0000   1.0000   1.0000   1.0000

          k = 0.0574 0.0230 0.0650 ( 41486 PWs)   bands (ev):

   -23.8216 -23.8195 -23.8028 -23.7963 -23.5055 -23.5052 -23.5021 -23.4948
   -19.0552 -19.0533 -19.0426 -19.0339 -18.7355 -18.7338 -18.7067 -18.7034
   -18.1565 -18.1364 -17.1092 -17.0725 -16.9626 -16.9601 -15.9700 -15.9542
   -11.9990 -11.9888 -11.9356 -11.8798 -11.7372 -11.7092 -11.6775 -11.6609
    -8.8352  -8.7380  -8.1674  -8.1359  -7.4447  -7.4299  -7.3597  -7.2525
    -6.9829  -6.8242  -6.5445  -6.4201  -6.3856  -6.3583  -6.3146  -6.2153
    -6.1715  -6.0825  -5.8958  -5.8615  -5.8151  -5.7638  -5.7018  -5.6431
    -5.5236  -5.4888  -5.4009  -5.3382  -5.0678  -4.9361  -4.8980  -4.8393
    -4.2851  -4.2599  -4.2183  -4.1692  -3.8872  -3.8737  -3.8214  -3.7996
    -3.6467  -3.5671  -3.4616  -3.3881  -3.1184  -3.0908  -2.9351  -2.8847
    -0.7376  -0.7120  -0.2225  -0.1915  -0.1420  -0.1208  -0.0198   0.0069
     0.0722   0.1006   0.2607   0.2806   0.3153   0.3332   0.4078   0.4917
     0.5627   0.5743   0.6606   0.7514   0.8425   0.8860   0.9482   0.9685
     1.0495   1.0895   1.1185   1.1458   1.3737   1.4053   1.4290   1.4650

     occupation numbers 
     1.0000   1.0000   1.0000   1.0000   1.0000   1.0000   1.0000   1.0000
     1.0000   1.0000   1.0000   1.0000   1.0000   1.0000   1.0000   1.0000
     1.0000   1.0000   1.0000   1.0000   1.0000   1.0000   1.0000   1.0000
     1.0000   1.0000   1.0000   1.0000   1.0000   1.0000   1.0000   1.0000
     1.0000   1.0000   1.0000   1.0000   1.0000   1.0000   1.0000   1.0000
     1.0000   1.0000   1.0000   1.0000   1.0000   1.0000   1.0000   1.0000
     1.0000   1.0000   1.0000   1.0000   1.0000   1.0000   1.0000   1.0000
     1.0000   1.0000   1.0000   1.0000   1.0000   1.0000   1.0000   1.0000
     1.0000   1.0000   1.0000   1.0000   1.0000   1.0000   1.0000   1.0000
     1.0000   1.0000   1.0000   1.0000   1.0000   1.0000   1.0000   1.0000
     1.0000   1.0000   1.0000   1.0000   1.0000   1.0000   1.0000   1.0000
     1.0000   1.0000   1.0000   1.0000   1.0000   1.0000   1.0000   1.0000
     1.0000   1.0000   1.0000   1.0000   1.0000   1.0000   1.0000   1.0000
     1.0000   1.0000   1.0000   1.0000   1.0000   1.0000   1.0000   1.0000

          k = 0.0574 0.0230-0.0398 ( 41484 PWs)   bands (ev):

   -23.8235 -23.8189 -23.8036 -23.7942 -23.5088 -23.5079 -23.4978 -23.4930
   -19.0533 -19.0522 -19.0432 -19.0364 -18.7363 -18.7346 -18.7057 -18.7025
   -18.1603 -18.1314 -17.1171 -17.0635 -16.9659 -16.9640 -15.9686 -15.9483
   -12.0084 -11.9955 -11.9492 -11.8668 -11.7450 -11.6934 -11.6727 -11.6645
    -8.8276  -8.7150  -8.1627  -8.1369  -7.4483  -7.4249  -7.3850  -7.2428
    -6.9972  -6.8215  -6.5378  -6.4430  -6.4000  -6.3741  -6.3367  -6.2522
    -6.1540  -6.0798  -5.8850  -5.8371  -5.7763  -5.7739  -5.6983  -5.6526
    -5.5022  -5.4819  -5.4036  -5.3354  -5.0701  -4.9683  -4.8633  -4.8183
    -4.2967  -4.2636  -4.1988  -4.1695  -3.9267  -3.9199  -3.7706  -3.7605
    -3.6121  -3.5893  -3.5077  -3.3963  -3.1206  -3.0855  -2.9346  -2.8908
    -0.6913  -0.6474  -0.2165  -0.1744  -0.1561  -0.1288  -0.0305  -0.0108
     0.0003   0.0465   0.2022   0.2719   0.3034   0.3455   0.3584   0.3959
     0.6265   0.6810   0.7348   0.7506   0.8585   0.8790   0.9566   0.9674
     1.0510   1.0849   1.1376   1.1866   1.3843   1.4005   1.4080   1.4321

     occupation numbers 
     1.0000   1.0000   1.0000   1.0000   1.0000   1.0000   1.0000   1.0000
     1.0000   1.0000   1.0000   1.0000   1.0000   1.0000   1.0000   1.0000
     1.0000   1.0000   1.0000   1.0000   1.0000   1.0000   1.0000   1.0000
     1.0000   1.0000   1.0000   1.0000   1.0000   1.0000   1.0000   1.0000
     1.0000   1.0000   1.0000   1.0000   1.0000   1.0000   1.0000   1.0000
     1.0000   1.0000   1.0000   1.0000   1.0000   1.0000   1.0000   1.0000
     1.0000   1.0000   1.0000   1.0000   1.0000   1.0000   1.0000   1.0000
     1.0000   1.0000   1.0000   1.0000   1.0000   1.0000   1.0000   1.0000
     1.0000   1.0000   1.0000   1.0000   1.0000   1.0000   1.0000   1.0000
     1.0000   1.0000   1.0000   1.0000   1.0000   1.0000   1.0000   1.0000
     1.0000   1.0000   1.0000   1.0000   1.0000   1.0000   1.0000   1.0000
     1.0000   1.0000   1.0000   1.0000   1.0000   1.0000   1.0000   1.0000
     1.0000   1.0000   1.0000   1.0000   1.0000   1.0000   1.0000   1.0000
     1.0000   1.0000   1.0000   1.0000   1.0000   1.0000   1.0000   1.0000

          k = 0.0574 0.0230-0.0049 ( 41488 PWs)   bands (ev):

   -23.8262 -23.8176 -23.8022 -23.7954 -23.5095 -23.5066 -23.4959 -23.4945
   -19.0518 -19.0509 -19.0406 -19.0404 -18.7273 -18.7267 -18.7127 -18.7114
   -18.1530 -18.1320 -17.1114 -17.0724 -16.9757 -16.9756 -15.9573 -15.9444
   -11.9927 -11.9818 -11.9448 -11.8748 -11.7577 -11.7085 -11.6692 -11.6637
    -8.8018  -8.7364  -8.1633  -8.1585  -7.4526  -7.4477  -7.4244  -7.3384
    -6.9091  -6.8375  -6.5272  -6.5064  -6.3628  -6.3530  -6.2377  -6.2158
    -6.0628  -6.0597  -5.8643  -5.8291  -5.7636  -5.7418  -5.6660  -5.6577
    -5.5340  -5.5118  -5.4481  -5.4400  -5.0314  -5.0112  -4.8073  -4.8055
    -4.3510  -4.3221  -4.2777  -4.2373  -3.9382  -3.9034  -3.6912  -3.6835
    -3.5872  -3.5547  -3.5247  -3.4668  -3.0844  -3.0542  -2.9397  -2.9240
    -0.6043  -0.5681  -0.2209  -0.2045  -0.1482  -0.1313  -0.1066  -0.0965
     0.0005   0.0363   0.1590   0.2136   0.2707   0.3092   0.4118   0.4475
     0.6470   0.7081   0.7928   0.8350   0.8354   0.8902   0.9794   0.9928
     1.0363   1.0502   1.1136   1.1821   1.3758   1.3804   1.3982   1.4141

     occupation numbers 
     1.0000   1.0000   1.0000   1.0000   1.0000   1.0000   1.0000   1.0000
     1.0000   1.0000   1.0000   1.0000   1.0000   1.0000   1.0000   1.0000
     1.0000   1.0000   1.0000   1.0000   1.0000   1.0000   1.0000   1.0000
     1.0000   1.0000   1.0000   1.0000   1.0000   1.0000   1.0000   1.0000
     1.0000   1.0000   1.0000   1.0000   1.0000   1.0000   1.0000   1.0000
     1.0000   1.0000   1.0000   1.0000   1.0000   1.0000   1.0000   1.0000
     1.0000   1.0000   1.0000   1.0000   1.0000   1.0000   1.0000   1.0000
     1.0000   1.0000   1.0000   1.0000   1.0000   1.0000   1.0000   1.0000
     1.0000   1.0000   1.0000   1.0000   1.0000   1.0000   1.0000   1.0000
     1.0000   1.0000   1.0000   1.0000   1.0000   1.0000   1.0000   1.0000
     1.0000   1.0000   1.0000   1.0000   1.0000   1.0000   1.0000   1.0000
     1.0000   1.0000   1.0000   1.0000   1.0000   1.0000   1.0000   1.0000
     1.0000   1.0000   1.0000   1.0000   1.0000   1.0000   1.0000   1.0000
     1.0000   1.0000   1.0000   1.0000   1.0000   1.0000   1.0000   1.0000

          k =-0.0191 0.0230-0.0217 ( 41493 PWs)   bands (ev):

   -23.8351 -23.8179 -23.8001 -23.7934 -23.5082 -23.4995 -23.4980 -23.4967
   -19.0560 -19.0525 -19.0406 -19.0314 -18.7216 -18.7210 -18.7175 -18.7164
   -18.1475 -18.1258 -17.1140 -17.0725 -16.9743 -16.9716 -15.9579 -15.9477
   -12.0028 -11.9862 -11.9732 -11.9060 -11.7991 -11.7452 -11.6600 -11.6437
    -8.7972  -8.7660  -8.1725  -8.1427  -7.4608  -7.4246  -7.3341  -7.3302
    -6.7626  -6.6781  -6.4990  -6.4223  -6.4060  -6.3405  -6.2588  -6.1991
    -6.0513  -6.0166  -5.9430  -5.8574  -5.8079  -5.7380  -5.6651  -5.6345
    -5.5380  -5.5148  -5.4505  -5.4121  -5.0414  -4.9368  -4.8719  -4.8467
    -4.3693  -4.3546  -4.3013  -4.2664  -4.1219  -4.0310  -3.7861  -3.7738
    -3.5890  -3.4807  -3.4025  -3.3662  -3.0723  -3.0424  -2.9379  -2.9237
    -0.7142  -0.7114  -0.2354  -0.2250  -0.1426  -0.0930  -0.0309  -0.0181
     0.0859   0.1021   0.2614   0.2841   0.3108   0.3302   0.4664   0.4703
     0.4966   0.5369   0.7111   0.7630   0.8419   0.8795   0.9656   1.0014
     1.0101   1.0994   1.1544   1.1989   1.2958   1.4057   1.4446   1.4597

     occupation numbers 
     1.0000   1.0000   1.0000   1.0000   1.0000   1.0000   1.0000   1.0000
     1.0000   1.0000   1.0000   1.0000   1.0000   1.0000   1.0000   1.0000
     1.0000   1.0000   1.0000   1.0000   1.0000   1.0000   1.0000   1.0000
     1.0000   1.0000   1.0000   1.0000   1.0000   1.0000   1.0000   1.0000
     1.0000   1.0000   1.0000   1.0000   1.0000   1.0000   1.0000   1.0000
     1.0000   1.0000   1.0000   1.0000   1.0000   1.0000   1.0000   1.0000
     1.0000   1.0000   1.0000   1.0000   1.0000   1.0000   1.0000   1.0000
     1.0000   1.0000   1.0000   1.0000   1.0000   1.0000   1.0000   1.0000
     1.0000   1.0000   1.0000   1.0000   1.0000   1.0000   1.0000   1.0000
     1.0000   1.0000   1.0000   1.0000   1.0000   1.0000   1.0000   1.0000
     1.0000   1.0000   1.0000   1.0000   1.0000   1.0000   1.0000   1.0000
     1.0000   1.0000   1.0000   1.0000   1.0000   1.0000   1.0000   1.0000
     1.0000   1.0000   1.0000   1.0000   1.0000   1.0000   1.0000   1.0000
     1.0000   1.0000   1.0000   1.0000   1.0000   1.0000   1.0000   1.0000

          k =-0.0191 0.0230-0.0566 ( 41493 PWs)   bands (ev):

   -23.8277 -23.8204 -23.7991 -23.7981 -23.5094 -23.5066 -23.4955 -23.4923
   -19.0546 -19.0514 -19.0417 -19.0345 -18.7276 -18.7270 -18.7121 -18.7104
   -18.1381 -18.1376 -17.0940 -17.0920 -16.9695 -16.9672 -15.9549 -15.9531
   -11.9930 -11.9859 -11.9526 -11.9338 -11.7735 -11.7611 -11.6709 -11.6621
    -8.7776  -8.7487  -8.1562  -8.1355  -7.4681  -7.4269  -7.3071  -7.2425
    -6.8128  -6.7218  -6.4937  -6.4648  -6.4315  -6.3440  -6.3021  -6.2676
    -6.0762  -6.0411  -5.8821  -5.8047  -5.7926  -5.7343  -5.7089  -5.6743
    -5.6125  -5.5544  -5.3867  -5.3450  -5.0345  -4.9642  -4.8637  -4.8207
    -4.3099  -4.2949  -4.2508  -4.1961  -4.0515  -4.0264  -3.9020  -3.8994
    -3.5686  -3.5210  -3.3448  -3.3352  -3.1000  -3.0940  -2.9250  -2.9030
    -0.6753  -0.6523  -0.2488  -0.2351  -0.1524  -0.1133  -0.0645  -0.0409
     0.0160   0.0451   0.1831   0.2256   0.3165   0.3631   0.4168   0.4362
     0.6284   0.6757   0.7395   0.7719   0.8627   0.8836   0.9109   0.9677
     1.0623   1.1030   1.1882   1.2040   1.3062   1.3656   1.4444   1.4641

     occupation numbers 
     1.0000   1.0000   1.0000   1.0000   1.0000   1.0000   1.0000   1.0000
     1.0000   1.0000   1.0000   1.0000   1.0000   1.0000   1.0000   1.0000
     1.0000   1.0000   1.0000   1.0000   1.0000   1.0000   1.0000   1.0000
     1.0000   1.0000   1.0000   1.0000   1.0000   1.0000   1.0000   1.0000
     1.0000   1.0000   1.0000   1.0000   1.0000   1.0000   1.0000   1.0000
     1.0000   1.0000   1.0000   1.0000   1.0000   1.0000   1.0000   1.0000
     1.0000   1.0000   1.0000   1.0000   1.0000   1.0000   1.0000   1.0000
     1.0000   1.0000   1.0000   1.0000   1.0000   1.0000   1.0000   1.0000
     1.0000   1.0000   1.0000   1.0000   1.0000   1.0000   1.0000   1.0000
     1.0000   1.0000   1.0000   1.0000   1.0000   1.0000   1.0000   1.0000
     1.0000   1.0000   1.0000   1.0000   1.0000   1.0000   1.0000   1.0000
     1.0000   1.0000   1.0000   1.0000   1.0000   1.0000   1.0000   1.0000
     1.0000   1.0000   1.0000   1.0000   1.0000   1.0000   1.0000   1.0000
     1.0000   1.0000   1.0000   1.0000   1.0000   1.0000   1.0000   1.0000

          k =-0.0191 0.0230 0.0482 ( 41512 PWs)   bands (ev):

   -23.8288 -23.8203 -23.8016 -23.7946 -23.5110 -23.5084 -23.4927 -23.4916
   -19.0521 -19.0512 -19.0396 -19.0394 -18.7288 -18.7286 -18.7105 -18.7091
   -18.1476 -18.1268 -17.1119 -17.0732 -16.9722 -16.9715 -15.9567 -15.9440
   -12.0151 -11.9906 -11.9660 -11.9113 -11.7863 -11.7363 -11.6708 -11.6641
    -8.7812  -8.7144  -8.1461  -8.1423  -7.4656  -7.4536  -7.3148  -7.2218
    -6.8188  -6.7283  -6.5098  -6.4594  -6.4182  -6.3860  -6.3209  -6.2921
    -6.0777  -6.0535  -5.8801  -5.8425  -5.7378  -5.7020  -5.6892  -5.6619
    -5.6121  -5.5480  -5.3836  -5.3314  -5.0507  -4.9707  -4.8458  -4.8003
    -4.3471  -4.2892  -4.2240  -4.1765  -4.0802  -4.0577  -3.9054  -3.8579
    -3.5667  -3.5276  -3.3891  -3.3221  -3.1046  -3.0815  -2.9230  -2.9112
    -0.6037  -0.5586  -0.2420  -0.2316  -0.1933  -0.1662  -0.1054  -0.0816
    -0.0204  -0.0084   0.1520   0.2163   0.3351   0.3668   0.3812   0.4276
     0.6706   0.7353   0.7817   0.7953   0.8303   0.9046   0.9345   0.9553
     1.0693   1.1047   1.2016   1.2420   1.3051   1.3301   1.4327   1.4508

     occupation numbers 
     1.0000   1.0000   1.0000   1.0000   1.0000   1.0000   1.0000   1.0000
     1.0000   1.0000   1.0000   1.0000   1.0000   1.0000   1.0000   1.0000
     1.0000   1.0000   1.0000   1.0000   1.0000   1.0000   1.0000   1.0000
     1.0000   1.0000   1.0000   1.0000   1.0000   1.0000   1.0000   1.0000
     1.0000   1.0000   1.0000   1.0000   1.0000   1.0000   1.0000   1.0000
     1.0000   1.0000   1.0000   1.0000   1.0000   1.0000   1.0000   1.0000
     1.0000   1.0000   1.0000   1.0000   1.0000   1.0000   1.0000   1.0000
     1.0000   1.0000   1.0000   1.0000   1.0000   1.0000   1.0000   1.0000
     1.0000   1.0000   1.0000   1.0000   1.0000   1.0000   1.0000   1.0000
     1.0000   1.0000   1.0000   1.0000   1.0000   1.0000   1.0000   1.0000
     1.0000   1.0000   1.0000   1.0000   1.0000   1.0000   1.0000   1.0000
     1.0000   1.0000   1.0000   1.0000   1.0000   1.0000   1.0000   1.0000
     1.0000   1.0000   1.0000   1.0000   1.0000   1.0000   1.0000   1.0000
     1.0000   1.0000   1.0000   1.0000   1.0000   1.0000   1.0000   1.0000

          k =-0.0191 0.0230 0.0133 ( 41539 PWs)   bands (ev):

   -23.8356 -23.8185 -23.8006 -23.7918 -23.5105 -23.5033 -23.4947 -23.4938
   -19.0547 -19.0512 -19.0410 -19.0338 -18.7247 -18.7246 -18.7136 -18.7134
   -18.1511 -18.1209 -17.1212 -17.0643 -16.9773 -16.9756 -15.9573 -15.9411
   -12.0257 -11.9940 -11.9676 -11.9014 -11.7958 -11.7345 -11.6593 -11.6453
    -8.8024  -8.7300  -8.1669  -8.1455  -7.4673  -7.4458  -7.3585  -7.2927
    -6.7292  -6.7082  -6.5159  -6.4251  -6.4091  -6.3689  -6.2900  -6.2353
    -6.0583  -6.0236  -5.9086  -5.8672  -5.7680  -5.7333  -5.6375  -5.6261
    -5.5437  -5.5119  -5.4269  -5.4151  -5.0278  -4.9779  -4.8466  -4.8165
    -4.3700  -4.3612  -4.3016  -4.2690  -4.1357  -4.0391  -3.7902  -3.7429
    -3.6045  -3.4896  -3.4138  -3.3672  -3.0789  -3.0367  -2.9332  -2.9318
    -0.6621  -0.6451  -0.2248  -0.2130  -0.1473  -0.1032  -0.0381  -0.0177
    -0.0052   0.0355   0.1619   0.2164   0.2750   0.3425   0.4144   0.4707
     0.6366   0.6806   0.7015   0.7905   0.8222   0.8849   0.9828   0.9915
     1.0287   1.0835   1.1799   1.2271   1.2833   1.3861   1.4308   1.4490

     occupation numbers 
     1.0000   1.0000   1.0000   1.0000   1.0000   1.0000   1.0000   1.0000
     1.0000   1.0000   1.0000   1.0000   1.0000   1.0000   1.0000   1.0000
     1.0000   1.0000   1.0000   1.0000   1.0000   1.0000   1.0000   1.0000
     1.0000   1.0000   1.0000   1.0000   1.0000   1.0000   1.0000   1.0000
     1.0000   1.0000   1.0000   1.0000   1.0000   1.0000   1.0000   1.0000
     1.0000   1.0000   1.0000   1.0000   1.0000   1.0000   1.0000   1.0000
     1.0000   1.0000   1.0000   1.0000   1.0000   1.0000   1.0000   1.0000
     1.0000   1.0000   1.0000   1.0000   1.0000   1.0000   1.0000   1.0000
     1.0000   1.0000   1.0000   1.0000   1.0000   1.0000   1.0000   1.0000
     1.0000   1.0000   1.0000   1.0000   1.0000   1.0000   1.0000   1.0000
     1.0000   1.0000   1.0000   1.0000   1.0000   1.0000   1.0000   1.0000
     1.0000   1.0000   1.0000   1.0000   1.0000   1.0000   1.0000   1.0000
     1.0000   1.0000   1.0000   1.0000   1.0000   1.0000   1.0000   1.0000
     1.0000   1.0000   1.0000   1.0000   1.0000   1.0000   1.0000   1.0000

          k =-0.0574 0.0230-0.0300 ( 41492 PWs)   bands (ev):

   -23.8251 -23.8174 -23.7998 -23.7991 -23.5068 -23.5039 -23.4995 -23.4964
   -19.0541 -19.0515 -19.0425 -19.0354 -18.7254 -18.7245 -18.7149 -18.7135
   -18.1433 -18.1429 -17.0932 -17.0917 -16.9729 -16.9713 -15.9555 -15.9535
   -11.9804 -11.9774 -11.9171 -11.9021 -11.7471 -11.7294 -11.6735 -11.6586
    -8.7981  -8.7715  -8.1718  -8.1531  -7.4569  -7.4318  -7.4005  -7.3558
    -6.8966  -6.8493  -6.5540  -6.4611  -6.3625  -6.3244  -6.1895  -6.1390
    -6.1160  -6.0614  -5.9055  -5.8560  -5.7959  -5.7546  -5.6713  -5.6359
    -5.5379  -5.5156  -5.4534  -5.4367  -5.0564  -4.9673  -4.8337  -4.8293
    -4.3452  -4.3235  -4.2753  -4.2386  -3.9250  -3.8813  -3.7249  -3.6866
    -3.6290  -3.5314  -3.4760  -3.4652  -3.0706  -3.0666  -2.9430  -2.9166
    -0.6643  -0.6581  -0.2150  -0.2090  -0.1481  -0.1224  -0.0315   0.0049
     0.0160   0.0441   0.1941   0.2256   0.2791   0.3033   0.4380   0.4556
     0.6670   0.6738   0.7280   0.7745   0.8562   0.8644   0.9601   0.9894
     1.0242   1.0743   1.1012   1.1376   1.3614   1.3876   1.4215   1.4517

     occupation numbers 
     1.0000   1.0000   1.0000   1.0000   1.0000   1.0000   1.0000   1.0000
     1.0000   1.0000   1.0000   1.0000   1.0000   1.0000   1.0000   1.0000
     1.0000   1.0000   1.0000   1.0000   1.0000   1.0000   1.0000   1.0000
     1.0000   1.0000   1.0000   1.0000   1.0000   1.0000   1.0000   1.0000
     1.0000   1.0000   1.0000   1.0000   1.0000   1.0000   1.0000   1.0000
     1.0000   1.0000   1.0000   1.0000   1.0000   1.0000   1.0000   1.0000
     1.0000   1.0000   1.0000   1.0000   1.0000   1.0000   1.0000   1.0000
     1.0000   1.0000   1.0000   1.0000   1.0000   1.0000   1.0000   1.0000
     1.0000   1.0000   1.0000   1.0000   1.0000   1.0000   1.0000   1.0000
     1.0000   1.0000   1.0000   1.0000   1.0000   1.0000   1.0000   1.0000
     1.0000   1.0000   1.0000   1.0000   1.0000   1.0000   1.0000   1.0000
     1.0000   1.0000   1.0000   1.0000   1.0000   1.0000   1.0000   1.0000
     1.0000   1.0000   1.0000   1.0000   1.0000   1.0000   1.0000   1.0000
     1.0000   1.0000   1.0000   1.0000   1.0000   1.0000   1.0000   1.0000

          k =-0.0574 0.0230-0.0650 ( 41486 PWs)   bands (ev):

   -23.8216 -23.8195 -23.8028 -23.7963 -23.5055 -23.5052 -23.5021 -23.4948
   -19.0552 -19.0533 -19.0426 -19.0339 -18.7355 -18.7338 -18.7067 -18.7034
   -18.1565 -18.1364 -17.1092 -17.0725 -16.9626 -16.9601 -15.9700 -15.9542
   -11.9990 -11.9888 -11.9356 -11.8798 -11.7372 -11.7092 -11.6775 -11.6609
    -8.8352  -8.7380  -8.1674  -8.1359  -7.4447  -7.4299  -7.3597  -7.2525
    -6.9829  -6.8242  -6.5445  -6.4201  -6.3856  -6.3583  -6.3146  -6.2153
    -6.1715  -6.0825  -5.8958  -5.8615  -5.8151  -5.7638  -5.7018  -5.6431
    -5.5236  -5.4888  -5.4010  -5.3382  -5.0678  -4.9361  -4.8980  -4.8393
    -4.2851  -4.2599  -4.2183  -4.1692  -3.8872  -3.8737  -3.8214  -3.7996
    -3.6467  -3.5671  -3.4616  -3.3881  -3.1184  -3.0908  -2.9351  -2.8847
    -0.7376  -0.7120  -0.2225  -0.1915  -0.1420  -0.1208  -0.0198   0.0070
     0.0722   0.1006   0.2607   0.2806   0.3153   0.3332   0.4078   0.4917
     0.5627   0.5743   0.6606   0.7514   0.8425   0.8860   0.9481   0.9685
     1.0496   1.0895   1.1185   1.1458   1.3737   1.4052   1.4290   1.4650

     occupation numbers 
     1.0000   1.0000   1.0000   1.0000   1.0000   1.0000   1.0000   1.0000
     1.0000   1.0000   1.0000   1.0000   1.0000   1.0000   1.0000   1.0000
     1.0000   1.0000   1.0000   1.0000   1.0000   1.0000   1.0000   1.0000
     1.0000   1.0000   1.0000   1.0000   1.0000   1.0000   1.0000   1.0000
     1.0000   1.0000   1.0000   1.0000   1.0000   1.0000   1.0000   1.0000
     1.0000   1.0000   1.0000   1.0000   1.0000   1.0000   1.0000   1.0000
     1.0000   1.0000   1.0000   1.0000   1.0000   1.0000   1.0000   1.0000
     1.0000   1.0000   1.0000   1.0000   1.0000   1.0000   1.0000   1.0000
     1.0000   1.0000   1.0000   1.0000   1.0000   1.0000   1.0000   1.0000
     1.0000   1.0000   1.0000   1.0000   1.0000   1.0000   1.0000   1.0000
     1.0000   1.0000   1.0000   1.0000   1.0000   1.0000   1.0000   1.0000
     1.0000   1.0000   1.0000   1.0000   1.0000   1.0000   1.0000   1.0000
     1.0000   1.0000   1.0000   1.0000   1.0000   1.0000   1.0000   1.0000
     1.0000   1.0000   1.0000   1.0000   1.0000   1.0000   1.0000   1.0000

          k =-0.0574 0.0230 0.0398 ( 41484 PWs)   bands (ev):

   -23.8235 -23.8189 -23.8036 -23.7942 -23.5088 -23.5079 -23.4978 -23.4930
   -19.0534 -19.0522 -19.0432 -19.0364 -18.7363 -18.7346 -18.7057 -18.7025
   -18.1603 -18.1314 -17.1171 -17.0635 -16.9659 -16.9640 -15.9686 -15.9483
   -12.0084 -11.9955 -11.9493 -11.8668 -11.7450 -11.6934 -11.6727 -11.6645
    -8.8276  -8.7150  -8.1627  -8.1369  -7.4483  -7.4249  -7.3850  -7.2428
    -6.9972  -6.8215  -6.5378  -6.4431  -6.3999  -6.3741  -6.3367  -6.2522
    -6.1540  -6.0798  -5.8850  -5.8371  -5.7763  -5.7739  -5.6982  -5.6526
    -5.5022  -5.4819  -5.4036  -5.3354  -5.0701  -4.9683  -4.8632  -4.8183
    -4.2968  -4.2636  -4.1988  -4.1695  -3.9267  -3.9199  -3.7705  -3.7605
    -3.6122  -3.5892  -3.5077  -3.3963  -3.1206  -3.0855  -2.9346  -2.8908
    -0.6913  -0.6474  -0.2165  -0.1744  -0.1561  -0.1288  -0.0305  -0.0108
     0.0003   0.0465   0.2022   0.2719   0.3034   0.3455   0.3585   0.3959
     0.6265   0.6811   0.7348   0.7506   0.8584   0.8790   0.9565   0.9675
     1.0510   1.0849   1.1376   1.1866   1.3843   1.4005   1.4080   1.4321

     occupation numbers 
     1.0000   1.0000   1.0000   1.0000   1.0000   1.0000   1.0000   1.0000
     1.0000   1.0000   1.0000   1.0000   1.0000   1.0000   1.0000   1.0000
     1.0000   1.0000   1.0000   1.0000   1.0000   1.0000   1.0000   1.0000
     1.0000   1.0000   1.0000   1.0000   1.0000   1.0000   1.0000   1.0000
     1.0000   1.0000   1.0000   1.0000   1.0000   1.0000   1.0000   1.0000
     1.0000   1.0000   1.0000   1.0000   1.0000   1.0000   1.0000   1.0000
     1.0000   1.0000   1.0000   1.0000   1.0000   1.0000   1.0000   1.0000
     1.0000   1.0000   1.0000   1.0000   1.0000   1.0000   1.0000   1.0000
     1.0000   1.0000   1.0000   1.0000   1.0000   1.0000   1.0000   1.0000
     1.0000   1.0000   1.0000   1.0000   1.0000   1.0000   1.0000   1.0000
     1.0000   1.0000   1.0000   1.0000   1.0000   1.0000   1.0000   1.0000
     1.0000   1.0000   1.0000   1.0000   1.0000   1.0000   1.0000   1.0000
     1.0000   1.0000   1.0000   1.0000   1.0000   1.0000   1.0000   1.0000
     1.0000   1.0000   1.0000   1.0000   1.0000   1.0000   1.0000   1.0000

          k =-0.0574 0.0230 0.0049 ( 41488 PWs)   bands (ev):

   -23.8262 -23.8176 -23.8022 -23.7954 -23.5095 -23.5066 -23.4959 -23.4945
   -19.0517 -19.0509 -19.0407 -19.0404 -18.7273 -18.7268 -18.7127 -18.7114
   -18.1530 -18.1320 -17.1114 -17.0724 -16.9757 -16.9756 -15.9573 -15.9444
   -11.9927 -11.9818 -11.9448 -11.8748 -11.7577 -11.7085 -11.6691 -11.6637
    -8.8018  -8.7364  -8.1633  -8.1585  -7.4526  -7.4477  -7.4244  -7.3384
    -6.9091  -6.8375  -6.5272  -6.5064  -6.3628  -6.3530  -6.2377  -6.2159
    -6.0628  -6.0596  -5.8643  -5.8291  -5.7636  -5.7418  -5.6660  -5.6577
    -5.5340  -5.5118  -5.4481  -5.4400  -5.0314  -5.0112  -4.8073  -4.8055
    -4.3510  -4.3221  -4.2777  -4.2373  -3.9382  -3.9034  -3.6912  -3.6835
    -3.5872  -3.5547  -3.5247  -3.4668  -3.0844  -3.0542  -2.9397  -2.9240
    -0.6043  -0.5681  -0.2208  -0.2045  -0.1483  -0.1313  -0.1066  -0.0965
     0.0005   0.0363   0.1589   0.2136   0.2707   0.3092   0.4118   0.4475
     0.6470   0.7081   0.7928   0.8350   0.8354   0.8902   0.9794   0.9928
     1.0363   1.0503   1.1136   1.1821   1.3758   1.3804   1.3982   1.4141

     occupation numbers 
     1.0000   1.0000   1.0000   1.0000   1.0000   1.0000   1.0000   1.0000
     1.0000   1.0000   1.0000   1.0000   1.0000   1.0000   1.0000   1.0000
     1.0000   1.0000   1.0000   1.0000   1.0000   1.0000   1.0000   1.0000
     1.0000   1.0000   1.0000   1.0000   1.0000   1.0000   1.0000   1.0000
     1.0000   1.0000   1.0000   1.0000   1.0000   1.0000   1.0000   1.0000
     1.0000   1.0000   1.0000   1.0000   1.0000   1.0000   1.0000   1.0000
     1.0000   1.0000   1.0000   1.0000   1.0000   1.0000   1.0000   1.0000
     1.0000   1.0000   1.0000   1.0000   1.0000   1.0000   1.0000   1.0000
     1.0000   1.0000   1.0000   1.0000   1.0000   1.0000   1.0000   1.0000
     1.0000   1.0000   1.0000   1.0000   1.0000   1.0000   1.0000   1.0000
     1.0000   1.0000   1.0000   1.0000   1.0000   1.0000   1.0000   1.0000
     1.0000   1.0000   1.0000   1.0000   1.0000   1.0000   1.0000   1.0000
     1.0000   1.0000   1.0000   1.0000   1.0000   1.0000   1.0000   1.0000
     1.0000   1.0000   1.0000   1.0000   1.0000   1.0000   1.0000   1.0000

     highest occupied level (ev):     1.4650

!    total energy              =   -1282.04363136 Ry
     Harris-Foulkes estimate   =   -1282.04363176 Ry
     estimated scf accuracy    <       0.00000046 Ry

     total all-electron energy =     -4786.487379 Ry

     The total energy is the sum of the following terms:

     one-electron contribution =    -629.44884888 Ry
     hartree contribution      =     413.70018151 Ry
     xc contribution           =    -260.13615815 Ry
     ewald contribution        =    -475.76697818 Ry
     one-center paw contrib.   =    -330.39182766 Ry

     convergence has been achieved in  14 iterations

     Forces acting on atoms (Ry/au):

     atom    1 type  1   force =    -0.01452566   -0.00697757   -0.01243062
     atom    2 type  4   force =     0.02955387    0.00597569   -0.02165797
     atom    3 type  1   force =    -0.00401853   -0.00727294   -0.00816690
     atom    4 type  1   force =     0.00679599    0.00337709   -0.00209440
     atom    5 type  4   force =     0.00274785   -0.02674794    0.02941667
     atom    6 type  1   force =     0.01251873    0.00211466   -0.00471576
     atom    7 type  4   force =    -0.01015439    0.01892773    0.03929795
     atom    8 type  2   force =     0.16221505   -0.10204532    0.04993613
     atom    9 type  3   force =    -0.11966705   -0.05545508   -0.12396918
     atom   10 type  3   force =    -0.04064405    0.16085034    0.07174708
     atom   11 type  4   force =    -0.03238585    0.02016592   -0.01512734
     atom   12 type  2   force =     0.12482840   -0.05233949    0.21049048
     atom   13 type  3   force =    -0.19694446   -0.10082996   -0.06146262
     atom   14 type  3   force =     0.06588730    0.15313615   -0.15289090
     atom   15 type  3   force =     0.06588703   -0.15313648   -0.15289109
     atom   16 type  3   force =    -0.19694362    0.10083014   -0.06146296
     atom   17 type  2   force =     0.12482835    0.05233800    0.21048911
     atom   18 type  4   force =    -0.03240987   -0.02019642   -0.01514618
     atom   19 type  3   force =    -0.04064255   -0.16085108    0.07174766
     atom   20 type  3   force =    -0.11966637    0.05545483   -0.12396910
     atom   21 type  2   force =     0.16221882    0.10204310    0.04993596
     atom   22 type  4   force =    -0.01014548   -0.01891095    0.03926099
     atom   23 type  1   force =     0.01253572   -0.00209162   -0.00469727
     atom   24 type  4   force =     0.00273728    0.02673057    0.02940099
     atom   25 type  1   force =     0.00679726   -0.00337439   -0.00209296
     atom   26 type  1   force =    -0.00403133    0.00726749   -0.00814725
     atom   27 type  4   force =     0.02957615   -0.00597416   -0.02166744
     atom   28 type  1   force =    -0.01452546    0.00697934   -0.01242937
     atom   29 type  3   force =    -0.06588730   -0.15313615    0.15289090
     atom   30 type  3   force =     0.19694446    0.10082996    0.06146262
     atom   31 type  2   force =    -0.12482840    0.05233949   -0.21049048
     atom   32 type  4   force =     0.03238585   -0.02016592    0.01512734
     atom   33 type  3   force =     0.04064405   -0.16085034   -0.07174708
     atom   34 type  3   force =     0.11966705    0.05545508    0.12396918
     atom   35 type  2   force =    -0.16221505    0.10204532   -0.04993613
     atom   36 type  4   force =     0.01015439   -0.01892773   -0.03929795
     atom   37 type  1   force =    -0.01251873   -0.00211466    0.00471576
     atom   38 type  4   force =    -0.00274785    0.02674794   -0.02941667
     atom   39 type  1   force =    -0.00679599   -0.00337709    0.00209440
     atom   40 type  1   force =     0.00401853    0.00727294    0.00816690
     atom   41 type  4   force =    -0.02955387   -0.00597569    0.02165797
     atom   42 type  1   force =     0.01452566    0.00697757    0.01243062
     atom   43 type  3   force =    -0.06588703    0.15313648    0.15289109
     atom   44 type  3   force =     0.19694362   -0.10083014    0.06146296
     atom   45 type  2   force =    -0.12482835   -0.05233800   -0.21048911
     atom   46 type  4   force =     0.03240987    0.02019642    0.01514618
     atom   47 type  3   force =     0.04064255    0.16085108   -0.07174766
     atom   48 type  3   force =     0.11966637   -0.05545483    0.12396910
     atom   49 type  2   force =    -0.16221882   -0.10204310   -0.04993596
     atom   50 type  4   force =     0.01014548    0.01891095   -0.03926099
     atom   51 type  1   force =    -0.01253572    0.00209162    0.00469727
     atom   52 type  4   force =    -0.00273728   -0.02673057   -0.02940099
     atom   53 type  1   force =    -0.00679726    0.00337439    0.00209296
     atom   54 type  1   force =     0.00403133   -0.00726749    0.00814725
     atom   55 type  4   force =    -0.02957615    0.00597416    0.02166744
     atom   56 type  1   force =     0.01452546   -0.00697934    0.01242937
     The non-local contrib.  to forces
     atom    1 type  1   force =     0.17570873    0.38350476    0.11476412
     atom    2 type  4   force =    -2.40945639   -0.47325756    1.52933740
     atom    3 type  1   force =     0.04344218   -0.03279747    0.05203211
     atom    4 type  1   force =    -0.57736665   -0.42460134   -0.12880247
     atom    5 type  4   force =     0.15272902    1.85549959   -2.23072857
     atom    6 type  1   force =    -0.00440709    0.06457035    0.05500675
     atom    7 type  4   force =     0.52780824   -1.16621691   -2.61940483
     atom    8 type  2   force =     0.63141230   -0.42757512    0.17903594
     atom    9 type  3   force =     0.07738153    0.02724862    0.06774391
     atom   10 type  3   force =     0.02831979   -0.09673223   -0.03776023
     atom   11 type  4   force =     2.27293651   -1.47248483    0.84025060
     atom   12 type  2   force =     0.39214715   -0.18583845    0.69752956
     atom   13 type  3   force =     0.09525541    0.04763922    0.03765598
     atom   14 type  3   force =    -0.02907408   -0.07461209    0.08043173
     atom   15 type  3   force =    -0.02907413    0.07461211    0.08043173
     atom   16 type  3   force =     0.09525530   -0.04763911    0.03765586
     atom   17 type  2   force =     0.39214295    0.18583662    0.69753222
     atom   18 type  4   force =     2.27290937    1.47245058    0.84023716
     atom   19 type  3   force =     0.02831984    0.09673211   -0.03776014
     atom   20 type  3   force =     0.07738117   -0.02724850    0.06774359
     atom   21 type  2   force =     0.63140824    0.42757810    0.17903364
     atom   22 type  4   force =     0.52782294    1.16623330   -2.61944265
     atom   23 type  1   force =    -0.00440127   -0.06455306    0.05502078
     atom   24 type  4   force =     0.15272045   -1.85551939   -2.23074509
     atom   25 type  1   force =    -0.57736922    0.42460493   -0.12880238
     atom   26 type  1   force =     0.04344579    0.03279920    0.05202579
     atom   27 type  4   force =    -2.40942766    0.47325993    1.52931773
     atom   28 type  1   force =     0.17570665   -0.38350017    0.11476348
     atom   29 type  3   force =     0.02907408    0.07461209   -0.08043173
     atom   30 type  3   force =    -0.09525541   -0.04763922   -0.03765598
     atom   31 type  2   force =    -0.39214715    0.18583845   -0.69752956
     atom   32 type  4   force =    -2.27293651    1.47248483   -0.84025060
     atom   33 type  3   force =    -0.02831979    0.09673223    0.03776023
     atom   34 type  3   force =    -0.07738153   -0.02724862   -0.06774391
     atom   35 type  2   force =    -0.63141230    0.42757512   -0.17903594
     atom   36 type  4   force =    -0.52780824    1.16621691    2.61940483
     atom   37 type  1   force =     0.00440709   -0.06457035   -0.05500675
     atom   38 type  4   force =    -0.15272902   -1.85549959    2.23072857
     atom   39 type  1   force =     0.57736665    0.42460134    0.12880247
     atom   40 type  1   force =    -0.04344218    0.03279747   -0.05203211
     atom   41 type  4   force =     2.40945639    0.47325756   -1.52933740
     atom   42 type  1   force =    -0.17570873   -0.38350476   -0.11476412
     atom   43 type  3   force =     0.02907413   -0.07461211   -0.08043173
     atom   44 type  3   force =    -0.09525530    0.04763911   -0.03765586
     atom   45 type  2   force =    -0.39214295   -0.18583662   -0.69753222
     atom   46 type  4   force =    -2.27290937   -1.47245058   -0.84023716
     atom   47 type  3   force =    -0.02831984   -0.09673211    0.03776014
     atom   48 type  3   force =    -0.07738117    0.02724850   -0.06774359
     atom   49 type  2   force =    -0.63140824   -0.42757810   -0.17903364
     atom   50 type  4   force =    -0.52782294   -1.16623330    2.61944265
     atom   51 type  1   force =     0.00440127    0.06455306   -0.05502078
     atom   52 type  4   force =    -0.15272045    1.85551939    2.23074509
     atom   53 type  1   force =     0.57736922   -0.42460493    0.12880238
     atom   54 type  1   force =    -0.04344579   -0.03279920   -0.05202579
     atom   55 type  4   force =     2.40942766   -0.47325993   -1.52931773
     atom   56 type  1   force =    -0.17570665    0.38350017   -0.11476348
     The ionic contribution  to forces
     atom    1 type  1   force =    -3.04749591    0.21766414   -1.99240599
     atom    2 type  4   force =    12.22001344    4.20543766   -5.95129811
     atom    3 type  1   force =    -0.25343708    1.58648813    0.02568761
     atom    4 type  1   force =     2.78945071    2.83954108    2.01969096
     atom    5 type  4   force =    -1.25508253   -8.51663178   11.31585330
     atom    6 type  1   force =    -0.34741973    0.05591994    1.04189888
     atom    7 type  4   force =    -2.03687615    6.22892756   12.41631523
     atom    8 type  2   force =    -4.05962555    3.21951030   -1.21500043
     atom    9 type  3   force =    -2.20696654   -0.15642891   -1.95434125
     atom   10 type  3   force =    -1.22024029    2.73807927    0.68218894
     atom   11 type  4   force =   -11.08544922    6.11400670   -2.37954406
     atom   12 type  2   force =    -2.84331302    0.93991762   -4.69320934
     atom   13 type  3   force =    -2.61600476   -1.06554071   -1.55056573
     atom   14 type  3   force =     0.25824027    2.03089505   -2.52496382
     atom   15 type  3   force =     0.25824027   -2.03089505   -2.52496382
     atom   16 type  3   force =    -2.61600476    1.06554071   -1.55056573
     atom   17 type  2   force =    -2.84331302   -0.93991762   -4.69320934
     atom   18 type  4   force =   -11.08544922   -6.11400670   -2.37954406
     atom   19 type  3   force =    -1.22024029   -2.73807927    0.68218894
     atom   20 type  3   force =    -2.20696654    0.15642891   -1.95434125
     atom   21 type  2   force =    -4.05962555   -3.21951030   -1.21500043
     atom   22 type  4   force =    -2.03687615   -6.22892756   12.41631523
     atom   23 type  1   force =    -0.34741973   -0.05591994    1.04189888
     atom   24 type  4   force =    -1.25508253    8.51663178   11.31585330
     atom   25 type  1   force =     2.78945071   -2.83954108    2.01969096
     atom   26 type  1   force =    -0.25343708   -1.58648813    0.02568761
     atom   27 type  4   force =    12.22001344   -4.20543766   -5.95129811
     atom   28 type  1   force =    -3.04749591   -0.21766414   -1.99240599
     atom   29 type  3   force =    -0.25824027   -2.03089505    2.52496382
     atom   30 type  3   force =     2.61600476    1.06554071    1.55056573
     atom   31 type  2   force =     2.84331302   -0.93991762    4.69320934
     atom   32 type  4   force =    11.08544922   -6.11400670    2.37954406
     atom   33 type  3   force =     1.22024029   -2.73807927   -0.68218894
     atom   34 type  3   force =     2.20696654    0.15642891    1.95434125
     atom   35 type  2   force =     4.05962555   -3.21951030    1.21500043
     atom   36 type  4   force =     2.03687615   -6.22892756  -12.41631523
     atom   37 type  1   force =     0.34741973   -0.05591994   -1.04189888
     atom   38 type  4   force =     1.25508253    8.51663178  -11.31585330
     atom   39 type  1   force =    -2.78945071   -2.83954108   -2.01969096
     atom   40 type  1   force =     0.25343708   -1.58648813   -0.02568761
     atom   41 type  4   force =   -12.22001344   -4.20543766    5.95129811
     atom   42 type  1   force =     3.04749591   -0.21766414    1.99240599
     atom   43 type  3   force =    -0.25824027    2.03089505    2.52496382
     atom   44 type  3   force =     2.61600476   -1.06554071    1.55056573
     atom   45 type  2   force =     2.84331302    0.93991762    4.69320934
     atom   46 type  4   force =    11.08544922    6.11400670    2.37954406
     atom   47 type  3   force =     1.22024029    2.73807927   -0.68218894
     atom   48 type  3   force =     2.20696654   -0.15642891    1.95434125
     atom   49 type  2   force =     4.05962555    3.21951030    1.21500043
     atom   50 type  4   force =     2.03687615    6.22892756  -12.41631523
     atom   51 type  1   force =     0.34741973    0.05591994   -1.04189888
     atom   52 type  4   force =     1.25508253   -8.51663178  -11.31585330
     atom   53 type  1   force =    -2.78945071    2.83954108   -2.01969096
     atom   54 type  1   force =     0.25343708    1.58648813   -0.02568761
     atom   55 type  4   force =   -12.22001344    4.20543766    5.95129811
     atom   56 type  1   force =     3.04749591    0.21766414    1.99240599
     The local contribution  to forces
     atom    1 type  1   force =     2.86019425   -0.60193256    1.86708695
     atom    2 type  4   force =    -9.79974447   -3.72991205    4.41212743
     atom    3 type  1   force =     0.20561771   -1.56275412   -0.08597204
     atom    4 type  1   force =    -2.21448336   -2.41790671   -1.89486479
     atom    5 type  4   force =     1.10648813    6.64874840   -9.07328211
     atom    6 type  1   force =     0.36565977   -0.11657427   -1.10171386
     atom    7 type  4   force =     1.50297880   -5.05265315   -9.77770367
     atom    8 type  2   force =     3.60397966   -2.90372165    1.09072885
     atom    9 type  3   force =     2.00994207    0.07371465    1.76265366
     atom   10 type  3   force =     1.15128428   -2.48054350   -0.57267748
     atom   11 type  4   force =     8.79785806   -4.63280811    1.53062724
     atom   12 type  2   force =     2.58505408   -0.81040697    4.22209039
     atom   13 type  3   force =     2.32382396    0.91706839    1.45148657
     atom   14 type  3   force =    -0.16328183   -1.80315162    2.29166254
     atom   15 type  3   force =    -0.16328596    1.80315089    2.29167091
     atom   16 type  3   force =     2.32381799   -0.91707286    1.45149279
     atom   17 type  2   force =     2.58504540    0.81039459    4.22211323
     atom   18 type  4   force =     8.79782053    4.63281163    1.53055668
     atom   19 type  3   force =     1.15127679    2.48054680   -0.57268631
     atom   20 type  3   force =     2.00993588   -0.07371262    1.76265086
     atom   21 type  2   force =     3.60395951    2.90373020    1.09070257
     atom   22 type  4   force =     1.50301037    5.05269336   -9.77776109
     atom   23 type  1   force =     0.36557456    0.11652356   -1.10180716
     atom   24 type  4   force =     1.10642653   -6.64875694   -9.07332040
     atom   25 type  1   force =    -2.21450432    2.41791759   -1.89491446
     atom   26 type  1   force =     0.20567778    1.56280572   -0.08605527
     atom   27 type  4   force =    -9.79968183    3.72995092    4.41212617
     atom   28 type  1   force =     2.86019240    0.60195043    1.86706735
     atom   29 type  3   force =     0.16328183    1.80315162   -2.29166254
     atom   30 type  3   force =    -2.32382396   -0.91706839   -1.45148657
     atom   31 type  2   force =    -2.58505408    0.81040697   -4.22209039
     atom   32 type  4   force =    -8.79785806    4.63280811   -1.53062724
     atom   33 type  3   force =    -1.15128428    2.48054350    0.57267748
     atom   34 type  3   force =    -2.00994207   -0.07371465   -1.76265366
     atom   35 type  2   force =    -3.60397966    2.90372165   -1.09072885
     atom   36 type  4   force =    -1.50297880    5.05265315    9.77770367
     atom   37 type  1   force =    -0.36565977    0.11657427    1.10171386
[...]
     atom   22 type  4   force =    -0.00427556   -0.00896190    0.02060191
     atom   23 type  1   force =    -0.00105154    0.00153167   -0.00026337
     atom   24 type  4   force =    -0.00112093    0.01445948    0.01772809
     atom   25 type  1   force =     0.00927680   -0.00614978    0.00117617
     atom   26 type  1   force =     0.00022755   -0.00138185   -0.00002587
     atom   27 type  4   force =     0.01900863   -0.00362482   -0.01204444
     atom   28 type  1   force =    -0.00358415    0.00568525   -0.00253957
     atom   29 type  3   force =     0.00000000    0.00000000    0.00000000
     atom   30 type  3   force =     0.00000000    0.00000000    0.00000000
     atom   31 type  2   force =     0.00561996   -0.00261781    0.01016755
     atom   32 type  4   force =     0.01792069   -0.01171661    0.00686491
     atom   33 type  3   force =     0.00000000    0.00000000    0.00000000
     atom   34 type  3   force =     0.00000000    0.00000000    0.00000000
     atom   35 type  2   force =     0.00906141   -0.00685686    0.00354520
     atom   36 type  4   force =     0.00427961   -0.00895937   -0.02060206
     atom   37 type  1   force =     0.00105125    0.00153193    0.00026331
     atom   38 type  4   force =     0.00112001    0.01445900   -0.01772837
     atom   39 type  1   force =    -0.00927685   -0.00615085   -0.00117631
     atom   40 type  1   force =    -0.00022752   -0.00138163    0.00002601
     atom   41 type  4   force =    -0.01900884   -0.00362570    0.01204289
     atom   42 type  1   force =     0.00358477    0.00568469    0.00253605
     atom   43 type  3   force =     0.00000000    0.00000000    0.00000000
     atom   44 type  3   force =     0.00000000    0.00000000    0.00000000
     atom   45 type  2   force =     0.00562143    0.00261608    0.01016522
     atom   46 type  4   force =     0.01792168    0.01171597    0.00686468
     atom   47 type  3   force =     0.00000000    0.00000000    0.00000000
     atom   48 type  3   force =     0.00000000    0.00000000    0.00000000
     atom   49 type  2   force =     0.00906029    0.00685719    0.00354794
     atom   50 type  4   force =     0.00427556    0.00896190   -0.02060191
     atom   51 type  1   force =     0.00105154   -0.00153167    0.00026337
     atom   52 type  4   force =     0.00112093   -0.01445948   -0.01772809
     atom   53 type  1   force =    -0.00927680    0.00614978   -0.00117617
     atom   54 type  1   force =    -0.00022755    0.00138185    0.00002587
     atom   55 type  4   force =    -0.01900863    0.00362482    0.01204444
     atom   56 type  1   force =     0.00358415   -0.00568525    0.00253957
     The Hubbard contrib.    to forces
     atom    1 type  1   force =     0.00000000    0.00000000    0.00000000
     atom    2 type  4   force =     0.00000000    0.00000000    0.00000000
     atom    3 type  1   force =     0.00000000    0.00000000    0.00000000
     atom    4 type  1   force =     0.00000000    0.00000000    0.00000000
     atom    5 type  4   force =     0.00000000    0.00000000    0.00000000
     atom    6 type  1   force =     0.00000000    0.00000000    0.00000000
     atom    7 type  4   force =     0.00000000    0.00000000    0.00000000
     atom    8 type  2   force =     0.00000000    0.00000000    0.00000000
     atom    9 type  3   force =     0.00000000    0.00000000    0.00000000
     atom   10 type  3   force =     0.00000000    0.00000000    0.00000000
     atom   11 type  4   force =     0.00000000    0.00000000    0.00000000
     atom   12 type  2   force =     0.00000000    0.00000000    0.00000000
     atom   13 type  3   force =     0.00000000    0.00000000    0.00000000
     atom   14 type  3   force =     0.00000000    0.00000000    0.00000000
     atom   15 type  3   force =     0.00000000    0.00000000    0.00000000
     atom   16 type  3   force =     0.00000000    0.00000000    0.00000000
     atom   17 type  2   force =     0.00000000    0.00000000    0.00000000
     atom   18 type  4   force =     0.00000000    0.00000000    0.00000000
     atom   19 type  3   force =     0.00000000    0.00000000    0.00000000
     atom   20 type  3   force =     0.00000000    0.00000000    0.00000000
     atom   21 type  2   force =     0.00000000    0.00000000    0.00000000
     atom   22 type  4   force =     0.00000000    0.00000000    0.00000000
     atom   23 type  1   force =     0.00000000    0.00000000    0.00000000
     atom   24 type  4   force =     0.00000000    0.00000000    0.00000000
     atom   25 type  1   force =     0.00000000    0.00000000    0.00000000
     atom   26 type  1   force =     0.00000000    0.00000000    0.00000000
     atom   27 type  4   force =     0.00000000    0.00000000    0.00000000
     atom   28 type  1   force =     0.00000000    0.00000000    0.00000000
     atom   29 type  3   force =     0.00000000    0.00000000    0.00000000
     atom   30 type  3   force =     0.00000000    0.00000000    0.00000000
     atom   31 type  2   force =     0.00000000    0.00000000    0.00000000
     atom   32 type  4   force =     0.00000000    0.00000000    0.00000000
     atom   33 type  3   force =     0.00000000    0.00000000    0.00000000
     atom   34 type  3   force =     0.00000000    0.00000000    0.00000000
     atom   35 type  2   force =     0.00000000    0.00000000    0.00000000
     atom   36 type  4   force =     0.00000000    0.00000000    0.00000000
     atom   37 type  1   force =     0.00000000    0.00000000    0.00000000
     atom   38 type  4   force =     0.00000000    0.00000000    0.00000000
     atom   39 type  1   force =     0.00000000    0.00000000    0.00000000
     atom   40 type  1   force =     0.00000000    0.00000000    0.00000000
     atom   41 type  4   force =     0.00000000    0.00000000    0.00000000
     atom   42 type  1   force =     0.00000000    0.00000000    0.00000000
     atom   43 type  3   force =     0.00000000    0.00000000    0.00000000
     atom   44 type  3   force =     0.00000000    0.00000000    0.00000000
     atom   45 type  2   force =     0.00000000    0.00000000    0.00000000
     atom   46 type  4   force =     0.00000000    0.00000000    0.00000000
     atom   47 type  3   force =     0.00000000    0.00000000    0.00000000
     atom   48 type  3   force =     0.00000000    0.00000000    0.00000000
     atom   49 type  2   force =     0.00000000    0.00000000    0.00000000
     atom   50 type  4   force =     0.00000000    0.00000000    0.00000000
     atom   51 type  1   force =     0.00000000    0.00000000    0.00000000
     atom   52 type  4   force =     0.00000000    0.00000000    0.00000000
     atom   53 type  1   force =     0.00000000    0.00000000    0.00000000
     atom   54 type  1   force =     0.00000000    0.00000000    0.00000000
     atom   55 type  4   force =     0.00000000    0.00000000    0.00000000
     atom   56 type  1   force =     0.00000000    0.00000000    0.00000000
     The SCF correction term to forces
     atom    1 type  1   force =     0.00000055    0.00000730    0.00000490
     atom    2 type  4   force =    -0.00001537    0.00000471    0.00000425
     atom    3 type  1   force =    -0.00002032    0.00001089    0.00002111
     atom    4 type  1   force =    -0.00000323   -0.00000012    0.00002340
     atom    5 type  4   force =     0.00001002    0.00000237    0.00001427
     atom    6 type  1   force =     0.00001597   -0.00003052    0.00005308
     atom    7 type  4   force =    -0.00001652    0.00001070    0.00001264
     atom    8 type  2   force =     0.00000630    0.00001171    0.00000607
     atom    9 type  3   force =     0.00000145    0.00000119    0.00000053
     atom   10 type  3   force =     0.00000171    0.00000466    0.00000357
     atom   11 type  4   force =     0.00002627   -0.00001127    0.00003122
     atom   12 type  2   force =     0.00000047    0.00000056   -0.00001274
     atom   13 type  3   force =     0.00000158   -0.00000139   -0.00000405
     atom   14 type  3   force =     0.00000182   -0.00000090   -0.00000438
     atom   15 type  3   force =     0.00000276    0.00000037   -0.00000049
     atom   16 type  3   force =    -0.00000105   -0.00000129   -0.00000374
     atom   17 type  2   force =     0.00000109   -0.00001006   -0.00001206
     atom   18 type  4   force =     0.00001537    0.00002275    0.00001621
     atom   19 type  3   force =    -0.00000274   -0.00000333   -0.00000272
     atom   20 type  3   force =    -0.00000233   -0.00000220   -0.00000233
     atom   21 type  2   force =    -0.00000981   -0.00000658   -0.00000944
     atom   22 type  4   force =     0.00000829   -0.00000181   -0.00001784
     atom   23 type  1   force =    -0.00000216    0.00004642    0.00004105
     atom   24 type  4   force =    -0.00000648    0.00000627   -0.00000432
     atom   25 type  1   force =    -0.00001445    0.00001942    0.00001421
     atom   26 type  1   force =     0.00004163   -0.00000406   -0.00005002
     atom   27 type  4   force =     0.00003398   -0.00001011   -0.00002684
     atom   28 type  1   force =     0.00000312   -0.00000631   -0.00001538
     atom   29 type  3   force =    -0.00000182    0.00000090    0.00000438
     atom   30 type  3   force =    -0.00000158    0.00000139    0.00000405
     atom   31 type  2   force =    -0.00000047   -0.00000056    0.00001274
     atom   32 type  4   force =    -0.00002627    0.00001127   -0.00003122
     atom   33 type  3   force =    -0.00000171   -0.00000466   -0.00000357
     atom   34 type  3   force =    -0.00000145   -0.00000119   -0.00000053
     atom   35 type  2   force =    -0.00000630   -0.00001171   -0.00000607
     atom   36 type  4   force =     0.00001652   -0.00001070   -0.00001264
     atom   37 type  1   force =    -0.00001597    0.00003052   -0.00005308
     atom   38 type  4   force =    -0.00001002   -0.00000237   -0.00001427
     atom   39 type  1   force =     0.00000323    0.00000012   -0.00002340
     atom   40 type  1   force =     0.00002032   -0.00001089   -0.00002111
     atom   41 type  4   force =     0.00001537   -0.00000471   -0.00000425
     atom   42 type  1   force =    -0.00000055   -0.00000730   -0.00000490
     atom   43 type  3   force =    -0.00000276   -0.00000037    0.00000049
     atom   44 type  3   force =     0.00000105    0.00000129    0.00000374
     atom   45 type  2   force =    -0.00000109    0.00001006    0.00001206
     atom   46 type  4   force =    -0.00001537   -0.00002275   -0.00001621
     atom   47 type  3   force =     0.00000274    0.00000333    0.00000272
     atom   48 type  3   force =     0.00000233    0.00000220    0.00000233
     atom   49 type  2   force =     0.00000981    0.00000658    0.00000944
     atom   50 type  4   force =    -0.00000829    0.00000181    0.00001784
     atom   51 type  1   force =     0.00000216   -0.00004642   -0.00004105
     atom   52 type  4   force =     0.00000648   -0.00000627    0.00000432
     atom   53 type  1   force =     0.00001445   -0.00001942   -0.00001421
     atom   54 type  1   force =    -0.00004163    0.00000406    0.00005002
     atom   55 type  4   force =    -0.00003398    0.00001011    0.00002684
     atom   56 type  1   force =    -0.00000312    0.00000631    0.00001538

     Total force =     0.006449     Total SCF correction =     0.000211


     entering subroutine stress ...

          total   stress  (Ry/bohr**3)                   (kbar)     P=   18.85
   0.00012773   0.00000010   0.00000599         18.79      0.01      0.88
   0.00000010   0.00013014  -0.00000023          0.01     19.14     -0.03
   0.00000599  -0.00000023   0.00012662          0.88     -0.03     18.63

     kinetic stress (kbar)  15153.12     -0.01    331.24
                               -0.01  15589.78      0.07
                              331.24      0.07  15124.02

     local   stress (kbar) -15147.62     -0.14   7513.89
                               -0.14  -8245.63      0.56
                             7513.89      0.56 -11404.32

     nonloc. stress (kbar)   1047.98     -0.00      7.86
                               -0.00   1057.51      0.01
                                7.86      0.01   1019.95

     hartree stress (kbar)   6830.10      0.02  -2714.61
                                0.02   4825.21     -0.08
                            -2714.61     -0.08   5417.64

     exc-cor stress (kbar)  -2187.94      0.00    -10.92
                                0.00  -2208.86     -0.00
                              -10.92     -0.00  -2193.74

     corecor stress (kbar)  -1145.59     -0.00     -2.32
                               -0.00  -1147.56      0.00
                               -2.32      0.00  -1145.61

     ewald   stress (kbar)  -4531.26      0.15  -5124.26
                                0.15  -9851.30     -0.60
                            -5124.26     -0.60  -6799.31

     hubbard stress (kbar)      0.00      0.00      0.00
                                0.00      0.00      0.00
                                0.00      0.00      0.00

     london  stress (kbar)      0.00      0.00      0.00
                                0.00      0.00      0.00
                                0.00      0.00      0.00

     XDM     stress (kbar)      0.00      0.00      0.00
                                0.00      0.00      0.00
                                0.00      0.00      0.00

     dft-nl  stress (kbar)      0.00      0.00      0.00
                                0.00      0.00      0.00
                                0.00      0.00      0.00

     TS-vdW  stress (kbar)      0.00      0.00      0.00
                                0.00      0.00      0.00
                                0.00      0.00      0.00



     bfgs converged in  14 scf cycles and  13 bfgs steps
     (criteria: energy <  1.0E-04, force <  1.0E-03)

     End of BFGS Geometry Optimization

     Final energy   =   -1282.3755489855 Ry
Begin final coordinates

ATOMIC_POSITIONS (crystal)
N       -0.019605935   0.624808919   0.458490544
O        0.275799906   0.722325745   0.434972451
N        0.142150019   0.705171599   0.530226742
N       -0.144273601   0.525422527   0.706043265
O       -0.274694553   0.427724081   0.926432031
N       -0.305496827   0.501777783   0.794654240
O        0.142024454   0.750273344   0.685210392
C       -0.191082707   0.616364494   0.552489953
H       -0.330392723   0.588244531   0.449456470
H       -0.219418073   0.705876268   0.610378946
O       -0.470672702   0.561100840   0.737447180
C       -0.021524670   0.565351199   0.279948020
H       -0.175676214   0.522040423   0.235675290
H       -0.001298088   0.631736320   0.173186903
H        0.498702801  -0.131736715  -0.326814190
H        0.324325041  -0.022041737  -0.264324090
C        0.478474702  -0.065349677  -0.220050396
O        0.029327878  -0.061101516   0.237447337
H        0.280582438  -0.205876902   0.110378341
H        0.169609763  -0.088244519  -0.050543467
C        0.308920962  -0.116366213   0.052490524
O        0.642025679  -0.250274234   0.185201999
N        0.194502538  -0.001781124   0.294649391
O        0.225304199   0.072277129   0.426433057
N        0.355725673  -0.025422779   0.206043844
N        0.642132691  -0.205173043   0.030245838
O        0.775810543  -0.222328353  -0.065038735
N        0.480398949  -0.124809555  -0.041512978
H        0.001298088   0.368263680   0.826813097
H        0.175676214   0.477959577   0.764324710
C        0.021524670   0.434648801   0.720051980
O        0.470672702   0.438899160   0.262552820
H        0.219418073   0.294123732   0.389621054
H        0.330392723   0.411755469   0.550543530
C        0.191082707   0.383635506   0.447510047
O       -0.142024454   0.249726656   0.314789608
N        0.305496827   0.498222217   0.205345760
O        0.274694553   0.572275919   0.073567969
N        0.144273601   0.474577473   0.293956735
N       -0.142150019   0.294828401   0.469773258
O       -0.275799906   0.277674255   0.565027549
N        0.019605935   0.375191081   0.541509456
H        0.501297199   0.131736715   0.326814190
H        0.675674959   0.022041737   0.264324090
C        0.521525298   0.065349677   0.220050396
O        0.970672122   0.061101516  -0.237447337
H        0.719417562   0.205876902  -0.110378341
H        0.830390237   0.088244519   0.050543467
C        0.691079038   0.116366213  -0.052490524
O        0.357974321   0.250274234  -0.185201999
N        0.805497462   0.001781124  -0.294649391
O        0.774695801  -0.072277129  -0.426433057
N        0.644274327   0.025422779  -0.206043844
N        0.357867309   0.205173043  -0.030245838
O        0.224189457   0.222328353   0.065038735
N        0.519601051   0.124809555   0.041512978
End final coordinates



     Writing output data file relax.pbe.ec-80.kp-4x2x4.HMX-792933.np-32.default-conv-thr.save

     init_run     :     71.96s CPU     93.22s WALL (       1 calls)
     electrons    :  24546.89s CPU  27831.30s WALL (      14 calls)
     update_pot   :    360.91s CPU    384.48s WALL (      13 calls)
     forces       :    617.32s CPU    785.91s WALL (      14 calls)
     stress       :   1844.70s CPU   1874.70s WALL (      14 calls)

     Called by init_run:
     wfcinit      :     39.40s CPU     48.46s WALL (       1 calls)
     potinit      :      9.84s CPU     10.36s WALL (       1 calls)

     Called by electrons:
     c_bands      :  21184.94s CPU  23850.82s WALL (     185 calls)
     sum_band     :   2985.70s CPU   3556.03s WALL (     185 calls)
     v_of_rho     :     82.23s CPU     97.64s WALL (     192 calls)
     v_h          :      5.30s CPU      6.31s WALL (     192 calls)
     v_xc         :     89.15s CPU    104.68s WALL (     220 calls)
     newd         :    182.34s CPU    176.92s WALL (     192 calls)
     PAW_pot      :     63.64s CPU     66.97s WALL (     205 calls)
     mix_rho      :     67.58s CPU     72.21s WALL (     185 calls)

     Called by c_bands:
     init_us_2    :    154.77s CPU    155.67s WALL (    6592 calls)
     cegterg      :  20416.28s CPU  22868.33s WALL (    2960 calls)

     Called by sum_band:
     sum_band:bec :      4.38s CPU      4.45s WALL (    3168 calls)
     addusdens    :    440.20s CPU    378.07s WALL (     185 calls)

     Called by *egterg:
     h_psi        :   9016.07s CPU  11045.16s WALL (   14281 calls)
     s_psi        :   1570.60s CPU   1253.65s WALL (   14281 calls)
     g_psi        :     22.09s CPU     25.80s WALL (   11305 calls)
     cdiaghg      :   4646.07s CPU   4206.64s WALL (   13945 calls)
     cegterg:over :   2199.63s CPU   3233.77s WALL (   11305 calls)
     cegterg:upda :   1196.07s CPU    918.30s WALL (   11305 calls)
     cegterg:last :    681.26s CPU    493.41s WALL (    3210 calls)

     Called by h_psi:
     h_psi:vloc   :   5116.29s CPU   6238.01s WALL (   14281 calls)
     h_psi:vnl    :   3824.33s CPU   4730.69s WALL (   14281 calls)
     add_vuspsi   :   1675.55s CPU   1689.15s WALL (   14281 calls)

     General routines
     calbec       :   3177.28s CPU   4644.90s WALL (   18569 calls)
     fft          :     74.67s CPU    122.51s WALL (    3407 calls)
     ffts         :      3.29s CPU      7.08s WALL (     377 calls)
     fftw         :   4615.20s CPU   5919.56s WALL ( 2265520 calls)
     interpolate  :     32.81s CPU     40.43s WALL (     377 calls)
     davcio       :      0.93s CPU     37.71s WALL (      16 calls)

     Parallel routines
     fft_scatter  :   2244.15s CPU   3448.32s WALL ( 2269304 calls)

     PAW routines
     PAW_pot      :     63.64s CPU     66.97s WALL (     205 calls)
     PAW_symme    :      0.45s CPU      0.74s WALL (     390 calls)

     PWSCF        :     7h40m CPU        8h41m WALL


   This run was terminated on:   5:28:47  22Jul2016            

=------------------------------------------------------------------------------=
   JOB DONE.
=------------------------------------------------------------------------------=
