
     Program PWSCF v.5.3.0 (svn rev. 11974) starts on 26May2016 at  0: 6:14 

     This program is part of the open-source Quantum ESPRESSO suite
     for quantum simulation of materials; please cite
         "P. Giannozzi et al., J. Phys.:Condens. Matter 21 395502 (2009);
          URL http://www.quantum-espresso.org", 
     in publications or presentations arising from this work. More details at
     http://www.quantum-espresso.org/quote

     Parallel version (MPI), running on     8 processors
     R & G space division:  proc/nbgrp/npool/nimage =       8
     Waiting for input...
     Reading input from standard input
Warning: card    &IONS ignored
Warning: card TRUST_RADIUS_MAX=0.2 ignored
Warning: card / ignored
Warning: card     &CELL ignored
Warning: card CELL_DYNAMICS='BFGS' ignored
Warning: card / ignored

     Current dimensions of program PWSCF are:
     Max number of different atomic species (ntypx) = 10
     Max number of k-points (npk) =  40000
     Max angular momentum in pseudopotentials (lmaxx) =  3
               file N.pbe-n-kjpaw_psl.1.0.0.UPF: wavefunction(s)  2S renormalized
               file C.pbe-n-kjpaw_psl.1.0.0.UPF: wavefunction(s)  2S 2P renormalized
               file H.pbe-kjpaw_psl.1.0.0.UPF: wavefunction(s)  1S renormalized
               file O.pbe-n-kjpaw_psl.1.0.0.UPF: wavefunction(s)  2S 2P renormalized

     Subspace diagonalization in iterative solution of the eigenvalue problem:
     a serial algorithm will be used


     Parallelization info
     --------------------
     sticks:   dense  smooth     PW     G-vecs:    dense   smooth      PW
     Min        2525    1011    269               229257    57965    7947
     Max        2526    1012    270               229260    57999    7948
     Sum       20207    8089   2155              1834077   463901   63577


     Title: 
     HMX-scf--kp-444-ec-100-default-conv-thr                                    


     bravais-lattice index     =            0
     lattice parameter (alat)  =       1.8897  a.u.
     unit-cell volume          =    3434.3216 (a.u.)^3
     number of atoms/cell      =           56
     number of atomic types    =            4
     number of electrons       =       224.00
     number of Kohn-Sham states=          112
     kinetic-energy cutoff     =     100.0000  Ry
     charge density cutoff     =    1000.0000  Ry
     convergence threshold     =      1.0E-06
     mixing beta               =       0.7000
     number of iterations used =            8  plain     mixing
     Exchange-correlation      =  SLA  PW   PBX  PBC ( 1  4  3  4 0 0)

     celldm(1)=   1.889726  celldm(2)=   0.000000  celldm(3)=   0.000000
     celldm(4)=   0.000000  celldm(5)=   0.000000  celldm(6)=   0.000000

     crystal axes: (cart. coord. in units of alat)
               a(1) = (   6.528800   0.000000   0.000000 )  
               a(2) = (   0.000000  10.886200   0.000000 )  
               a(3) = (  -1.569722   0.000000   7.160359 )  

     reciprocal axes: (cart. coord. in units 2 pi/alat)
               b(1) = (  0.153168 -0.000000  0.033578 )  
               b(2) = (  0.000000  0.091859 -0.000000 )  
               b(3) = (  0.000000  0.000000  0.139658 )  


     PseudoPot. # 1 for  N read from file:
     /users/majewski/.data/PSEUDOPOTENTIALS/N.pbe-n-kjpaw_psl.1.0.0.UPF
     MD5 check sum: c21df8f53e59d08c3548513d559cdda6
     Pseudo is Projector augmented-wave + core cor, Zval =  5.0
     Generated using "atomic" code by A. Dal Corso  v.5.3.0 svn rev. 11974
     Shape of augmentation charge: PSQ
     Using radial grid of 1085 points,  4 beta functions with: 
                l(1) =   0
                l(2) =   0
                l(3) =   1
                l(4) =   1
     Q(r) pseudized with 0 coefficients 


     PseudoPot. # 2 for  C read from file:
     /users/majewski/.data/PSEUDOPOTENTIALS/C.pbe-n-kjpaw_psl.1.0.0.UPF
     MD5 check sum: 2ba8448e293caca687844dde9a1b88a8
     Pseudo is Projector augmented-wave + core cor, Zval =  4.0
     Generated using "atomic" code by A. Dal Corso  v.5.3.0 svn rev. 11974
     Shape of augmentation charge: PSQ
     Using radial grid of 1073 points,  4 beta functions with: 
                l(1) =   0
                l(2) =   0
                l(3) =   1
                l(4) =   1
     Q(r) pseudized with 0 coefficients 


     PseudoPot. # 3 for  H read from file:
     /users/majewski/.data/PSEUDOPOTENTIALS/H.pbe-kjpaw_psl.1.0.0.UPF
     MD5 check sum: bc0feb48a24907a0b97fa6ee2d589a29
     Pseudo is Projector augmented-wave, Zval =  1.0
     Generated using "atomic" code by A. Dal Corso  v.5.3.0 svn rev. 11974
     Shape of augmentation charge: PSQ
     Using radial grid of  929 points,  2 beta functions with: 
                l(1) =   0
                l(2) =   0
     Q(r) pseudized with 0 coefficients 


     PseudoPot. # 4 for  O read from file:
     /users/majewski/.data/PSEUDOPOTENTIALS/O.pbe-n-kjpaw_psl.1.0.0.UPF
     MD5 check sum: 9c0ade6c043cf4a781bde3908a3a8206
     Pseudo is Projector augmented-wave + core cor, Zval =  6.0
     Generated using "atomic" code by A. Dal Corso  v.5.3.0 svn rev. 11974
     Shape of augmentation charge: PSQ
     Using radial grid of 1095 points,  4 beta functions with: 
                l(1) =   0
                l(2) =   0
                l(3) =   1
                l(4) =   1
     Q(r) pseudized with 0 coefficients 


     atomic species   valence    mass     pseudopotential
        N              5.00    14.00670      N( 1.00)
        C              4.00    12.01100      C( 1.00)
        H              1.00     1.00790      H( 1.00)
        O              6.00    15.99940      O( 1.00)

      2 Sym. Ops., with inversion, found
          (note:  2 additional sym.ops. were found but ignored
           their fractional translations are incommensurate with FFT grid)

                                    s                        frac. trans.

      isym =  1     identity                                     

 cryst.   s( 1) = (     1          0          0      )
                  (     0          1          0      )
                  (     0          0          1      )

 cart.    s( 1) = (  1.0000000  0.0000000 -0.0000000 )
                  (  0.0000000  1.0000000  0.0000000 )
                  (  0.0000000  0.0000000  1.0000000 )


      isym =  2     inversion                                    

 cryst.   s( 2) = (    -1          0          0      )
                  (     0         -1          0      )
                  (     0          0         -1      )

 cart.    s( 2) = ( -1.0000000  0.0000000  0.0000000 )
                  (  0.0000000 -1.0000000  0.0000000 )
                  (  0.0000000  0.0000000 -1.0000000 )


   Cartesian axes

     site n.     atom                  positions (alat units)
         1           N   tau(   1) = (  -0.8426245   6.7855862   3.2921181  )
         2           O   tau(   2) = (   1.0977498   7.8431805   3.1142548  )
         3           N   tau(   3) = (   0.0878624   7.6610544   3.7918395  )
         4           N   tau(   4) = (  -2.0432575   5.7306045   5.0613711  )
         5           O   tau(   5) = (  -3.2412146   4.6709418   6.6135221  )
         6           N   tau(   6) = (  -3.2299512   5.4696623   5.6821026  )
         7           O   tau(   7) = (  -0.1459332   8.1504979   4.8880905  )
         8           C   tau(   8) = (  -2.1183376   6.7096005   3.9540933  )
         9           H   tau(   9) = (  -2.8150805   6.4315670   3.3080857  )
        10           H   tau(  10) = (  -2.3643338   7.5996562   4.3105359  )
        11           O   tau(  11) = (  -4.2038894   6.1117304   5.2775424  )
        12           C   tau(  12) = (  -0.5824458   6.1523359   2.0058313  )
        13           H   tau(  13) = (  -1.4089366   5.7337615   1.7184861  )
        14           H   tau(  14) = (  -0.3166458   6.7940774   1.3282465  )
        15           H   tau(  15) = (   3.7326153  -1.3509774  -2.2519328  )
        16           H   tau(  16) = (   2.6403245  -0.2906615  -1.8616933  )
        17           C   tau(  17) = (   3.4668152  -0.7092359  -1.5743481  )
        18           O   tau(  18) = (  -0.1546283  -0.6686304   1.6973630  )
        19           H   tau(  19) = (   1.6849272  -2.1565562   0.7303566  )
        20           H   tau(  20) = (   1.2341806  -0.9884670  -0.2720936  )
        21           C   tau(  21) = (   1.9309234  -1.2665005   0.3739139  )
        22           O   tau(  22) = (   3.9033278  -2.7073979   1.3079111  )
        23           N   tau(  23) = (   0.8193099  -0.0265623   2.1019233  )
        24           O   tau(  24) = (   0.8080465   0.7721582   3.0333428  )
        25           N   tau(  25) = (   2.0060036  -0.2875045   1.4811918  )
        26           N   tau(  26) = (   4.1371235  -2.2179544   0.2116602  )
        27           O   tau(  27) = (   5.1470109  -2.4000805  -0.4659245  )
        28           N   tau(  28) = (   3.2066365  -1.3424862  -0.2880612  )
        29           H   tau(  29) = (  -1.2530763   4.0921226   5.8321122  )
        30           H   tau(  30) = (  -0.1607855   5.1524385   5.4418726  )
        31           C   tau(  31) = (  -0.9872763   4.7338641   5.1545274  )
        32           O   tau(  32) = (   2.6341672   4.7744696   1.8828163  )
        33           H   tau(  33) = (   0.7946117   3.2865438   2.8498228  )
        34           H   tau(  34) = (   1.2453584   4.4546330   3.8522730  )
        35           C   tau(  35) = (   0.5486155   4.1765995   3.2062654  )
        36           O   tau(  36) = (  -1.4237889   2.7357021   2.2722682  )
        37           N   tau(  37) = (   1.6602291   5.4165377   1.4782561  )
        38           O   tau(  38) = (   1.6714925   6.2152582   0.5468366  )
        39           N   tau(  39) = (   0.4735353   5.1555955   2.0989875  )
        40           N   tau(  40) = (  -1.6575845   3.2251456   3.3685191  )
        41           O   tau(  41) = (  -2.6674719   3.0430195   4.0461039  )
        42           N   tau(  42) = (  -0.7270976   4.1006138   3.8682406  )
        43           H   tau(  43) = (   2.7961847   1.3509774   2.2519328  )
        44           H   tau(  44) = (   3.8884755   0.2906615   1.8616933  )
        45           C   tau(  45) = (   3.0619848   0.7092359   1.5743481  )
        46           O   tau(  46) = (   6.6834283   0.6686304  -1.6973630  )
        47           H   tau(  47) = (   4.8438728   2.1565562  -0.7303566  )
        48           H   tau(  48) = (   5.2946194   0.9884670   0.2720936  )
        49           C   tau(  49) = (   4.5978766   1.2665005  -0.3739139  )
        50           O   tau(  50) = (   2.6254722   2.7073979  -1.3079111  )
        51           N   tau(  51) = (   5.7094901   0.0265623  -2.1019233  )
        52           O   tau(  52) = (   5.7207535  -0.7721582  -3.0333428  )
        53           N   tau(  53) = (   4.5227964   0.2875045  -1.4811918  )
        54           N   tau(  54) = (   2.3916765   2.2179544  -0.2116602  )
        55           O   tau(  55) = (   1.3817891   2.4000805   0.4659245  )
        56           N   tau(  56) = (   3.3221635   1.3424862   0.2880612  )

   Crystallographic axes

     site n.     atom                  positions (cryst. coord.)
         1           N   tau(   1) = ( -0.0185200  0.6233200  0.4597700  )
         2           O   tau(   2) = (  0.2727100  0.7204700  0.4349300  )
         3           N   tau(   3) = (  0.1407800  0.7037400  0.5295600  )
         4           N   tau(   4) = ( -0.1430100  0.5264100  0.7068600  )
         5           O   tau(   5) = ( -0.2743800  0.4290700  0.9236300  )
         6           N   tau(   6) = ( -0.3039300  0.5024400  0.7935500  )
         7           O   tau(   7) = (  0.1417800  0.7487000  0.6826600  )
         8           C   tau(   8) = ( -0.1916900  0.6163400  0.5522200  )
         9           H   tau(   9) = ( -0.3201000  0.5908000  0.4620000  )
        10           H   tau(  10) = ( -0.2174000  0.6981000  0.6020000  )
        11           O   tau(  11) = ( -0.4666900  0.5614200  0.7370500  )
        12           C   tau(  12) = ( -0.0218600  0.5651500  0.2801300  )
        13           H   tau(  13) = ( -0.1581000  0.5267000  0.2400000  )
        14           H   tau(  14) = ( -0.0039000  0.6241000  0.1855000  )
        15           H   tau(  15) = (  0.4961000 -0.1241000 -0.3145000  )
        16           H   tau(  16) = (  0.3419000 -0.0267000 -0.2600000  )
        17           C   tau(  17) = (  0.4781400 -0.0651500 -0.2198700  )
        18           O   tau(  18) = (  0.0333100 -0.0614200  0.2370500  )
        19           H   tau(  19) = (  0.2826000 -0.1981000  0.1020000  )
        20           H   tau(  20) = (  0.1799000 -0.0908000 -0.0380000  )
        21           C   tau(  21) = (  0.3083100 -0.1163400  0.0522200  )
        22           O   tau(  22) = (  0.6417800 -0.2487000  0.1826600  )
        23           N   tau(  23) = (  0.1960700 -0.0024400  0.2935500  )
        24           O   tau(  24) = (  0.2256200  0.0709300  0.4236300  )
        25           N   tau(  25) = (  0.3569900 -0.0264100  0.2068600  )
        26           N   tau(  26) = (  0.6407800 -0.2037400  0.0295600  )
        27           O   tau(  27) = (  0.7727100 -0.2204700 -0.0650700  )
        28           N   tau(  28) = (  0.4814800 -0.1233200 -0.0402300  )
        29           H   tau(  29) = (  0.0039000  0.3759000  0.8145000  )
        30           H   tau(  30) = (  0.1581000  0.4733000  0.7600000  )
        31           C   tau(  31) = (  0.0218600  0.4348500  0.7198700  )
        32           O   tau(  32) = (  0.4666900  0.4385800  0.2629500  )
        33           H   tau(  33) = (  0.2174000  0.3019000  0.3980000  )
        34           H   tau(  34) = (  0.3201000  0.4092000  0.5380000  )
        35           C   tau(  35) = (  0.1916900  0.3836600  0.4477800  )
        36           O   tau(  36) = ( -0.1417800  0.2513000  0.3173400  )
        37           N   tau(  37) = (  0.3039300  0.4975600  0.2064500  )
        38           O   tau(  38) = (  0.2743800  0.5709300  0.0763700  )
        39           N   tau(  39) = (  0.1430100  0.4735900  0.2931400  )
        40           N   tau(  40) = ( -0.1407800  0.2962600  0.4704400  )
        41           O   tau(  41) = ( -0.2727100  0.2795300  0.5650700  )
        42           N   tau(  42) = (  0.0185200  0.3766800  0.5402300  )
        43           H   tau(  43) = (  0.5039000  0.1241000  0.3145000  )
        44           H   tau(  44) = (  0.6581000  0.0267000  0.2600000  )
        45           C   tau(  45) = (  0.5218600  0.0651500  0.2198700  )
        46           O   tau(  46) = (  0.9666900  0.0614200 -0.2370500  )
        47           H   tau(  47) = (  0.7174000  0.1981000 -0.1020000  )
        48           H   tau(  48) = (  0.8201000  0.0908000  0.0380000  )
        49           C   tau(  49) = (  0.6916900  0.1163400 -0.0522200  )
        50           O   tau(  50) = (  0.3582200  0.2487000 -0.1826600  )
        51           N   tau(  51) = (  0.8039300  0.0024400 -0.2935500  )
        52           O   tau(  52) = (  0.7743800 -0.0709300 -0.4236300  )
        53           N   tau(  53) = (  0.6430100  0.0264100 -0.2068600  )
        54           N   tau(  54) = (  0.3592200  0.2037400 -0.0295600  )
        55           O   tau(  55) = (  0.2272900  0.2204700  0.0650700  )
        56           N   tau(  56) = (  0.5185200  0.1233200  0.0402300  )

     number of k points=    32
                       cart. coord. in units 2pi/alat
        k(    1) = (   0.0191459   0.0114824   0.0216545), wk =   0.0625000
        k(    2) = (   0.0191459   0.0114824   0.0565689), wk =   0.0625000
        k(    3) = (   0.0191459   0.0114824  -0.0481744), wk =   0.0625000
        k(    4) = (   0.0191459   0.0114824  -0.0132600), wk =   0.0625000
        k(    5) = (   0.0191459   0.0344473   0.0216545), wk =   0.0625000
        k(    6) = (   0.0191459   0.0344473   0.0565689), wk =   0.0625000
        k(    7) = (   0.0191459   0.0344473  -0.0481744), wk =   0.0625000
        k(    8) = (   0.0191459   0.0344473  -0.0132600), wk =   0.0625000
        k(    9) = (   0.0574378   0.0114824   0.0300490), wk =   0.0625000
        k(   10) = (   0.0574378   0.0114824   0.0649634), wk =   0.0625000
        k(   11) = (   0.0574378   0.0114824  -0.0397799), wk =   0.0625000
        k(   12) = (   0.0574378   0.0114824  -0.0048655), wk =   0.0625000
        k(   13) = (   0.0574378   0.0344473   0.0300490), wk =   0.0625000
        k(   14) = (   0.0574378   0.0344473   0.0649634), wk =   0.0625000
        k(   15) = (   0.0574378   0.0344473  -0.0397799), wk =   0.0625000
        k(   16) = (   0.0574378   0.0344473  -0.0048655), wk =   0.0625000
        k(   17) = (  -0.0191459   0.0114824  -0.0216545), wk =   0.0625000
        k(   18) = (  -0.0191459   0.0114824  -0.0565689), wk =   0.0625000
        k(   19) = (  -0.0191459   0.0114824   0.0481744), wk =   0.0625000
        k(   20) = (  -0.0191459   0.0114824   0.0132600), wk =   0.0625000
        k(   21) = (  -0.0191459   0.0344473  -0.0216545), wk =   0.0625000
        k(   22) = (  -0.0191459   0.0344473  -0.0565689), wk =   0.0625000
        k(   23) = (  -0.0191459   0.0344473   0.0481744), wk =   0.0625000
        k(   24) = (  -0.0191459   0.0344473   0.0132600), wk =   0.0625000
        k(   25) = (  -0.0574378   0.0114824  -0.0300490), wk =   0.0625000
        k(   26) = (  -0.0574378   0.0114824  -0.0649634), wk =   0.0625000
        k(   27) = (  -0.0574378   0.0114824   0.0397799), wk =   0.0625000
        k(   28) = (  -0.0574378   0.0114824   0.0048655), wk =   0.0625000
        k(   29) = (  -0.0574378   0.0344473  -0.0300490), wk =   0.0625000
        k(   30) = (  -0.0574378   0.0344473  -0.0649634), wk =   0.0625000
        k(   31) = (  -0.0574378   0.0344473   0.0397799), wk =   0.0625000
        k(   32) = (  -0.0574378   0.0344473   0.0048655), wk =   0.0625000

                       cryst. coord.
        k(    1) = (   0.1250000   0.1250000   0.1250000), wk =   0.0625000
        k(    2) = (   0.1250000   0.1250000   0.3750000), wk =   0.0625000
        k(    3) = (   0.1250000   0.1250000  -0.3750000), wk =   0.0625000
        k(    4) = (   0.1250000   0.1250000  -0.1250000), wk =   0.0625000
        k(    5) = (   0.1250000   0.3750000   0.1250000), wk =   0.0625000
        k(    6) = (   0.1250000   0.3750000   0.3750000), wk =   0.0625000
        k(    7) = (   0.1250000   0.3750000  -0.3750000), wk =   0.0625000
        k(    8) = (   0.1250000   0.3750000  -0.1250000), wk =   0.0625000
        k(    9) = (   0.3750000   0.1250000   0.1250000), wk =   0.0625000
        k(   10) = (   0.3750000   0.1250000   0.3750000), wk =   0.0625000
        k(   11) = (   0.3750000   0.1250000  -0.3750000), wk =   0.0625000
        k(   12) = (   0.3750000   0.1250000  -0.1250000), wk =   0.0625000
        k(   13) = (   0.3750000   0.3750000   0.1250000), wk =   0.0625000
        k(   14) = (   0.3750000   0.3750000   0.3750000), wk =   0.0625000
        k(   15) = (   0.3750000   0.3750000  -0.3750000), wk =   0.0625000
        k(   16) = (   0.3750000   0.3750000  -0.1250000), wk =   0.0625000
        k(   17) = (  -0.1250000   0.1250000  -0.1250000), wk =   0.0625000
        k(   18) = (  -0.1250000   0.1250000  -0.3750000), wk =   0.0625000
        k(   19) = (  -0.1250000   0.1250000   0.3750000), wk =   0.0625000
        k(   20) = (  -0.1250000   0.1250000   0.1250000), wk =   0.0625000
        k(   21) = (  -0.1250000   0.3750000  -0.1250000), wk =   0.0625000
        k(   22) = (  -0.1250000   0.3750000  -0.3750000), wk =   0.0625000
        k(   23) = (  -0.1250000   0.3750000   0.3750000), wk =   0.0625000
        k(   24) = (  -0.1250000   0.3750000   0.1250000), wk =   0.0625000
        k(   25) = (  -0.3750000   0.1250000  -0.1250000), wk =   0.0625000
        k(   26) = (  -0.3750000   0.1250000  -0.3750000), wk =   0.0625000
        k(   27) = (  -0.3750000   0.1250000   0.3750000), wk =   0.0625000
        k(   28) = (  -0.3750000   0.1250000   0.1250000), wk =   0.0625000
        k(   29) = (  -0.3750000   0.3750000  -0.1250000), wk =   0.0625000
        k(   30) = (  -0.3750000   0.3750000  -0.3750000), wk =   0.0625000
        k(   31) = (  -0.3750000   0.3750000   0.3750000), wk =   0.0625000
        k(   32) = (  -0.3750000   0.3750000   0.1250000), wk =   0.0625000

     Dense  grid:  1834077 G-vectors     FFT dimensions: ( 125, 216, 144)

     Smooth grid:   463901 G-vectors     FFT dimensions: (  80, 135,  90)

     Largest allocated arrays     est. size (Mb)     dimensions
        Kohn-Sham Wavefunctions        12.45 Mb     (    7284,  112)
        NL pseudopotentials            39.12 Mb     (    7284,  352)
        Each V/rho on FFT grid          7.42 Mb     (  486000)
        Each G-vector array             1.75 Mb     (  229260)
        G-vector shells                 1.63 Mb     (  213310)
     Largest temporary arrays     est. size (Mb)     dimensions
        Auxiliary wavefunctions        49.79 Mb     (    7284,  448)
        Each subspace H/S matrix        3.06 Mb     (     448,  448)
        Each <psi_i|beta_j> matrix      0.60 Mb     (     352,  112)
        Arrays for rho mixing          59.33 Mb     (  486000,    8)

     Initial potential from superposition of free atoms

     starting charge  223.99937, renormalised to  224.00000
     Starting wfc are  176 randomized atomic wfcs
     Checking if some PAW data can be deallocated... 
       node    0, deallocated PAW data for type:  2
       node    0, deallocated PAW data for type:  3
       node    1, deallocated PAW data for type:  1
       node    2, deallocated PAW data for type:  1
       node    3, deallocated PAW data for type:  2
       node    3, deallocated PAW data for type:  3
       node    4, deallocated PAW data for type:  1
       node    5, deallocated PAW data for type:  2
       node    5, deallocated PAW data for type:  3
       node    6, deallocated PAW data for type:  1
       node    7, deallocated PAW data for type:  2
       node    7, deallocated PAW data for type:  3

     total cpu time spent up to now is      693.9 secs

     per-process dynamical memory:   599.2 Mb

     Self-consistent Calculation

     iteration #  1     ecut=   100.00 Ry     beta=0.70
     Davidson diagonalization with overlap
     ethr =  1.00E-02,  avg # of iterations =  3.0

     total cpu time spent up to now is     2313.3 secs

     total energy              =   -1279.67301393 Ry
     Harris-Foulkes estimate   =   -1283.97301104 Ry
     estimated scf accuracy    <       6.62295598 Ry

     iteration #  2     ecut=   100.00 Ry     beta=0.70
     Davidson diagonalization with overlap
     ethr =  2.96E-03,  avg # of iterations =  4.0

     total cpu time spent up to now is     4331.8 secs

     total energy              =   -1280.32075823 Ry
     Harris-Foulkes estimate   =   -1283.85645473 Ry
     estimated scf accuracy    <       7.17170081 Ry

     iteration #  3     ecut=   100.00 Ry     beta=0.70
     Davidson diagonalization with overlap
     ethr =  2.96E-03,  avg # of iterations =  4.5

     total cpu time spent up to now is     5720.4 secs

     total energy              =   -1281.85089390 Ry
     Harris-Foulkes estimate   =   -1282.09351604 Ry
     estimated scf accuracy    <       0.45152864 Ry

     iteration #  4     ecut=   100.00 Ry     beta=0.70
     Davidson diagonalization with overlap
     ethr =  2.02E-04,  avg # of iterations =  5.0

     total cpu time spent up to now is     7491.0 secs

     total energy              =   -1281.99627981 Ry
     Harris-Foulkes estimate   =   -1282.09317167 Ry
     estimated scf accuracy    <       0.21868912 Ry

     iteration #  5     ecut=   100.00 Ry     beta=0.70
     Davidson diagonalization with overlap
     ethr =  9.76E-05,  avg # of iterations =  4.0

     total cpu time spent up to now is     8886.2 secs

     total energy              =   -1282.03993399 Ry
     Harris-Foulkes estimate   =   -1282.04894245 Ry
     estimated scf accuracy    <       0.02189717 Ry

     iteration #  6     ecut=   100.00 Ry     beta=0.70
     Davidson diagonalization with overlap
     ethr =  9.78E-06,  avg # of iterations =  7.4

     total cpu time spent up to now is    10175.1 secs

     total energy              =   -1282.04347183 Ry
     Harris-Foulkes estimate   =   -1282.04514430 Ry
     estimated scf accuracy    <       0.00376240 Ry

     iteration #  7     ecut=   100.00 Ry     beta=0.70
     Davidson diagonalization with overlap
     ethr =  1.68E-06,  avg # of iterations =  4.4

     total cpu time spent up to now is    11842.7 secs

     total energy              =   -1282.04511994 Ry
     Harris-Foulkes estimate   =   -1282.04544355 Ry
     estimated scf accuracy    <       0.00071575 Ry

     iteration #  8     ecut=   100.00 Ry     beta=0.70
     Davidson diagonalization with overlap
     ethr =  3.20E-07,  avg # of iterations =  6.5

     total cpu time spent up to now is    13194.3 secs

     total energy              =   -1282.04526625 Ry
     Harris-Foulkes estimate   =   -1282.04534969 Ry
     estimated scf accuracy    <       0.00020625 Ry

     iteration #  9     ecut=   100.00 Ry     beta=0.70
     Davidson diagonalization with overlap
     ethr =  9.21E-08,  avg # of iterations =  6.5

     total cpu time spent up to now is    14532.0 secs

     total energy              =   -1282.04531177 Ry
     Harris-Foulkes estimate   =   -1282.04531957 Ry
     estimated scf accuracy    <       0.00002080 Ry

     iteration # 10     ecut=   100.00 Ry     beta=0.70
     Davidson diagonalization with overlap
     ethr =  9.29E-09,  avg # of iterations =  5.0

     total cpu time spent up to now is    16207.7 secs

     total energy              =   -1282.04532061 Ry
     Harris-Foulkes estimate   =   -1282.04532116 Ry
     estimated scf accuracy    <       0.00000130 Ry

     iteration # 11     ecut=   100.00 Ry     beta=0.70
     Davidson diagonalization with overlap
     ethr =  5.81E-10,  avg # of iterations =  4.5

     total cpu time spent up to now is    18069.1 secs

     End of self-consistent calculation

          k = 0.0191 0.0115 0.0217 ( 57985 PWs)   bands (ev):

   -23.8374 -23.8138 -23.8028 -23.7929 -23.5101 -23.4993 -23.4983 -23.4962
   -19.0563 -19.0508 -19.0439 -19.0308 -18.7219 -18.7212 -18.7180 -18.7165
   -18.1503 -18.1220 -17.1199 -17.0656 -16.9749 -16.9713 -15.9595 -15.9461
   -12.0089 -11.9853 -11.9762 -11.8821 -11.8189 -11.7404 -11.6626 -11.6412
    -8.8013  -8.7606  -8.1765  -8.1377  -7.4639  -7.4171  -7.3388  -7.3338
    -6.7702  -6.6647  -6.5213  -6.4222  -6.4030  -6.3236  -6.2697  -6.1789
    -6.0418  -6.0073  -5.9849  -5.8501  -5.8054  -5.7257  -5.6539  -5.6148
    -5.5579  -5.5348  -5.4602  -5.4140  -5.0599  -4.9423  -4.8443  -4.8325
    -4.3597  -4.3491  -4.3207  -4.2741  -4.1286  -4.0187  -3.7880  -3.7756
    -3.6047  -3.4671  -3.4063  -3.3624  -3.0749  -3.0351  -2.9422  -2.9226
    -0.7161  -0.7133  -0.2389  -0.2326  -0.1305  -0.0835  -0.0198   0.0055
     0.0649   0.0924   0.2461   0.2824   0.2997   0.3319   0.4563   0.4689
     0.5102   0.5372   0.7090   0.7687   0.8535   0.9042   0.9573   0.9718
     1.0128   1.1120   1.1419   1.2039   1.2778   1.4227   1.4398   1.4638

     occupation numbers 
     1.0000   1.0000   1.0000   1.0000   1.0000   1.0000   1.0000   1.0000
     1.0000   1.0000   1.0000   1.0000   1.0000   1.0000   1.0000   1.0000
     1.0000   1.0000   1.0000   1.0000   1.0000   1.0000   1.0000   1.0000
     1.0000   1.0000   1.0000   1.0000   1.0000   1.0000   1.0000   1.0000
     1.0000   1.0000   1.0000   1.0000   1.0000   1.0000   1.0000   1.0000
     1.0000   1.0000   1.0000   1.0000   1.0000   1.0000   1.0000   1.0000
     1.0000   1.0000   1.0000   1.0000   1.0000   1.0000   1.0000   1.0000
     1.0000   1.0000   1.0000   1.0000   1.0000   1.0000   1.0000   1.0000
     1.0000   1.0000   1.0000   1.0000   1.0000   1.0000   1.0000   1.0000
     1.0000   1.0000   1.0000   1.0000   1.0000   1.0000   1.0000   1.0000
     1.0000   1.0000   1.0000   1.0000   1.0000   1.0000   1.0000   1.0000
     1.0000   1.0000   1.0000   1.0000   1.0000   1.0000   1.0000   1.0000
     1.0000   1.0000   1.0000   1.0000   1.0000   1.0000   1.0000   1.0000
     1.0000   1.0000   1.0000   1.0000   1.0000   1.0000   1.0000   1.0000

          k = 0.0191 0.0115 0.0566 ( 58020 PWs)   bands (ev):

   -23.8291 -23.8197 -23.7990 -23.7979 -23.5105 -23.5068 -23.4960 -23.4919
   -19.0549 -19.0498 -19.0446 -19.0342 -18.7280 -18.7272 -18.7126 -18.7104
   -18.1378 -18.1372 -17.0935 -17.0910 -16.9701 -16.9672 -15.9551 -15.9527
   -11.9941 -11.9860 -11.9529 -11.9296 -11.7768 -11.7611 -11.6717 -11.6603
    -8.7819  -8.7441  -8.1589  -8.1320  -7.4752  -7.4205  -7.3179  -7.2321
    -6.8198  -6.6924  -6.5061  -6.4603  -6.4517  -6.3428  -6.2935  -6.2554
    -6.0967  -6.0688  -5.8634  -5.8124  -5.7895  -5.7368  -5.7069  -5.6625
    -5.6127  -5.5551  -5.3797  -5.3303  -5.0636  -4.9833  -4.8391  -4.8011
    -4.3205  -4.3120  -4.2534  -4.1831  -4.0523  -4.0191  -3.9017  -3.8995
    -3.5790  -3.5171  -3.3454  -3.3333  -3.1014  -3.0974  -2.9236  -2.8973
    -0.6794  -0.6493  -0.2524  -0.2397  -0.1415  -0.1094  -0.0544  -0.0291
     0.0027   0.0419   0.1564   0.2186   0.3156   0.3720   0.4247   0.4382
     0.6210   0.6821   0.7352   0.7747   0.8611   0.8766   0.9160   0.9722
     1.0646   1.1102   1.1831   1.2047   1.2938   1.3729   1.4420   1.4679

     occupation numbers 
     1.0000   1.0000   1.0000   1.0000   1.0000   1.0000   1.0000   1.0000
     1.0000   1.0000   1.0000   1.0000   1.0000   1.0000   1.0000   1.0000
     1.0000   1.0000   1.0000   1.0000   1.0000   1.0000   1.0000   1.0000
     1.0000   1.0000   1.0000   1.0000   1.0000   1.0000   1.0000   1.0000
     1.0000   1.0000   1.0000   1.0000   1.0000   1.0000   1.0000   1.0000
     1.0000   1.0000   1.0000   1.0000   1.0000   1.0000   1.0000   1.0000
     1.0000   1.0000   1.0000   1.0000   1.0000   1.0000   1.0000   1.0000
     1.0000   1.0000   1.0000   1.0000   1.0000   1.0000   1.0000   1.0000
     1.0000   1.0000   1.0000   1.0000   1.0000   1.0000   1.0000   1.0000
     1.0000   1.0000   1.0000   1.0000   1.0000   1.0000   1.0000   1.0000
     1.0000   1.0000   1.0000   1.0000   1.0000   1.0000   1.0000   1.0000
     1.0000   1.0000   1.0000   1.0000   1.0000   1.0000   1.0000   1.0000
     1.0000   1.0000   1.0000   1.0000   1.0000   1.0000   1.0000   1.0000
     1.0000   1.0000   1.0000   1.0000   1.0000   1.0000   1.0000   1.0000

          k = 0.0191 0.0115-0.0482 ( 57996 PWs)   bands (ev):

   -23.8302 -23.8190 -23.8028 -23.7936 -23.5120 -23.5087 -23.4930 -23.4916
   -19.0520 -19.0509 -19.0406 -19.0402 -18.7291 -18.7288 -18.7110 -18.7091
   -18.1504 -18.1231 -17.1173 -17.0666 -16.9725 -16.9716 -15.9587 -15.9420
   -12.0189 -11.9852 -11.9730 -11.8967 -11.8000 -11.7314 -11.6715 -11.6632
    -8.7908  -8.7035  -8.1456  -8.1411  -7.4699  -7.4528  -7.3268  -7.2066
    -6.8335  -6.7165  -6.5013  -6.4629  -6.4183  -6.3911  -6.3015  -6.2683
    -6.1236  -6.0907  -5.8610  -5.8290  -5.7393  -5.7008  -5.6867  -5.6699
    -5.6109  -5.5389  -5.3847  -5.3260  -5.0594  -4.9816  -4.8267  -4.7930
    -4.3517  -4.2764  -4.2452  -4.1798  -4.0792  -4.0499  -3.9124  -3.8501
    -3.5769  -3.5259  -3.3993  -3.3119  -3.1107  -3.0820  -2.9199  -2.9040
    -0.6103  -0.5509  -0.2409  -0.2300  -0.2083  -0.1715  -0.0921  -0.0756
    -0.0098  -0.0031   0.1248   0.2123   0.3335   0.3749   0.3797   0.4302
     0.6614   0.7463   0.7722   0.7855   0.8350   0.9268   0.9280   0.9536
     1.0632   1.1172   1.1884   1.2455   1.3027   1.3340   1.4306   1.4535

     occupation numbers 
     1.0000   1.0000   1.0000   1.0000   1.0000   1.0000   1.0000   1.0000
     1.0000   1.0000   1.0000   1.0000   1.0000   1.0000   1.0000   1.0000
     1.0000   1.0000   1.0000   1.0000   1.0000   1.0000   1.0000   1.0000
     1.0000   1.0000   1.0000   1.0000   1.0000   1.0000   1.0000   1.0000
     1.0000   1.0000   1.0000   1.0000   1.0000   1.0000   1.0000   1.0000
     1.0000   1.0000   1.0000   1.0000   1.0000   1.0000   1.0000   1.0000
     1.0000   1.0000   1.0000   1.0000   1.0000   1.0000   1.0000   1.0000
     1.0000   1.0000   1.0000   1.0000   1.0000   1.0000   1.0000   1.0000
     1.0000   1.0000   1.0000   1.0000   1.0000   1.0000   1.0000   1.0000
     1.0000   1.0000   1.0000   1.0000   1.0000   1.0000   1.0000   1.0000
     1.0000   1.0000   1.0000   1.0000   1.0000   1.0000   1.0000   1.0000
     1.0000   1.0000   1.0000   1.0000   1.0000   1.0000   1.0000   1.0000
     1.0000   1.0000   1.0000   1.0000   1.0000   1.0000   1.0000   1.0000
     1.0000   1.0000   1.0000   1.0000   1.0000   1.0000   1.0000   1.0000

          k = 0.0191 0.0115-0.0133 ( 58005 PWs)   bands (ev):

   -23.8379 -23.8140 -23.8039 -23.7911 -23.5122 -23.5029 -23.4950 -23.4938
   -19.0550 -19.0494 -19.0440 -19.0336 -18.7250 -18.7248 -18.7138 -18.7137
   -18.1551 -18.1157 -17.1295 -17.0552 -16.9776 -16.9755 -15.9598 -15.9386
   -12.0323 -11.9905 -11.9722 -11.8747 -11.8195 -11.7287 -11.6618 -11.6435
    -8.8125  -8.7178  -8.1692  -8.1412  -7.4694  -7.4431  -7.3710  -7.2832
    -6.7392  -6.7252  -6.5149  -6.4135  -6.4087  -6.3658  -6.2715  -6.1994
    -6.0943  -6.0441  -5.9053  -5.8536  -5.7693  -5.7259  -5.6370  -5.6062
    -5.5701  -5.5220  -5.4306  -5.4225  -5.0262  -4.9789  -4.8346  -4.8083
    -4.3608  -4.3457  -4.3143  -4.2900  -4.1412  -4.0253  -3.7985  -3.7367
    -3.6273  -3.4790  -3.4187  -3.3591  -3.0837  -3.0282  -2.9337  -2.9318
    -0.6664  -0.6443  -0.2273  -0.2209  -0.1334  -0.1027  -0.0326  -0.0125
     0.0030   0.0422   0.1460   0.2128   0.2656   0.3493   0.3974   0.4691
     0.6321   0.6721   0.7084   0.7895   0.8478   0.9074   0.9682   0.9859
     1.0173   1.0898   1.1666   1.2297   1.2717   1.4030   1.4252   1.4545

     occupation numbers 
     1.0000   1.0000   1.0000   1.0000   1.0000   1.0000   1.0000   1.0000
     1.0000   1.0000   1.0000   1.0000   1.0000   1.0000   1.0000   1.0000
     1.0000   1.0000   1.0000   1.0000   1.0000   1.0000   1.0000   1.0000
     1.0000   1.0000   1.0000   1.0000   1.0000   1.0000   1.0000   1.0000
     1.0000   1.0000   1.0000   1.0000   1.0000   1.0000   1.0000   1.0000
     1.0000   1.0000   1.0000   1.0000   1.0000   1.0000   1.0000   1.0000
     1.0000   1.0000   1.0000   1.0000   1.0000   1.0000   1.0000   1.0000
     1.0000   1.0000   1.0000   1.0000   1.0000   1.0000   1.0000   1.0000
     1.0000   1.0000   1.0000   1.0000   1.0000   1.0000   1.0000   1.0000
     1.0000   1.0000   1.0000   1.0000   1.0000   1.0000   1.0000   1.0000
     1.0000   1.0000   1.0000   1.0000   1.0000   1.0000   1.0000   1.0000
     1.0000   1.0000   1.0000   1.0000   1.0000   1.0000   1.0000   1.0000
     1.0000   1.0000   1.0000   1.0000   1.0000   1.0000   1.0000   1.0000
     1.0000   1.0000   1.0000   1.0000   1.0000   1.0000   1.0000   1.0000

          k = 0.0191 0.0344 0.0217 ( 58002 PWs)   bands (ev):

   -23.8318 -23.8228 -23.7979 -23.7946 -23.5063 -23.5014 -23.4982 -23.4978
   -19.0561 -19.0544 -19.0380 -19.0333 -18.7217 -18.7214 -18.7174 -18.7169
   -18.1423 -18.1306 -17.1039 -17.0815 -16.9737 -16.9722 -15.9555 -15.9500
   -11.9953 -11.9877 -11.9653 -11.9297 -11.7805 -11.7533 -11.6562 -11.6474
    -8.7905  -8.7736  -8.1659  -8.1497  -7.4544  -7.4347  -7.3292  -7.3270
    -6.7481  -6.7008  -6.4645  -6.4183  -6.4128  -6.3718  -6.2436  -6.2145
    -6.0562  -6.0347  -5.9014  -5.8641  -5.8062  -5.7606  -5.6693  -5.6524
    -5.5192  -5.5041  -5.4373  -5.4135  -5.0119  -4.9408  -4.8956  -4.8671
    -4.3727  -4.3624  -4.2845  -4.2643  -4.1045  -4.0518  -3.7823  -3.7743
    -3.5641  -3.5043  -3.3943  -3.3735  -3.0674  -3.0514  -2.9330  -2.9257
    -0.7117  -0.7097  -0.2298  -0.2199  -0.1477  -0.1140  -0.0398  -0.0331
     0.0998   0.1082   0.2756   0.2861   0.3216   0.3295   0.4697   0.4819
     0.4883   0.5263   0.7181   0.7494   0.8369   0.8598   0.9760   0.9980
     1.0332   1.0806   1.1695   1.1924   1.3208   1.3803   1.4485   1.4557

     occupation numbers 
     1.0000   1.0000   1.0000   1.0000   1.0000   1.0000   1.0000   1.0000
     1.0000   1.0000   1.0000   1.0000   1.0000   1.0000   1.0000   1.0000
     1.0000   1.0000   1.0000   1.0000   1.0000   1.0000   1.0000   1.0000
     1.0000   1.0000   1.0000   1.0000   1.0000   1.0000   1.0000   1.0000
     1.0000   1.0000   1.0000   1.0000   1.0000   1.0000   1.0000   1.0000
     1.0000   1.0000   1.0000   1.0000   1.0000   1.0000   1.0000   1.0000
     1.0000   1.0000   1.0000   1.0000   1.0000   1.0000   1.0000   1.0000
     1.0000   1.0000   1.0000   1.0000   1.0000   1.0000   1.0000   1.0000
     1.0000   1.0000   1.0000   1.0000   1.0000   1.0000   1.0000   1.0000
     1.0000   1.0000   1.0000   1.0000   1.0000   1.0000   1.0000   1.0000
     1.0000   1.0000   1.0000   1.0000   1.0000   1.0000   1.0000   1.0000
     1.0000   1.0000   1.0000   1.0000   1.0000   1.0000   1.0000   1.0000
     1.0000   1.0000   1.0000   1.0000   1.0000   1.0000   1.0000   1.0000
     1.0000   1.0000   1.0000   1.0000   1.0000   1.0000   1.0000   1.0000

          k = 0.0191 0.0344 0.0566 ( 58010 PWs)   bands (ev):

   -23.8260 -23.8220 -23.7992 -23.7987 -23.5087 -23.5072 -23.4954 -23.4937
   -19.0547 -19.0532 -19.0396 -19.0359 -18.7277 -18.7274 -18.7120 -18.7111
   -18.1376 -18.1374 -17.0932 -17.0922 -16.9688 -16.9676 -15.9544 -15.9534
   -11.9908 -11.9866 -11.9501 -11.9394 -11.7691 -11.7622 -11.6695 -11.6647
    -8.7711  -8.7554  -8.1515  -8.1403  -7.4579  -7.4358  -7.2919  -7.2575
    -6.8003  -6.7536  -6.4859  -6.4715  -6.4036  -6.3559  -6.3019  -6.2796
    -6.0554  -6.0208  -5.8834  -5.8267  -5.7768  -5.7421  -5.7085  -5.6892
    -5.6005  -5.5625  -5.3885  -5.3639  -4.9961  -4.9430  -4.8916  -4.8507
    -4.2935  -4.2765  -4.2505  -4.2156  -4.0489  -4.0351  -3.9018  -3.8999
    -3.5546  -3.5287  -3.3435  -3.3381  -3.0967  -3.0922  -2.9239  -2.9110
    -0.6693  -0.6568  -0.2435  -0.2333  -0.1559  -0.1285  -0.0686  -0.0524
     0.0297   0.0462   0.2078   0.2283   0.3217   0.3496   0.4150   0.4289
     0.6397   0.6658   0.7470   0.7657   0.8663   0.8821   0.9167   0.9542
     1.0663   1.0907   1.1943   1.2026   1.3221   1.3538   1.4481   1.4587

     occupation numbers 
     1.0000   1.0000   1.0000   1.0000   1.0000   1.0000   1.0000   1.0000
     1.0000   1.0000   1.0000   1.0000   1.0000   1.0000   1.0000   1.0000
     1.0000   1.0000   1.0000   1.0000   1.0000   1.0000   1.0000   1.0000
     1.0000   1.0000   1.0000   1.0000   1.0000   1.0000   1.0000   1.0000
     1.0000   1.0000   1.0000   1.0000   1.0000   1.0000   1.0000   1.0000
     1.0000   1.0000   1.0000   1.0000   1.0000   1.0000   1.0000   1.0000
     1.0000   1.0000   1.0000   1.0000   1.0000   1.0000   1.0000   1.0000
     1.0000   1.0000   1.0000   1.0000   1.0000   1.0000   1.0000   1.0000
     1.0000   1.0000   1.0000   1.0000   1.0000   1.0000   1.0000   1.0000
     1.0000   1.0000   1.0000   1.0000   1.0000   1.0000   1.0000   1.0000
     1.0000   1.0000   1.0000   1.0000   1.0000   1.0000   1.0000   1.0000
     1.0000   1.0000   1.0000   1.0000   1.0000   1.0000   1.0000   1.0000
     1.0000   1.0000   1.0000   1.0000   1.0000   1.0000   1.0000   1.0000
     1.0000   1.0000   1.0000   1.0000   1.0000   1.0000   1.0000   1.0000

          k = 0.0191 0.0344-0.0482 ( 58006 PWs)   bands (ev):

   -23.8270 -23.8224 -23.8001 -23.7963 -23.5105 -23.5091 -23.4930 -23.4924
   -19.0527 -19.0523 -19.0394 -19.0392 -18.7290 -18.7289 -18.7104 -18.7097
   -18.1426 -18.1313 -17.1026 -17.0817 -16.9719 -16.9716 -15.9537 -15.9468
   -12.0093 -11.9965 -11.9560 -11.9278 -11.7706 -11.7445 -11.6694 -11.6657
    -8.7663  -8.7302  -8.1458  -8.1436  -7.4609  -7.4550  -7.2951  -7.2441
    -6.7974  -6.7479  -6.5086  -6.4779  -6.4007  -6.3840  -6.3343  -6.3147
    -6.0328  -6.0147  -5.8996  -5.8678  -5.7315  -5.7123  -5.6875  -5.6627
    -5.6017  -5.5626  -5.3764  -5.3451  -5.0295  -4.9754  -4.8520  -4.8175
    -4.3374  -4.3054  -4.2017  -4.1761  -4.0801  -4.0681  -3.8947  -3.8693
    -3.5537  -3.5325  -3.3740  -3.3376  -3.0959  -3.0827  -2.9254  -2.9194
    -0.5936  -0.5694  -0.2415  -0.2356  -0.1766  -0.1575  -0.1181  -0.0966
    -0.0257  -0.0140   0.1781   0.2127   0.3377   0.3560   0.3912   0.4198
     0.6849   0.7197   0.7927   0.8068   0.8295   0.8763   0.9421   0.9535
     1.0756   1.0921   1.2152   1.2359   1.3095   1.3235   1.4363   1.4464

     occupation numbers 
     1.0000   1.0000   1.0000   1.0000   1.0000   1.0000   1.0000   1.0000
     1.0000   1.0000   1.0000   1.0000   1.0000   1.0000   1.0000   1.0000
     1.0000   1.0000   1.0000   1.0000   1.0000   1.0000   1.0000   1.0000
     1.0000   1.0000   1.0000   1.0000   1.0000   1.0000   1.0000   1.0000
     1.0000   1.0000   1.0000   1.0000   1.0000   1.0000   1.0000   1.0000
     1.0000   1.0000   1.0000   1.0000   1.0000   1.0000   1.0000   1.0000
     1.0000   1.0000   1.0000   1.0000   1.0000   1.0000   1.0000   1.0000
     1.0000   1.0000   1.0000   1.0000   1.0000   1.0000   1.0000   1.0000
     1.0000   1.0000   1.0000   1.0000   1.0000   1.0000   1.0000   1.0000
     1.0000   1.0000   1.0000   1.0000   1.0000   1.0000   1.0000   1.0000
     1.0000   1.0000   1.0000   1.0000   1.0000   1.0000   1.0000   1.0000
     1.0000   1.0000   1.0000   1.0000   1.0000   1.0000   1.0000   1.0000
     1.0000   1.0000   1.0000   1.0000   1.0000   1.0000   1.0000   1.0000
     1.0000   1.0000   1.0000   1.0000   1.0000   1.0000   1.0000   1.0000

          k = 0.0191 0.0344-0.0133 ( 58002 PWs)   bands (ev):

   -23.8325 -23.8235 -23.7978 -23.7934 -23.5090 -23.5051 -23.4950 -23.4946
   -19.0548 -19.0532 -19.0388 -19.0352 -18.7250 -18.7249 -18.7138 -18.7137
   -18.1441 -18.1278 -17.1075 -17.0767 -16.9770 -16.9761 -15.9534 -15.9446
   -12.0162 -11.9993 -11.9589 -11.9256 -11.7749 -11.7441 -11.6557 -11.6482
    -8.7866  -8.7474  -8.1627  -8.1511  -7.4627  -7.4505  -7.3415  -7.3066
    -6.7135  -6.6966  -6.5072  -6.4512  -6.4055  -6.3822  -6.2962  -6.2613
    -6.0312  -6.0069  -5.9130  -5.8842  -5.7613  -5.7378  -5.6438  -5.6428
    -5.5195  -5.5052  -5.4206  -5.4109  -5.0220  -4.9882  -4.8509  -4.8298
    -4.3769  -4.3721  -4.2862  -4.2631  -4.1178  -4.0616  -3.7782  -3.7527
    -3.5728  -3.5101  -3.4047  -3.3791  -3.0707  -3.0480  -2.9325  -2.9318
    -0.6562  -0.6470  -0.2204  -0.2096  -0.1488  -0.1161  -0.0435  -0.0338
     0.0024   0.0241   0.1806   0.2110   0.2927   0.3305   0.4361   0.4672
     0.6467   0.6777   0.7081   0.7655   0.8229   0.8619   0.9891   0.9936
     1.0449   1.0733   1.1967   1.2214   1.3034   1.3606   1.4355   1.4437

     occupation numbers 
     1.0000   1.0000   1.0000   1.0000   1.0000   1.0000   1.0000   1.0000
     1.0000   1.0000   1.0000   1.0000   1.0000   1.0000   1.0000   1.0000
     1.0000   1.0000   1.0000   1.0000   1.0000   1.0000   1.0000   1.0000
     1.0000   1.0000   1.0000   1.0000   1.0000   1.0000   1.0000   1.0000
     1.0000   1.0000   1.0000   1.0000   1.0000   1.0000   1.0000   1.0000
     1.0000   1.0000   1.0000   1.0000   1.0000   1.0000   1.0000   1.0000
     1.0000   1.0000   1.0000   1.0000   1.0000   1.0000   1.0000   1.0000
     1.0000   1.0000   1.0000   1.0000   1.0000   1.0000   1.0000   1.0000
     1.0000   1.0000   1.0000   1.0000   1.0000   1.0000   1.0000   1.0000
     1.0000   1.0000   1.0000   1.0000   1.0000   1.0000   1.0000   1.0000
     1.0000   1.0000   1.0000   1.0000   1.0000   1.0000   1.0000   1.0000
     1.0000   1.0000   1.0000   1.0000   1.0000   1.0000   1.0000   1.0000
     1.0000   1.0000   1.0000   1.0000   1.0000   1.0000   1.0000   1.0000
     1.0000   1.0000   1.0000   1.0000   1.0000   1.0000   1.0000   1.0000

          k = 0.0574 0.0115 0.0300 ( 58006 PWs)   bands (ev):

   -23.8266 -23.8165 -23.7997 -23.7990 -23.5081 -23.5042 -23.4999 -23.4958
   -19.0544 -19.0500 -19.0453 -19.0351 -18.7258 -18.7246 -18.7154 -18.7135
   -18.1430 -18.1425 -17.0928 -17.0908 -16.9733 -16.9712 -15.9557 -15.9531
   -11.9806 -11.9767 -11.9200 -11.9007 -11.7487 -11.7257 -11.6759 -11.6565
    -8.8021  -8.7673  -8.1763  -8.1521  -7.4615  -7.4278  -7.4047  -7.3471
    -6.8931  -6.8229  -6.5933  -6.4630  -6.3691  -6.3273  -6.1700  -6.1350
    -6.1121  -6.0608  -5.9193  -5.8538  -5.7980  -5.7520  -5.6633  -5.6385
    -5.5496  -5.5098  -5.4569  -5.4364  -5.0687  -4.9525  -4.8303  -4.8265
    -4.3478  -4.3255  -4.2791  -4.2297  -3.9356  -3.8798  -3.7300  -3.6823
    -3.6427  -3.5149  -3.4755  -3.4668  -3.0706  -3.0675  -2.9442  -2.9108
    -0.6673  -0.6590  -0.2188  -0.2131  -0.1272  -0.1065  -0.0415  -0.0134
     0.0191   0.0477   0.1921   0.2132   0.2806   0.2974   0.4393   0.4600
     0.6545   0.6655   0.7388   0.7863   0.8618   0.8671   0.9592   0.9743
     1.0276   1.0752   1.1001   1.1457   1.3567   1.3921   1.4155   1.4561

     occupation numbers 
     1.0000   1.0000   1.0000   1.0000   1.0000   1.0000   1.0000   1.0000
     1.0000   1.0000   1.0000   1.0000   1.0000   1.0000   1.0000   1.0000
     1.0000   1.0000   1.0000   1.0000   1.0000   1.0000   1.0000   1.0000
     1.0000   1.0000   1.0000   1.0000   1.0000   1.0000   1.0000   1.0000
     1.0000   1.0000   1.0000   1.0000   1.0000   1.0000   1.0000   1.0000
     1.0000   1.0000   1.0000   1.0000   1.0000   1.0000   1.0000   1.0000
     1.0000   1.0000   1.0000   1.0000   1.0000   1.0000   1.0000   1.0000
     1.0000   1.0000   1.0000   1.0000   1.0000   1.0000   1.0000   1.0000
     1.0000   1.0000   1.0000   1.0000   1.0000   1.0000   1.0000   1.0000
     1.0000   1.0000   1.0000   1.0000   1.0000   1.0000   1.0000   1.0000
     1.0000   1.0000   1.0000   1.0000   1.0000   1.0000   1.0000   1.0000
     1.0000   1.0000   1.0000   1.0000   1.0000   1.0000   1.0000   1.0000
     1.0000   1.0000   1.0000   1.0000   1.0000   1.0000   1.0000   1.0000
     1.0000   1.0000   1.0000   1.0000   1.0000   1.0000   1.0000   1.0000

          k = 0.0574 0.0115 0.0650 ( 57992 PWs)   bands (ev):

   -23.8223 -23.8195 -23.8037 -23.7952 -23.5059 -23.5058 -23.5033 -23.4940
   -19.0553 -19.0521 -19.0455 -19.0334 -18.7360 -18.7337 -18.7074 -18.7031
   -18.1591 -18.1329 -17.1143 -17.0663 -16.9631 -16.9598 -15.9725 -15.9518
   -11.9986 -11.9828 -11.9485 -11.8726 -11.7415 -11.7048 -11.6800 -11.6583
    -8.8495  -8.7223  -8.1729  -8.1319  -7.4569  -7.4376  -7.3590  -7.2238
    -6.9997  -6.7695  -6.5979  -6.4073  -6.3918  -6.3527  -6.3321  -6.2249
    -6.1692  -6.0797  -5.9032  -5.8644  -5.8224  -5.7529  -5.6895  -5.6283
    -5.5251  -5.4786  -5.4168  -5.3333  -5.0826  -4.9172  -4.9032  -4.8317
    -4.2913  -4.2774  -4.2110  -4.1720  -3.8917  -3.8740  -3.8214  -3.7939
    -3.6567  -3.5433  -3.4804  -3.3783  -3.1220  -3.0857  -2.9425  -2.8769
    -0.7436  -0.7095  -0.2275  -0.1884  -0.1264  -0.0953  -0.0334   0.0049
     0.0564   0.0959   0.2512   0.2810   0.3094   0.3257   0.4031   0.5038
     0.5720   0.5837   0.6369   0.7410   0.8647   0.8920   0.9444   0.9656
     1.0609   1.0991   1.1083   1.1381   1.3690   1.4114   1.4228   1.4709

     occupation numbers 
     1.0000   1.0000   1.0000   1.0000   1.0000   1.0000   1.0000   1.0000
     1.0000   1.0000   1.0000   1.0000   1.0000   1.0000   1.0000   1.0000
     1.0000   1.0000   1.0000   1.0000   1.0000   1.0000   1.0000   1.0000
     1.0000   1.0000   1.0000   1.0000   1.0000   1.0000   1.0000   1.0000
     1.0000   1.0000   1.0000   1.0000   1.0000   1.0000   1.0000   1.0000
     1.0000   1.0000   1.0000   1.0000   1.0000   1.0000   1.0000   1.0000
     1.0000   1.0000   1.0000   1.0000   1.0000   1.0000   1.0000   1.0000
     1.0000   1.0000   1.0000   1.0000   1.0000   1.0000   1.0000   1.0000
     1.0000   1.0000   1.0000   1.0000   1.0000   1.0000   1.0000   1.0000
     1.0000   1.0000   1.0000   1.0000   1.0000   1.0000   1.0000   1.0000
     1.0000   1.0000   1.0000   1.0000   1.0000   1.0000   1.0000   1.0000
     1.0000   1.0000   1.0000   1.0000   1.0000   1.0000   1.0000   1.0000
     1.0000   1.0000   1.0000   1.0000   1.0000   1.0000   1.0000   1.0000
     1.0000   1.0000   1.0000   1.0000   1.0000   1.0000   1.0000   1.0000

          k = 0.0574 0.0115-0.0398 ( 57977 PWs)   bands (ev):

   -23.8243 -23.8182 -23.8053 -23.7929 -23.5094 -23.5084 -23.4987 -23.4925
   -19.0533 -19.0508 -19.0461 -19.0363 -18.7368 -18.7346 -18.7065 -18.7023
   -18.1641 -18.1264 -17.1249 -17.0548 -16.9662 -16.9638 -15.9718 -15.9452
   -12.0085 -11.9881 -11.9654 -11.8503 -11.7577 -11.6862 -11.6751 -11.6635
    -8.8439  -8.6965  -8.1666  -8.1331  -7.4582  -7.4388  -7.3838  -7.2113
    -7.0206  -6.7699  -6.5856  -6.4394  -6.3948  -6.3797  -6.3208  -6.2541
    -6.1731  -6.0964  -5.8881  -5.8356  -5.7730  -5.7608  -5.6906  -5.6452
    -5.5013  -5.4745  -5.4233  -5.3330  -5.0734  -4.9403  -4.8759  -4.8184
    -4.2950  -4.2517  -4.2128  -4.1851  -3.9297  -3.9204  -3.7711  -3.7576
    -3.6085  -3.5764  -3.5329  -3.3810  -3.1267  -3.0820  -2.9387  -2.8825
    -0.6994  -0.6424  -0.2194  -0.1621  -0.1416  -0.1175  -0.0409  -0.0186
    -0.0062   0.0361   0.1878   0.2802   0.3010   0.3519   0.3639   0.3900
     0.6161   0.6839   0.7226   0.7443   0.8643   0.8908   0.9619   0.9779
     1.0525   1.0817   1.1243   1.1920   1.3830   1.4011   1.4075   1.4359

     occupation numbers 
     1.0000   1.0000   1.0000   1.0000   1.0000   1.0000   1.0000   1.0000
     1.0000   1.0000   1.0000   1.0000   1.0000   1.0000   1.0000   1.0000
     1.0000   1.0000   1.0000   1.0000   1.0000   1.0000   1.0000   1.0000
     1.0000   1.0000   1.0000   1.0000   1.0000   1.0000   1.0000   1.0000
     1.0000   1.0000   1.0000   1.0000   1.0000   1.0000   1.0000   1.0000
     1.0000   1.0000   1.0000   1.0000   1.0000   1.0000   1.0000   1.0000
     1.0000   1.0000   1.0000   1.0000   1.0000   1.0000   1.0000   1.0000
     1.0000   1.0000   1.0000   1.0000   1.0000   1.0000   1.0000   1.0000
     1.0000   1.0000   1.0000   1.0000   1.0000   1.0000   1.0000   1.0000
     1.0000   1.0000   1.0000   1.0000   1.0000   1.0000   1.0000   1.0000
     1.0000   1.0000   1.0000   1.0000   1.0000   1.0000   1.0000   1.0000
     1.0000   1.0000   1.0000   1.0000   1.0000   1.0000   1.0000   1.0000
     1.0000   1.0000   1.0000   1.0000   1.0000   1.0000   1.0000   1.0000
     1.0000   1.0000   1.0000   1.0000   1.0000   1.0000   1.0000   1.0000

          k = 0.0574 0.0115-0.0049 ( 57958 PWs)   bands (ev):

   -23.8275 -23.8162 -23.8036 -23.7945 -23.5105 -23.5068 -23.4962 -23.4945
   -19.0517 -19.0505 -19.0416 -19.0413 -18.7276 -18.7269 -18.7131 -18.7115
   -18.1557 -18.1283 -17.1169 -17.0659 -16.9758 -16.9757 -15.9593 -15.9424
   -11.9937 -11.9771 -11.9566 -11.8604 -11.7690 -11.7018 -11.6703 -11.6636
    -8.8114  -8.7259  -8.1636  -8.1602  -7.4542  -7.4467  -7.4353  -7.3231
    -6.9126  -6.8169  -6.5493  -6.5236  -6.3626  -6.3570  -6.2094  -6.1795
    -6.0926  -6.0838  -5.8580  -5.8169  -5.7655  -5.7374  -5.6764  -5.6682
    -5.5296  -5.5116  -5.4505  -5.4389  -5.0276  -5.0051  -4.8087  -4.8052
    -4.3487  -4.3214  -4.2742  -4.2382  -3.9504  -3.9052  -3.6903  -3.6791
    -3.5975  -3.5656  -3.5190  -3.4556  -3.0897  -3.0516  -2.9385  -2.9172
    -0.6108  -0.5635  -0.2241  -0.2116  -0.1383  -0.1295  -0.1004  -0.0987
     0.0052   0.0355   0.1504   0.2209   0.2600   0.3053   0.4089   0.4486
     0.6344   0.7053   0.8032   0.8259   0.8604   0.8927   0.9746   0.9970
     1.0281   1.0421   1.1090   1.1940   1.3744   1.3820   1.3961   1.4162

     occupation numbers 
     1.0000   1.0000   1.0000   1.0000   1.0000   1.0000   1.0000   1.0000
     1.0000   1.0000   1.0000   1.0000   1.0000   1.0000   1.0000   1.0000
     1.0000   1.0000   1.0000   1.0000   1.0000   1.0000   1.0000   1.0000
     1.0000   1.0000   1.0000   1.0000   1.0000   1.0000   1.0000   1.0000
     1.0000   1.0000   1.0000   1.0000   1.0000   1.0000   1.0000   1.0000
     1.0000   1.0000   1.0000   1.0000   1.0000   1.0000   1.0000   1.0000
     1.0000   1.0000   1.0000   1.0000   1.0000   1.0000   1.0000   1.0000
     1.0000   1.0000   1.0000   1.0000   1.0000   1.0000   1.0000   1.0000
     1.0000   1.0000   1.0000   1.0000   1.0000   1.0000   1.0000   1.0000
     1.0000   1.0000   1.0000   1.0000   1.0000   1.0000   1.0000   1.0000
     1.0000   1.0000   1.0000   1.0000   1.0000   1.0000   1.0000   1.0000
     1.0000   1.0000   1.0000   1.0000   1.0000   1.0000   1.0000   1.0000
     1.0000   1.0000   1.0000   1.0000   1.0000   1.0000   1.0000   1.0000
     1.0000   1.0000   1.0000   1.0000   1.0000   1.0000   1.0000   1.0000

          k = 0.0574 0.0344 0.0300 ( 57961 PWs)   bands (ev):

   -23.8234 -23.8191 -23.8000 -23.7995 -23.5059 -23.5044 -23.4996 -23.4979
   -19.0544 -19.0532 -19.0404 -19.0368 -18.7254 -18.7249 -18.7148 -18.7140
   -18.1429 -18.1427 -17.0924 -17.0916 -16.9725 -16.9716 -15.9550 -15.9539
   -11.9797 -11.9781 -11.9127 -11.9045 -11.7440 -11.7343 -11.6700 -11.6619
    -8.7919  -8.7775  -8.1656  -8.1553  -7.4504  -7.4372  -7.3927  -7.3681
    -6.8974  -6.8742  -6.5133  -6.4664  -6.3498  -6.3241  -6.2014  -6.1676
    -6.0987  -6.0697  -5.8904  -5.8634  -5.7884  -5.7647  -5.6664  -5.6413
    -5.5307  -5.5208  -5.4486  -5.4383  -5.0377  -4.9896  -4.8363  -4.8332
    -4.3395  -4.3255  -4.2695  -4.2501  -3.9105  -3.8862  -3.7168  -3.6956
    -3.6071  -3.5547  -3.4738  -3.4668  -3.0695  -3.0666  -2.9393  -2.9246
    -0.6606  -0.6572  -0.2103  -0.2031  -0.1641  -0.1437  -0.0198   0.0035
     0.0254   0.0408   0.2015   0.2225   0.2901   0.3056   0.4376   0.4482
     0.6850   0.6874   0.7148   0.7483   0.8565   0.8646   0.9643   0.9862
     1.0359   1.0685   1.1048   1.1258   1.3679   1.3818   1.4289   1.4450

     occupation numbers 
     1.0000   1.0000   1.0000   1.0000   1.0000   1.0000   1.0000   1.0000
     1.0000   1.0000   1.0000   1.0000   1.0000   1.0000   1.0000   1.0000
     1.0000   1.0000   1.0000   1.0000   1.0000   1.0000   1.0000   1.0000
     1.0000   1.0000   1.0000   1.0000   1.0000   1.0000   1.0000   1.0000
     1.0000   1.0000   1.0000   1.0000   1.0000   1.0000   1.0000   1.0000
     1.0000   1.0000   1.0000   1.0000   1.0000   1.0000   1.0000   1.0000
     1.0000   1.0000   1.0000   1.0000   1.0000   1.0000   1.0000   1.0000
     1.0000   1.0000   1.0000   1.0000   1.0000   1.0000   1.0000   1.0000
     1.0000   1.0000   1.0000   1.0000   1.0000   1.0000   1.0000   1.0000
     1.0000   1.0000   1.0000   1.0000   1.0000   1.0000   1.0000   1.0000
     1.0000   1.0000   1.0000   1.0000   1.0000   1.0000   1.0000   1.0000
     1.0000   1.0000   1.0000   1.0000   1.0000   1.0000   1.0000   1.0000
     1.0000   1.0000   1.0000   1.0000   1.0000   1.0000   1.0000   1.0000
     1.0000   1.0000   1.0000   1.0000   1.0000   1.0000   1.0000   1.0000

          k = 0.0574 0.0344 0.0650 ( 58017 PWs)   bands (ev):

   -23.8211 -23.8199 -23.8017 -23.7982 -23.5057 -23.5055 -23.5008 -23.4968
   -19.0557 -19.0548 -19.0402 -19.0357 -18.7353 -18.7344 -18.7062 -18.7044
   -18.1516 -18.1408 -17.1003 -17.0804 -16.9621 -16.9607 -15.9663 -15.9577
   -11.9985 -11.9936 -11.9202 -11.8908 -11.7306 -11.7155 -11.6738 -11.6648
    -8.8135  -8.7609  -8.1592  -8.1421  -7.4312  -7.4213  -7.3524  -7.2903
    -6.9568  -6.8765  -6.4987  -6.4389  -6.3785  -6.3647  -6.2867  -6.2282
    -6.1526  -6.0978  -5.8815  -5.8593  -5.8086  -5.7794  -5.7069  -5.6669
    -5.5197  -5.5010  -5.3816  -5.3480  -5.0429  -4.9717  -4.8827  -4.8514
    -4.2752  -4.2541  -4.2111  -4.1750  -3.8811  -3.8740  -3.8192  -3.8073
    -3.6325  -3.5920  -3.4416  -3.4032  -3.1126  -3.0979  -2.9236  -2.8963
    -0.7296  -0.7158  -0.2147  -0.1966  -0.1552  -0.1445  -0.0076   0.0052
     0.0866   0.1016   0.2686   0.2782   0.3243   0.3370   0.4256   0.4737
     0.5540   0.5628   0.6917   0.7484   0.8336   0.8684   0.9552   0.9682
     1.0467   1.0703   1.1337   1.1477   1.3807   1.3976   1.4371   1.4564

     occupation numbers 
     1.0000   1.0000   1.0000   1.0000   1.0000   1.0000   1.0000   1.0000
     1.0000   1.0000   1.0000   1.0000   1.0000   1.0000   1.0000   1.0000
     1.0000   1.0000   1.0000   1.0000   1.0000   1.0000   1.0000   1.0000
     1.0000   1.0000   1.0000   1.0000   1.0000   1.0000   1.0000   1.0000
     1.0000   1.0000   1.0000   1.0000   1.0000   1.0000   1.0000   1.0000
     1.0000   1.0000   1.0000   1.0000   1.0000   1.0000   1.0000   1.0000
     1.0000   1.0000   1.0000   1.0000   1.0000   1.0000   1.0000   1.0000
     1.0000   1.0000   1.0000   1.0000   1.0000   1.0000   1.0000   1.0000
     1.0000   1.0000   1.0000   1.0000   1.0000   1.0000   1.0000   1.0000
     1.0000   1.0000   1.0000   1.0000   1.0000   1.0000   1.0000   1.0000
     1.0000   1.0000   1.0000   1.0000   1.0000   1.0000   1.0000   1.0000
     1.0000   1.0000   1.0000   1.0000   1.0000   1.0000   1.0000   1.0000
     1.0000   1.0000   1.0000   1.0000   1.0000   1.0000   1.0000   1.0000
     1.0000   1.0000   1.0000   1.0000   1.0000   1.0000   1.0000   1.0000

          k = 0.0574 0.0344-0.0398 ( 57999 PWs)   bands (ev):

   -23.8226 -23.8202 -23.8015 -23.7965 -23.5089 -23.5083 -23.4971 -23.4945
   -19.0540 -19.0536 -19.0412 -19.0377 -18.7361 -18.7352 -18.7053 -18.7035
   -18.1535 -18.1379 -17.1042 -17.0752 -16.9655 -16.9645 -15.9637 -15.9527
   -12.0072 -12.0008 -11.9300 -11.8872 -11.7301 -11.7033 -11.6704 -11.6662
    -8.8028  -8.7419  -8.1565  -8.1425  -7.4371  -7.4180  -7.3683  -7.2848
    -6.9641  -6.8746  -6.4972  -6.4533  -6.3956  -6.3738  -6.3355  -6.2784
    -6.1161  -6.0711  -5.8782  -5.8455  -5.7871  -5.7806  -5.6997  -5.6678
    -5.5013  -5.4897  -5.3803  -5.3434  -5.0586  -5.0033  -4.8479  -4.8235
    -4.2951  -4.2777  -4.1794  -4.1618  -3.9232  -3.9196  -3.7695  -3.7643
    -3.6134  -3.6010  -3.4785  -3.4196  -3.1114  -3.0919  -2.9267  -2.9026
    -0.6795  -0.6554  -0.2107  -0.1891  -0.1636  -0.1466  -0.0209  -0.0115
     0.0211   0.0471   0.2194   0.2554   0.3079   0.3286   0.3716   0.3966
     0.6402   0.6697   0.7526   0.7582   0.8519   0.8640   0.9505   0.9552
     1.0581   1.0794   1.1532   1.1782   1.3868   1.3959   1.4129   1.4263

     occupation numbers 
     1.0000   1.0000   1.0000   1.0000   1.0000   1.0000   1.0000   1.0000
     1.0000   1.0000   1.0000   1.0000   1.0000   1.0000   1.0000   1.0000
     1.0000   1.0000   1.0000   1.0000   1.0000   1.0000   1.0000   1.0000
     1.0000   1.0000   1.0000   1.0000   1.0000   1.0000   1.0000   1.0000
     1.0000   1.0000   1.0000   1.0000   1.0000   1.0000   1.0000   1.0000
     1.0000   1.0000   1.0000   1.0000   1.0000   1.0000   1.0000   1.0000
     1.0000   1.0000   1.0000   1.0000   1.0000   1.0000   1.0000   1.0000
     1.0000   1.0000   1.0000   1.0000   1.0000   1.0000   1.0000   1.0000
     1.0000   1.0000   1.0000   1.0000   1.0000   1.0000   1.0000   1.0000
     1.0000   1.0000   1.0000   1.0000   1.0000   1.0000   1.0000   1.0000
     1.0000   1.0000   1.0000   1.0000   1.0000   1.0000   1.0000   1.0000
     1.0000   1.0000   1.0000   1.0000   1.0000   1.0000   1.0000   1.0000
     1.0000   1.0000   1.0000   1.0000   1.0000   1.0000   1.0000   1.0000
     1.0000   1.0000   1.0000   1.0000   1.0000   1.0000   1.0000   1.0000

          k = 0.0574 0.0344-0.0049 ( 57920 PWs)   bands (ev):

   -23.8244 -23.8198 -23.8007 -23.7970 -23.5090 -23.5074 -23.4961 -23.4953
   -19.0524 -19.0519 -19.0404 -19.0403 -18.7274 -18.7271 -18.7126 -18.7120
   -18.1479 -18.1366 -17.1019 -17.0808 -16.9757 -16.9757 -15.9542 -15.9472
   -11.9909 -11.9855 -11.9294 -11.8927 -11.7440 -11.7182 -11.6676 -11.6645
    -8.7870  -8.7517  -8.1613  -8.1580  -7.4509  -7.4484  -7.4069  -7.3602
    -6.9002  -6.8623  -6.5046  -6.4933  -6.3534  -6.3431  -6.2666  -6.2554
    -6.0427  -6.0359  -5.8671  -5.8446  -5.7613  -5.7498  -5.6554  -5.6501
    -5.5325  -5.5158  -5.4467  -5.4423  -5.0329  -5.0203  -4.8068  -4.8058
    -4.3498  -4.3326  -4.2689  -4.2436  -3.9232  -3.9042  -3.6918  -3.6881
    -3.5733  -3.5488  -3.5232  -3.4843  -3.0763  -3.0593  -2.9399  -2.9319
    -0.5948  -0.5751  -0.2123  -0.2023  -0.1536  -0.1318  -0.1192  -0.1005
     0.0064   0.0280   0.1719   0.2015   0.2852   0.3076   0.4200   0.4420
     0.6661   0.7041   0.7851   0.8101   0.8496   0.8801   0.9823   0.9877
     1.0465   1.0561   1.1241   1.1636   1.3769   1.3787   1.4018   1.4106

     occupation numbers 
     1.0000   1.0000   1.0000   1.0000   1.0000   1.0000   1.0000   1.0000
     1.0000   1.0000   1.0000   1.0000   1.0000   1.0000   1.0000   1.0000
     1.0000   1.0000   1.0000   1.0000   1.0000   1.0000   1.0000   1.0000
     1.0000   1.0000   1.0000   1.0000   1.0000   1.0000   1.0000   1.0000
     1.0000   1.0000   1.0000   1.0000   1.0000   1.0000   1.0000   1.0000
     1.0000   1.0000   1.0000   1.0000   1.0000   1.0000   1.0000   1.0000
     1.0000   1.0000   1.0000   1.0000   1.0000   1.0000   1.0000   1.0000
     1.0000   1.0000   1.0000   1.0000   1.0000   1.0000   1.0000   1.0000
     1.0000   1.0000   1.0000   1.0000   1.0000   1.0000   1.0000   1.0000
     1.0000   1.0000   1.0000   1.0000   1.0000   1.0000   1.0000   1.0000
     1.0000   1.0000   1.0000   1.0000   1.0000   1.0000   1.0000   1.0000
     1.0000   1.0000   1.0000   1.0000   1.0000   1.0000   1.0000   1.0000
     1.0000   1.0000   1.0000   1.0000   1.0000   1.0000   1.0000   1.0000
     1.0000   1.0000   1.0000   1.0000   1.0000   1.0000   1.0000   1.0000

          k =-0.0191 0.0115-0.0217 ( 57985 PWs)   bands (ev):

   -23.8374 -23.8138 -23.8028 -23.7929 -23.5101 -23.4993 -23.4983 -23.4962
   -19.0563 -19.0508 -19.0438 -19.0308 -18.7219 -18.7212 -18.7180 -18.7165
   -18.1503 -18.1220 -17.1199 -17.0656 -16.9749 -16.9713 -15.9595 -15.9461
   -12.0089 -11.9853 -11.9762 -11.8821 -11.8189 -11.7404 -11.6626 -11.6412
    -8.8013  -8.7606  -8.1765  -8.1377  -7.4639  -7.4171  -7.3388  -7.3338
    -6.7702  -6.6648  -6.5212  -6.4222  -6.4030  -6.3236  -6.2697  -6.1789
    -6.0418  -6.0073  -5.9849  -5.8501  -5.8054  -5.7257  -5.6539  -5.6148
    -5.5579  -5.5348  -5.4602  -5.4140  -5.0599  -4.9423  -4.8443  -4.8325
    -4.3598  -4.3491  -4.3206  -4.2740  -4.1286  -4.0187  -3.7880  -3.7756
    -3.6047  -3.4671  -3.4063  -3.3624  -3.0749  -3.0351  -2.9422  -2.9226
    -0.7161  -0.7133  -0.2389  -0.2326  -0.1305  -0.0835  -0.0197   0.0055
     0.0648   0.0923   0.2461   0.2824   0.2997   0.3319   0.4563   0.4690
     0.5101   0.5373   0.7089   0.7687   0.8535   0.9042   0.9573   0.9719
     1.0128   1.1120   1.1419   1.2039   1.2778   1.4226   1.4399   1.4638

     occupation numbers 
     1.0000   1.0000   1.0000   1.0000   1.0000   1.0000   1.0000   1.0000
     1.0000   1.0000   1.0000   1.0000   1.0000   1.0000   1.0000   1.0000
     1.0000   1.0000   1.0000   1.0000   1.0000   1.0000   1.0000   1.0000
     1.0000   1.0000   1.0000   1.0000   1.0000   1.0000   1.0000   1.0000
     1.0000   1.0000   1.0000   1.0000   1.0000   1.0000   1.0000   1.0000
     1.0000   1.0000   1.0000   1.0000   1.0000   1.0000   1.0000   1.0000
     1.0000   1.0000   1.0000   1.0000   1.0000   1.0000   1.0000   1.0000
     1.0000   1.0000   1.0000   1.0000   1.0000   1.0000   1.0000   1.0000
     1.0000   1.0000   1.0000   1.0000   1.0000   1.0000   1.0000   1.0000
     1.0000   1.0000   1.0000   1.0000   1.0000   1.0000   1.0000   1.0000
     1.0000   1.0000   1.0000   1.0000   1.0000   1.0000   1.0000   1.0000
     1.0000   1.0000   1.0000   1.0000   1.0000   1.0000   1.0000   1.0000
     1.0000   1.0000   1.0000   1.0000   1.0000   1.0000   1.0000   1.0000
     1.0000   1.0000   1.0000   1.0000   1.0000   1.0000   1.0000   1.0000

          k =-0.0191 0.0115-0.0566 ( 58020 PWs)   bands (ev):

   -23.8291 -23.8197 -23.7990 -23.7979 -23.5105 -23.5068 -23.4960 -23.4919
   -19.0549 -19.0498 -19.0446 -19.0342 -18.7280 -18.7272 -18.7126 -18.7104
   -18.1378 -18.1372 -17.0935 -17.0910 -16.9701 -16.9672 -15.9551 -15.9527
   -11.9941 -11.9860 -11.9529 -11.9296 -11.7768 -11.7611 -11.6717 -11.6603
    -8.7819  -8.7441  -8.1589  -8.1320  -7.4752  -7.4205  -7.3179  -7.2321
    -6.8198  -6.6924  -6.5061  -6.4604  -6.4517  -6.3427  -6.2935  -6.2554
    -6.0967  -6.0688  -5.8634  -5.8124  -5.7895  -5.7368  -5.7069  -5.6625
    -5.6127  -5.5551  -5.3797  -5.3303  -5.0636  -4.9833  -4.8391  -4.8011
    -4.3205  -4.3120  -4.2534  -4.1831  -4.0524  -4.0191  -3.9017  -3.8995
    -3.5790  -3.5171  -3.3454  -3.3333  -3.1014  -3.0974  -2.9236  -2.8973
    -0.6794  -0.6493  -0.2524  -0.2397  -0.1415  -0.1094  -0.0543  -0.0290
     0.0026   0.0418   0.1564   0.2186   0.3156   0.3720   0.4247   0.4382
     0.6211   0.6821   0.7352   0.7747   0.8610   0.8766   0.9160   0.9722
     1.0646   1.1102   1.1831   1.2047   1.2938   1.3729   1.4420   1.4679

     occupation numbers 
     1.0000   1.0000   1.0000   1.0000   1.0000   1.0000   1.0000   1.0000
     1.0000   1.0000   1.0000   1.0000   1.0000   1.0000   1.0000   1.0000
     1.0000   1.0000   1.0000   1.0000   1.0000   1.0000   1.0000   1.0000
     1.0000   1.0000   1.0000   1.0000   1.0000   1.0000   1.0000   1.0000
     1.0000   1.0000   1.0000   1.0000   1.0000   1.0000   1.0000   1.0000
     1.0000   1.0000   1.0000   1.0000   1.0000   1.0000   1.0000   1.0000
     1.0000   1.0000   1.0000   1.0000   1.0000   1.0000   1.0000   1.0000
     1.0000   1.0000   1.0000   1.0000   1.0000   1.0000   1.0000   1.0000
     1.0000   1.0000   1.0000   1.0000   1.0000   1.0000   1.0000   1.0000
     1.0000   1.0000   1.0000   1.0000   1.0000   1.0000   1.0000   1.0000
     1.0000   1.0000   1.0000   1.0000   1.0000   1.0000   1.0000   1.0000
     1.0000   1.0000   1.0000   1.0000   1.0000   1.0000   1.0000   1.0000
     1.0000   1.0000   1.0000   1.0000   1.0000   1.0000   1.0000   1.0000
     1.0000   1.0000   1.0000   1.0000   1.0000   1.0000   1.0000   1.0000

          k =-0.0191 0.0115 0.0482 ( 57996 PWs)   bands (ev):

   -23.8302 -23.8190 -23.8028 -23.7936 -23.5120 -23.5087 -23.4930 -23.4916
   -19.0520 -19.0509 -19.0406 -19.0402 -18.7291 -18.7288 -18.7110 -18.7091
   -18.1504 -18.1231 -17.1173 -17.0666 -16.9725 -16.9716 -15.9587 -15.9420
   -12.0189 -11.9852 -11.9731 -11.8967 -11.7999 -11.7314 -11.6715 -11.6632
    -8.7908  -8.7035  -8.1456  -8.1411  -7.4698  -7.4528  -7.3268  -7.2066
    -6.8335  -6.7165  -6.5013  -6.4630  -6.4183  -6.3910  -6.3016  -6.2683
    -6.1236  -6.0907  -5.8610  -5.8290  -5.7393  -5.7008  -5.6867  -5.6699
    -5.6109  -5.5389  -5.3848  -5.3260  -5.0594  -4.9817  -4.8267  -4.7930
    -4.3517  -4.2764  -4.2452  -4.1798  -4.0792  -4.0499  -3.9124  -3.8501
    -3.5769  -3.5259  -3.3993  -3.3119  -3.1107  -3.0820  -2.9199  -2.9040
    -0.6103  -0.5509  -0.2409  -0.2300  -0.2084  -0.1715  -0.0922  -0.0756
    -0.0098  -0.0031   0.1248   0.2123   0.3335   0.3749   0.3797   0.4302
     0.6615   0.7463   0.7722   0.7855   0.8350   0.9267   0.9281   0.9535
     1.0632   1.1173   1.1884   1.2455   1.3027   1.3340   1.4306   1.4535

     occupation numbers 
     1.0000   1.0000   1.0000   1.0000   1.0000   1.0000   1.0000   1.0000
     1.0000   1.0000   1.0000   1.0000   1.0000   1.0000   1.0000   1.0000
     1.0000   1.0000   1.0000   1.0000   1.0000   1.0000   1.0000   1.0000
     1.0000   1.0000   1.0000   1.0000   1.0000   1.0000   1.0000   1.0000
     1.0000   1.0000   1.0000   1.0000   1.0000   1.0000   1.0000   1.0000
     1.0000   1.0000   1.0000   1.0000   1.0000   1.0000   1.0000   1.0000
     1.0000   1.0000   1.0000   1.0000   1.0000   1.0000   1.0000   1.0000
     1.0000   1.0000   1.0000   1.0000   1.0000   1.0000   1.0000   1.0000
     1.0000   1.0000   1.0000   1.0000   1.0000   1.0000   1.0000   1.0000
     1.0000   1.0000   1.0000   1.0000   1.0000   1.0000   1.0000   1.0000
     1.0000   1.0000   1.0000   1.0000   1.0000   1.0000   1.0000   1.0000
     1.0000   1.0000   1.0000   1.0000   1.0000   1.0000   1.0000   1.0000
     1.0000   1.0000   1.0000   1.0000   1.0000   1.0000   1.0000   1.0000
     1.0000   1.0000   1.0000   1.0000   1.0000   1.0000   1.0000   1.0000

          k =-0.0191 0.0115 0.0133 ( 58005 PWs)   bands (ev):

   -23.8379 -23.8140 -23.8039 -23.7911 -23.5122 -23.5029 -23.4950 -23.4938
   -19.0550 -19.0494 -19.0440 -19.0336 -18.7250 -18.7248 -18.7138 -18.7137
   -18.1551 -18.1157 -17.1295 -17.0552 -16.9776 -16.9754 -15.9598 -15.9386
   -12.0323 -11.9905 -11.9722 -11.8747 -11.8195 -11.7287 -11.6618 -11.6435
    -8.8125  -8.7178  -8.1692  -8.1412  -7.4694  -7.4431  -7.3710  -7.2832
    -6.7392  -6.7252  -6.5149  -6.4135  -6.4087  -6.3658  -6.2715  -6.1994
    -6.0943  -6.0441  -5.9053  -5.8536  -5.7693  -5.7259  -5.6370  -5.6062
    -5.5700  -5.5220  -5.4306  -5.4225  -5.0262  -4.9790  -4.8346  -4.8083
    -4.3608  -4.3457  -4.3143  -4.2900  -4.1412  -4.0253  -3.7985  -3.7367
    -3.6273  -3.4790  -3.4187  -3.3591  -3.0837  -3.0282  -2.9337  -2.9318
    -0.6664  -0.6443  -0.2272  -0.2209  -0.1334  -0.1027  -0.0326  -0.0125
     0.0030   0.0422   0.1460   0.2128   0.2656   0.3493   0.3973   0.4691
     0.6321   0.6721   0.7083   0.7895   0.8478   0.9074   0.9682   0.9859
     1.0172   1.0898   1.1666   1.2297   1.2717   1.4030   1.4251   1.4545

     occupation numbers 
     1.0000   1.0000   1.0000   1.0000   1.0000   1.0000   1.0000   1.0000
     1.0000   1.0000   1.0000   1.0000   1.0000   1.0000   1.0000   1.0000
     1.0000   1.0000   1.0000   1.0000   1.0000   1.0000   1.0000   1.0000
     1.0000   1.0000   1.0000   1.0000   1.0000   1.0000   1.0000   1.0000
     1.0000   1.0000   1.0000   1.0000   1.0000   1.0000   1.0000   1.0000
     1.0000   1.0000   1.0000   1.0000   1.0000   1.0000   1.0000   1.0000
     1.0000   1.0000   1.0000   1.0000   1.0000   1.0000   1.0000   1.0000
     1.0000   1.0000   1.0000   1.0000   1.0000   1.0000   1.0000   1.0000
     1.0000   1.0000   1.0000   1.0000   1.0000   1.0000   1.0000   1.0000
     1.0000   1.0000   1.0000   1.0000   1.0000   1.0000   1.0000   1.0000
     1.0000   1.0000   1.0000   1.0000   1.0000   1.0000   1.0000   1.0000
     1.0000   1.0000   1.0000   1.0000   1.0000   1.0000   1.0000   1.0000
     1.0000   1.0000   1.0000   1.0000   1.0000   1.0000   1.0000   1.0000
     1.0000   1.0000   1.0000   1.0000   1.0000   1.0000   1.0000   1.0000

          k =-0.0191 0.0344-0.0217 ( 58002 PWs)   bands (ev):

   -23.8318 -23.8228 -23.7979 -23.7946 -23.5063 -23.5014 -23.4983 -23.4978
   -19.0561 -19.0544 -19.0380 -19.0333 -18.7217 -18.7214 -18.7174 -18.7169
   -18.1423 -18.1306 -17.1039 -17.0815 -16.9737 -16.9722 -15.9555 -15.9500
   -11.9953 -11.9877 -11.9653 -11.9297 -11.7805 -11.7533 -11.6562 -11.6474
    -8.7905  -8.7736  -8.1659  -8.1497  -7.4544  -7.4347  -7.3291  -7.3270
    -6.7481  -6.7008  -6.4645  -6.4183  -6.4128  -6.3718  -6.2436  -6.2145
    -6.0562  -6.0347  -5.9014  -5.8641  -5.8062  -5.7606  -5.6694  -5.6524
    -5.5191  -5.5041  -5.4373  -5.4135  -5.0119  -4.9408  -4.8956  -4.8671
    -4.3727  -4.3624  -4.2845  -4.2643  -4.1045  -4.0518  -3.7823  -3.7743
    -3.5641  -3.5043  -3.3943  -3.3735  -3.0674  -3.0514  -2.9330  -2.9257
    -0.7117  -0.7098  -0.2298  -0.2199  -0.1477  -0.1140  -0.0398  -0.0330
     0.0998   0.1082   0.2756   0.2861   0.3216   0.3295   0.4697   0.4819
     0.4883   0.5263   0.7181   0.7494   0.8369   0.8597   0.9760   0.9980
     1.0332   1.0806   1.1695   1.1924   1.3208   1.3803   1.4486   1.4557

     occupation numbers 
     1.0000   1.0000   1.0000   1.0000   1.0000   1.0000   1.0000   1.0000
     1.0000   1.0000   1.0000   1.0000   1.0000   1.0000   1.0000   1.0000
     1.0000   1.0000   1.0000   1.0000   1.0000   1.0000   1.0000   1.0000
     1.0000   1.0000   1.0000   1.0000   1.0000   1.0000   1.0000   1.0000
     1.0000   1.0000   1.0000   1.0000   1.0000   1.0000   1.0000   1.0000
     1.0000   1.0000   1.0000   1.0000   1.0000   1.0000   1.0000   1.0000
     1.0000   1.0000   1.0000   1.0000   1.0000   1.0000   1.0000   1.0000
     1.0000   1.0000   1.0000   1.0000   1.0000   1.0000   1.0000   1.0000
     1.0000   1.0000   1.0000   1.0000   1.0000   1.0000   1.0000   1.0000
     1.0000   1.0000   1.0000   1.0000   1.0000   1.0000   1.0000   1.0000
     1.0000   1.0000   1.0000   1.0000   1.0000   1.0000   1.0000   1.0000
     1.0000   1.0000   1.0000   1.0000   1.0000   1.0000   1.0000   1.0000
     1.0000   1.0000   1.0000   1.0000   1.0000   1.0000   1.0000   1.0000
     1.0000   1.0000   1.0000   1.0000   1.0000   1.0000   1.0000   1.0000

          k =-0.0191 0.0344-0.0566 ( 58010 PWs)   bands (ev):

   -23.8260 -23.8220 -23.7992 -23.7987 -23.5087 -23.5072 -23.4954 -23.4937
   -19.0547 -19.0532 -19.0396 -19.0359 -18.7277 -18.7274 -18.7120 -18.7111
   -18.1376 -18.1374 -17.0932 -17.0922 -16.9688 -16.9676 -15.9544 -15.9534
   -11.9908 -11.9866 -11.9501 -11.9394 -11.7691 -11.7622 -11.6695 -11.6647
    -8.7711  -8.7554  -8.1515  -8.1403  -7.4579  -7.4358  -7.2919  -7.2575
    -6.8003  -6.7536  -6.4859  -6.4715  -6.4036  -6.3558  -6.3020  -6.2796
    -6.0554  -6.0208  -5.8834  -5.8267  -5.7768  -5.7421  -5.7085  -5.6892
    -5.6006  -5.5625  -5.3885  -5.3639  -4.9961  -4.9431  -4.8915  -4.8507
    -4.2936  -4.2764  -4.2505  -4.2156  -4.0489  -4.0351  -3.9018  -3.8999
    -3.5546  -3.5287  -3.3435  -3.3381  -3.0967  -3.0922  -2.9239  -2.9110
    -0.6692  -0.6568  -0.2435  -0.2333  -0.1559  -0.1285  -0.0686  -0.0524
     0.0297   0.0462   0.2078   0.2284   0.3217   0.3496   0.4150   0.4289
     0.6397   0.6658   0.7470   0.7657   0.8663   0.8821   0.9167   0.9542
     1.0664   1.0907   1.1943   1.2026   1.3222   1.3537   1.4481   1.4587

     occupation numbers 
     1.0000   1.0000   1.0000   1.0000   1.0000   1.0000   1.0000   1.0000
     1.0000   1.0000   1.0000   1.0000   1.0000   1.0000   1.0000   1.0000
     1.0000   1.0000   1.0000   1.0000   1.0000   1.0000   1.0000   1.0000
     1.0000   1.0000   1.0000   1.0000   1.0000   1.0000   1.0000   1.0000
     1.0000   1.0000   1.0000   1.0000   1.0000   1.0000   1.0000   1.0000
     1.0000   1.0000   1.0000   1.0000   1.0000   1.0000   1.0000   1.0000
     1.0000   1.0000   1.0000   1.0000   1.0000   1.0000   1.0000   1.0000
     1.0000   1.0000   1.0000   1.0000   1.0000   1.0000   1.0000   1.0000
     1.0000   1.0000   1.0000   1.0000   1.0000   1.0000   1.0000   1.0000
     1.0000   1.0000   1.0000   1.0000   1.0000   1.0000   1.0000   1.0000
     1.0000   1.0000   1.0000   1.0000   1.0000   1.0000   1.0000   1.0000
     1.0000   1.0000   1.0000   1.0000   1.0000   1.0000   1.0000   1.0000
     1.0000   1.0000   1.0000   1.0000   1.0000   1.0000   1.0000   1.0000
     1.0000   1.0000   1.0000   1.0000   1.0000   1.0000   1.0000   1.0000

          k =-0.0191 0.0344 0.0482 ( 58006 PWs)   bands (ev):

   -23.8270 -23.8224 -23.8001 -23.7963 -23.5105 -23.5091 -23.4930 -23.4924
   -19.0527 -19.0523 -19.0394 -19.0392 -18.7290 -18.7289 -18.7104 -18.7097
   -18.1426 -18.1313 -17.1026 -17.0817 -16.9720 -16.9716 -15.9537 -15.9468
   -12.0093 -11.9965 -11.9560 -11.9278 -11.7706 -11.7445 -11.6695 -11.6657
    -8.7663  -8.7302  -8.1458  -8.1436  -7.4609  -7.4550  -7.2951  -7.2441
    -6.7974  -6.7479  -6.5086  -6.4779  -6.4008  -6.3839  -6.3343  -6.3147
    -6.0328  -6.0146  -5.8996  -5.8678  -5.7316  -5.7123  -5.6875  -5.6627
    -5.6017  -5.5626  -5.3765  -5.3451  -5.0295  -4.9755  -4.8519  -4.8175
    -4.3373  -4.3054  -4.2017  -4.1761  -4.0802  -4.0680  -3.8948  -3.8693
    -3.5537  -3.5325  -3.3740  -3.3376  -3.0959  -3.0827  -2.9254  -2.9194
    -0.5936  -0.5694  -0.2415  -0.2356  -0.1766  -0.1575  -0.1181  -0.0965
    -0.0257  -0.0139   0.1781   0.2127   0.3377   0.3560   0.3912   0.4198
     0.6849   0.7197   0.7926   0.8068   0.8295   0.8763   0.9422   0.9535
     1.0755   1.0921   1.2151   1.2359   1.3095   1.3235   1.4363   1.4463

     occupation numbers 
     1.0000   1.0000   1.0000   1.0000   1.0000   1.0000   1.0000   1.0000
     1.0000   1.0000   1.0000   1.0000   1.0000   1.0000   1.0000   1.0000
     1.0000   1.0000   1.0000   1.0000   1.0000   1.0000   1.0000   1.0000
     1.0000   1.0000   1.0000   1.0000   1.0000   1.0000   1.0000   1.0000
     1.0000   1.0000   1.0000   1.0000   1.0000   1.0000   1.0000   1.0000
     1.0000   1.0000   1.0000   1.0000   1.0000   1.0000   1.0000   1.0000
     1.0000   1.0000   1.0000   1.0000   1.0000   1.0000   1.0000   1.0000
     1.0000   1.0000   1.0000   1.0000   1.0000   1.0000   1.0000   1.0000
     1.0000   1.0000   1.0000   1.0000   1.0000   1.0000   1.0000   1.0000
     1.0000   1.0000   1.0000   1.0000   1.0000   1.0000   1.0000   1.0000
     1.0000   1.0000   1.0000   1.0000   1.0000   1.0000   1.0000   1.0000
     1.0000   1.0000   1.0000   1.0000   1.0000   1.0000   1.0000   1.0000
     1.0000   1.0000   1.0000   1.0000   1.0000   1.0000   1.0000   1.0000
     1.0000   1.0000   1.0000   1.0000   1.0000   1.0000   1.0000   1.0000

          k =-0.0191 0.0344 0.0133 ( 58002 PWs)   bands (ev):

   -23.8325 -23.8235 -23.7978 -23.7934 -23.5090 -23.5051 -23.4950 -23.4946
   -19.0548 -19.0532 -19.0388 -19.0352 -18.7250 -18.7249 -18.7138 -18.7137
   -18.1441 -18.1278 -17.1075 -17.0767 -16.9770 -16.9761 -15.9534 -15.9446
   -12.0162 -11.9993 -11.9589 -11.9256 -11.7749 -11.7441 -11.6557 -11.6482
    -8.7866  -8.7474  -8.1627  -8.1511  -7.4627  -7.4505  -7.3415  -7.3066
    -6.7135  -6.6966  -6.5072  -6.4512  -6.4055  -6.3822  -6.2962  -6.2614
    -6.0312  -6.0069  -5.9129  -5.8842  -5.7613  -5.7378  -5.6438  -5.6428
    -5.5195  -5.5053  -5.4206  -5.4109  -5.0220  -4.9883  -4.8509  -4.8298
    -4.3769  -4.3721  -4.2862  -4.2631  -4.1178  -4.0616  -3.7782  -3.7527
    -3.5728  -3.5101  -3.4047  -3.3791  -3.0707  -3.0480  -2.9325  -2.9318
    -0.6562  -0.6470  -0.2203  -0.2096  -0.1488  -0.1161  -0.0435  -0.0338
     0.0024   0.0242   0.1805   0.2110   0.2926   0.3305   0.4360   0.4673
     0.6467   0.6777   0.7081   0.7655   0.8229   0.8619   0.9891   0.9936
     1.0449   1.0733   1.1967   1.2214   1.3034   1.3607   1.4354   1.4437

     occupation numbers 
     1.0000   1.0000   1.0000   1.0000   1.0000   1.0000   1.0000   1.0000
     1.0000   1.0000   1.0000   1.0000   1.0000   1.0000   1.0000   1.0000
     1.0000   1.0000   1.0000   1.0000   1.0000   1.0000   1.0000   1.0000
     1.0000   1.0000   1.0000   1.0000   1.0000   1.0000   1.0000   1.0000
     1.0000   1.0000   1.0000   1.0000   1.0000   1.0000   1.0000   1.0000
     1.0000   1.0000   1.0000   1.0000   1.0000   1.0000   1.0000   1.0000
     1.0000   1.0000   1.0000   1.0000   1.0000   1.0000   1.0000   1.0000
     1.0000   1.0000   1.0000   1.0000   1.0000   1.0000   1.0000   1.0000
     1.0000   1.0000   1.0000   1.0000   1.0000   1.0000   1.0000   1.0000
     1.0000   1.0000   1.0000   1.0000   1.0000   1.0000   1.0000   1.0000
     1.0000   1.0000   1.0000   1.0000   1.0000   1.0000   1.0000   1.0000
     1.0000   1.0000   1.0000   1.0000   1.0000   1.0000   1.0000   1.0000
     1.0000   1.0000   1.0000   1.0000   1.0000   1.0000   1.0000   1.0000
     1.0000   1.0000   1.0000   1.0000   1.0000   1.0000   1.0000   1.0000

          k =-0.0574 0.0115-0.0300 ( 58006 PWs)   bands (ev):

   -23.8266 -23.8165 -23.7997 -23.7990 -23.5081 -23.5042 -23.4999 -23.4958
   -19.0543 -19.0501 -19.0453 -19.0351 -18.7258 -18.7246 -18.7154 -18.7135
   -18.1430 -18.1425 -17.0928 -17.0908 -16.9733 -16.9712 -15.9557 -15.9531
   -11.9806 -11.9767 -11.9200 -11.9007 -11.7487 -11.7257 -11.6759 -11.6565
    -8.8021  -8.7673  -8.1763  -8.1521  -7.4615  -7.4278  -7.4047  -7.3471
    -6.8931  -6.8230  -6.5933  -6.4630  -6.3691  -6.3273  -6.1700  -6.1350
    -6.1121  -6.0607  -5.9193  -5.8537  -5.7980  -5.7520  -5.6633  -5.6385
    -5.5496  -5.5097  -5.4569  -5.4364  -5.0687  -4.9525  -4.8303  -4.8265
    -4.3478  -4.3254  -4.2791  -4.2297  -3.9356  -3.8798  -3.7300  -3.6823
    -3.6427  -3.5149  -3.4755  -3.4668  -3.0706  -3.0675  -2.9442  -2.9108
    -0.6673  -0.6590  -0.2188  -0.2131  -0.1272  -0.1064  -0.0414  -0.0135
     0.0191   0.0477   0.1921   0.2132   0.2806   0.2974   0.4393   0.4600
     0.6545   0.6656   0.7388   0.7863   0.8618   0.8670   0.9592   0.9743
     1.0277   1.0751   1.1001   1.1457   1.3567   1.3921   1.4155   1.4561

     occupation numbers 
[...]
     atom   38 type  4   force =    -1.10648067   -6.64893907    9.07334747
     atom   39 type  1   force =     2.21464971    2.41790624    1.89448508
     atom   40 type  1   force =    -0.20533670    1.56236605    0.08538185
     atom   41 type  4   force =     9.79959499    3.72964254   -4.41216215
     atom   42 type  1   force =    -2.86014268    0.60163813   -1.86708552
     atom   43 type  3   force =     0.16327792   -1.80321192   -2.29167702
     atom   44 type  3   force =    -2.32388839    0.91710256   -1.45143141
     atom   45 type  2   force =    -2.58518124   -0.81037346   -4.22179901
     atom   46 type  4   force =    -8.79833705   -4.63312267   -1.53088545
     atom   47 type  3   force =    -1.15127804   -2.48057021    0.57269431
     atom   48 type  3   force =    -2.00995995    0.07376068   -1.76269063
     atom   49 type  2   force =    -3.60374138   -2.90359268   -1.09081644
     atom   50 type  4   force =    -1.50285569   -5.05267038    9.77781568
     atom   51 type  1   force =    -0.36572793   -0.11664544    1.10158722
     atom   52 type  4   force =    -1.10643823    6.64889627    9.07341860
     atom   53 type  1   force =     2.21468277   -2.41800838    1.89453076
     atom   54 type  1   force =    -0.20548129   -1.56241762    0.08560909
     atom   55 type  4   force =     9.79945879   -3.72965283   -4.41203092
     atom   56 type  1   force =    -2.86016820   -0.60165508   -1.86698411
     The core correction contribution to forces
     atom    1 type  1   force =    -0.00304671   -0.00641661   -0.00186029
     atom    2 type  4   force =     0.01877556    0.00362457   -0.01191912
     atom    3 type  1   force =     0.00035690    0.00163634   -0.00002252
     atom    4 type  1   force =     0.00930065    0.00643939    0.00171044
     atom    5 type  4   force =    -0.00123698   -0.01432989    0.01743167
     atom    6 type  1   force =    -0.00111275   -0.00158614   -0.00024876
     atom    7 type  4   force =    -0.00406981    0.00891339    0.02027526
     atom    8 type  2   force =    -0.01346075    0.00959043   -0.00477060
     atom    9 type  3   force =     0.00000000    0.00000000    0.00000000
     atom   10 type  3   force =     0.00000000    0.00000000    0.00000000
     atom   11 type  4   force =    -0.01772123    0.01154648   -0.00665092
     atom   12 type  2   force =    -0.00899157    0.00388372   -0.01572947
     atom   13 type  3   force =     0.00000000    0.00000000    0.00000000
     atom   14 type  3   force =     0.00000000    0.00000000    0.00000000
     atom   15 type  3   force =     0.00000000    0.00000000    0.00000000
     atom   16 type  3   force =     0.00000000    0.00000000    0.00000000
     atom   17 type  2   force =    -0.00898976   -0.00388374   -0.01572885
     atom   18 type  4   force =    -0.01772120   -0.01154650   -0.00665090
     atom   19 type  3   force =     0.00000000    0.00000000    0.00000000
     atom   20 type  3   force =     0.00000000    0.00000000    0.00000000
     atom   21 type  2   force =    -0.01345678   -0.00959050   -0.00476959
     atom   22 type  4   force =    -0.00407013   -0.00891346    0.02027582
     atom   23 type  1   force =    -0.00111278    0.00158623   -0.00024889
     atom   24 type  4   force =    -0.00123687    0.01432988    0.01743166
     atom   25 type  1   force =     0.00930055   -0.00643929    0.00171031
     atom   26 type  1   force =     0.00035522   -0.00163674   -0.00002008
     atom   27 type  4   force =     0.01877522   -0.00362463   -0.01191867
     atom   28 type  1   force =    -0.00304669    0.00641661   -0.00186014
     atom   29 type  3   force =     0.00000000    0.00000000    0.00000000
     atom   30 type  3   force =     0.00000000    0.00000000    0.00000000
     atom   31 type  2   force =     0.00899157   -0.00388372    0.01572947
     atom   32 type  4   force =     0.01772123   -0.01154648    0.00665092
     atom   33 type  3   force =     0.00000000    0.00000000    0.00000000
     atom   34 type  3   force =     0.00000000    0.00000000    0.00000000
     atom   35 type  2   force =     0.01346075   -0.00959043    0.00477060
     atom   36 type  4   force =     0.00406981   -0.00891339   -0.02027526
     atom   37 type  1   force =     0.00111275    0.00158614    0.00024876
     atom   38 type  4   force =     0.00123698    0.01432989   -0.01743167
     atom   39 type  1   force =    -0.00930065   -0.00643939   -0.00171044
     atom   40 type  1   force =    -0.00035690   -0.00163634    0.00002252
     atom   41 type  4   force =    -0.01877556   -0.00362457    0.01191912
     atom   42 type  1   force =     0.00304671    0.00641661    0.00186029
     atom   43 type  3   force =     0.00000000    0.00000000    0.00000000
     atom   44 type  3   force =     0.00000000    0.00000000    0.00000000
     atom   45 type  2   force =     0.00898976    0.00388374    0.01572885
     atom   46 type  4   force =     0.01772120    0.01154650    0.00665090
     atom   47 type  3   force =     0.00000000    0.00000000    0.00000000
     atom   48 type  3   force =     0.00000000    0.00000000    0.00000000
     atom   49 type  2   force =     0.01345678    0.00959050    0.00476959
     atom   50 type  4   force =     0.00407013    0.00891346   -0.02027582
     atom   51 type  1   force =     0.00111278   -0.00158623    0.00024889
     atom   52 type  4   force =     0.00123687   -0.01432988   -0.01743166
     atom   53 type  1   force =    -0.00930055    0.00643929   -0.00171031
     atom   54 type  1   force =    -0.00035522    0.00163674    0.00002008
     atom   55 type  4   force =    -0.01877522    0.00362463    0.01191867
     atom   56 type  1   force =     0.00304669   -0.00641661    0.00186014
     The Hubbard contrib.    to forces
     atom    1 type  1   force =     0.00000000    0.00000000    0.00000000
     atom    2 type  4   force =     0.00000000    0.00000000    0.00000000
     atom    3 type  1   force =     0.00000000    0.00000000    0.00000000
     atom    4 type  1   force =     0.00000000    0.00000000    0.00000000
     atom    5 type  4   force =     0.00000000    0.00000000    0.00000000
     atom    6 type  1   force =     0.00000000    0.00000000    0.00000000
     atom    7 type  4   force =     0.00000000    0.00000000    0.00000000
     atom    8 type  2   force =     0.00000000    0.00000000    0.00000000
     atom    9 type  3   force =     0.00000000    0.00000000    0.00000000
     atom   10 type  3   force =     0.00000000    0.00000000    0.00000000
     atom   11 type  4   force =     0.00000000    0.00000000    0.00000000
     atom   12 type  2   force =     0.00000000    0.00000000    0.00000000
     atom   13 type  3   force =     0.00000000    0.00000000    0.00000000
     atom   14 type  3   force =     0.00000000    0.00000000    0.00000000
     atom   15 type  3   force =     0.00000000    0.00000000    0.00000000
     atom   16 type  3   force =     0.00000000    0.00000000    0.00000000
     atom   17 type  2   force =     0.00000000    0.00000000    0.00000000
     atom   18 type  4   force =     0.00000000    0.00000000    0.00000000
     atom   19 type  3   force =     0.00000000    0.00000000    0.00000000
     atom   20 type  3   force =     0.00000000    0.00000000    0.00000000
     atom   21 type  2   force =     0.00000000    0.00000000    0.00000000
     atom   22 type  4   force =     0.00000000    0.00000000    0.00000000
     atom   23 type  1   force =     0.00000000    0.00000000    0.00000000
     atom   24 type  4   force =     0.00000000    0.00000000    0.00000000
     atom   25 type  1   force =     0.00000000    0.00000000    0.00000000
     atom   26 type  1   force =     0.00000000    0.00000000    0.00000000
     atom   27 type  4   force =     0.00000000    0.00000000    0.00000000
     atom   28 type  1   force =     0.00000000    0.00000000    0.00000000
     atom   29 type  3   force =     0.00000000    0.00000000    0.00000000
     atom   30 type  3   force =     0.00000000    0.00000000    0.00000000
     atom   31 type  2   force =     0.00000000    0.00000000    0.00000000
     atom   32 type  4   force =     0.00000000    0.00000000    0.00000000
     atom   33 type  3   force =     0.00000000    0.00000000    0.00000000
     atom   34 type  3   force =     0.00000000    0.00000000    0.00000000
     atom   35 type  2   force =     0.00000000    0.00000000    0.00000000
     atom   36 type  4   force =     0.00000000    0.00000000    0.00000000
     atom   37 type  1   force =     0.00000000    0.00000000    0.00000000
     atom   38 type  4   force =     0.00000000    0.00000000    0.00000000
     atom   39 type  1   force =     0.00000000    0.00000000    0.00000000
     atom   40 type  1   force =     0.00000000    0.00000000    0.00000000
     atom   41 type  4   force =     0.00000000    0.00000000    0.00000000
     atom   42 type  1   force =     0.00000000    0.00000000    0.00000000
     atom   43 type  3   force =     0.00000000    0.00000000    0.00000000
     atom   44 type  3   force =     0.00000000    0.00000000    0.00000000
     atom   45 type  2   force =     0.00000000    0.00000000    0.00000000
     atom   46 type  4   force =     0.00000000    0.00000000    0.00000000
     atom   47 type  3   force =     0.00000000    0.00000000    0.00000000
     atom   48 type  3   force =     0.00000000    0.00000000    0.00000000
     atom   49 type  2   force =     0.00000000    0.00000000    0.00000000
     atom   50 type  4   force =     0.00000000    0.00000000    0.00000000
     atom   51 type  1   force =     0.00000000    0.00000000    0.00000000
     atom   52 type  4   force =     0.00000000    0.00000000    0.00000000
     atom   53 type  1   force =     0.00000000    0.00000000    0.00000000
     atom   54 type  1   force =     0.00000000    0.00000000    0.00000000
     atom   55 type  4   force =     0.00000000    0.00000000    0.00000000
     atom   56 type  1   force =     0.00000000    0.00000000    0.00000000
     The SCF correction term to forces
     atom    1 type  1   force =     0.00014439   -0.00009129   -0.00003160
     atom    2 type  4   force =    -0.00020871   -0.00016904    0.00012218
     atom    3 type  1   force =     0.00002784   -0.00028795   -0.00035405
     atom    4 type  1   force =     0.00011233   -0.00013207   -0.00026342
     atom    5 type  4   force =    -0.00018050   -0.00015334    0.00014536
     atom    6 type  1   force =    -0.00044027    0.00002463   -0.00008265
     atom    7 type  4   force =     0.00015283   -0.00019586   -0.00033988
     atom    8 type  2   force =     0.00010620   -0.00002731   -0.00024155
     atom    9 type  3   force =    -0.00000108   -0.00002088   -0.00002678
     atom   10 type  3   force =    -0.00000530    0.00000099   -0.00003203
     atom   11 type  4   force =    -0.00040465    0.00006117   -0.00014382
     atom   12 type  2   force =    -0.00014951    0.00013362    0.00022535
     atom   13 type  3   force =    -0.00002077    0.00001227    0.00003857
     atom   14 type  3   force =    -0.00001752    0.00001849    0.00003579
     atom   15 type  3   force =    -0.00001992   -0.00001517    0.00001842
     atom   16 type  3   force =    -0.00001518    0.00000212    0.00003405
     atom   17 type  2   force =    -0.00015353   -0.00008160    0.00020149
     atom   18 type  4   force =    -0.00037714   -0.00014910   -0.00008234
     atom   19 type  3   force =     0.00000877   -0.00000959   -0.00000561
     atom   20 type  3   force =     0.00000818    0.00002282   -0.00001354
     atom   21 type  2   force =     0.00014607   -0.00000725   -0.00016126
     atom   22 type  4   force =     0.00006422    0.00013438   -0.00018700
     atom   23 type  1   force =    -0.00040389   -0.00012173   -0.00004766
     atom   24 type  4   force =    -0.00013120    0.00010869    0.00022292
     atom   25 type  1   force =     0.00014177    0.00002908   -0.00021904
     atom   26 type  1   force =    -0.00019607    0.00021403   -0.00000886
     atom   27 type  4   force =    -0.00033796    0.00014613    0.00026576
     atom   28 type  1   force =     0.00011887    0.00007487    0.00007516
     atom   29 type  3   force =     0.00001752   -0.00001849   -0.00003579
     atom   30 type  3   force =     0.00002077   -0.00001227   -0.00003857
     atom   31 type  2   force =     0.00014951   -0.00013362   -0.00022535
     atom   32 type  4   force =     0.00040465   -0.00006117    0.00014382
     atom   33 type  3   force =     0.00000530   -0.00000099    0.00003203
     atom   34 type  3   force =     0.00000108    0.00002088    0.00002678
     atom   35 type  2   force =    -0.00010620    0.00002731    0.00024155
     atom   36 type  4   force =    -0.00015283    0.00019586    0.00033988
     atom   37 type  1   force =     0.00044027   -0.00002463    0.00008265
     atom   38 type  4   force =     0.00018050    0.00015334   -0.00014536
     atom   39 type  1   force =    -0.00011233    0.00013207    0.00026342
     atom   40 type  1   force =    -0.00002784    0.00028795    0.00035405
     atom   41 type  4   force =     0.00020871    0.00016904   -0.00012218
     atom   42 type  1   force =    -0.00014439    0.00009129    0.00003160
     atom   43 type  3   force =     0.00001992    0.00001517   -0.00001842
     atom   44 type  3   force =     0.00001518   -0.00000212   -0.00003405
     atom   45 type  2   force =     0.00015353    0.00008160   -0.00020149
     atom   46 type  4   force =     0.00037714    0.00014910    0.00008234
     atom   47 type  3   force =    -0.00000877    0.00000959    0.00000561
     atom   48 type  3   force =    -0.00000818   -0.00002282    0.00001354
     atom   49 type  2   force =    -0.00014607    0.00000725    0.00016126
     atom   50 type  4   force =    -0.00006422   -0.00013438    0.00018700
     atom   51 type  1   force =     0.00040389    0.00012173    0.00004766
     atom   52 type  4   force =     0.00013120   -0.00010869   -0.00022292
     atom   53 type  1   force =    -0.00014177   -0.00002908    0.00021904
     atom   54 type  1   force =     0.00019607   -0.00021403    0.00000886
     atom   55 type  4   force =     0.00033796   -0.00014613   -0.00026576
     atom   56 type  1   force =    -0.00011887   -0.00007487   -0.00007516

     Total force =     1.055722     Total SCF correction =     0.002112


     entering subroutine stress ...

          total   stress  (Ry/bohr**3)                   (kbar)     P=  134.31
   0.00094011   0.00000003   0.00010789        138.29      0.00     15.87
   0.00000003   0.00092756  -0.00000011          0.00    136.45     -0.02
   0.00010789  -0.00000011   0.00087139         15.87     -0.02    128.19

     kinetic stress (kbar)  15321.20      0.00    327.71
                                0.00  15754.75     -0.00
                              327.71     -0.00  15292.90

     local   stress (kbar) -15731.01      0.01   7849.78
                                0.01  -8727.40     -0.04
                             7849.78     -0.04 -11840.77

     nonloc. stress (kbar)   1040.54      0.00     11.00
                                0.00   1050.67     -0.01
                               11.00     -0.01   1010.57

     hartree stress (kbar)   7076.23     -0.00  -2867.82
                               -0.00   5037.20      0.03
                            -2867.82      0.03   5607.00

     exc-cor stress (kbar)  -2211.10     -0.00    -10.86
                               -0.00  -2231.93     -0.00
                              -10.86     -0.00  -2217.16

     corecor stress (kbar)  -1149.41     -0.00     -2.74
                               -0.00  -1151.42      0.00
                               -2.74      0.00  -1149.02

     ewald   stress (kbar)  -4208.15      0.00  -5291.19
                                0.00  -9595.42      0.00
                            -5291.19      0.00  -6575.33

     hubbard stress (kbar)      0.00      0.00      0.00
                                0.00      0.00      0.00
                                0.00      0.00      0.00

     london  stress (kbar)      0.00      0.00      0.00
                                0.00      0.00      0.00
                                0.00      0.00      0.00

     XDM     stress (kbar)      0.00      0.00      0.00
                                0.00      0.00      0.00
                                0.00      0.00      0.00

     dft-nl  stress (kbar)      0.00      0.00      0.00
                                0.00      0.00      0.00
                                0.00      0.00      0.00

     TS-vdW  stress (kbar)      0.00      0.00      0.00
                                0.00      0.00      0.00
                                0.00      0.00      0.00



     Writing output data file scf.pbe.ec-100.kp-444.HMX-792934.np-8.default-conv-thr.save

     init_run     :    632.15s CPU    692.45s WALL (       1 calls)
     electrons    :  15890.62s CPU  17376.29s WALL (       1 calls)
     forces       :    263.49s CPU    282.30s WALL (       1 calls)
     stress       :   1032.21s CPU   1049.61s WALL (       1 calls)

     Called by init_run:
     wfcinit      :    519.59s CPU    569.42s WALL (       1 calls)
     potinit      :     37.76s CPU     40.63s WALL (       1 calls)

     Called by electrons:
     c_bands      :  13777.58s CPU  14952.99s WALL (      11 calls)
     sum_band     :   1993.04s CPU   2282.10s WALL (      11 calls)
     v_of_rho     :     29.19s CPU     30.30s WALL (      12 calls)
     v_h          :      3.01s CPU      3.05s WALL (      12 calls)
     v_xc         :     30.50s CPU     31.80s WALL (      14 calls)
     newd         :     82.47s CPU    104.79s WALL (      12 calls)
     PAW_pot      :      7.84s CPU      7.98s WALL (      12 calls)
     mix_rho      :      6.21s CPU      6.43s WALL (      11 calls)

     Called by c_bands:
     init_us_2    :     94.89s CPU     97.83s WALL (     800 calls)
     cegterg      :  13664.36s CPU  14822.77s WALL (     352 calls)

     Called by sum_band:
     sum_band:bec :      0.30s CPU      0.36s WALL (     352 calls)
     addusdens    :    147.55s CPU    227.48s WALL (      11 calls)

     Called by *egterg:
     h_psi        :   8268.14s CPU   8864.77s WALL (    2135 calls)
     s_psi        :   1469.77s CPU   1556.18s WALL (    2135 calls)
     g_psi        :     11.81s CPU     15.39s WALL (    1751 calls)
     cdiaghg      :    533.93s CPU    547.60s WALL (    2103 calls)
     cegterg:over :   1566.19s CPU   1773.98s WALL (    1751 calls)
     cegterg:upda :   1012.16s CPU   1049.40s WALL (    1751 calls)
     cegterg:last :    447.21s CPU    487.17s WALL (     352 calls)

     Called by h_psi:
     h_psi:vloc   :   5321.05s CPU   5639.83s WALL (    2135 calls)
     h_psi:vnl    :   2896.75s CPU   3172.77s WALL (    2135 calls)
     add_vuspsi   :   1469.21s CPU   1595.59s WALL (    2135 calls)

     General routines
     calbec       :   2035.68s CPU   2244.52s WALL (    2647 calls)
     fft          :     38.01s CPU     46.19s WALL (     213 calls)
     ffts         :      0.50s CPU      0.56s WALL (      23 calls)
     fftw         :   3215.90s CPU   3654.95s WALL (  298388 calls)
     interpolate  :      5.34s CPU      5.53s WALL (      23 calls)
     davcio       :      1.75s CPU     57.12s WALL (      32 calls)

     Parallel routines
     fft_scatter  :   1424.93s CPU   1851.63s WALL (  298624 calls)

     PAW routines
     PAW_pot      :      7.84s CPU      7.98s WALL (      12 calls)
     PAW_symme    :      0.01s CPU      0.01s WALL (      23 calls)

     PWSCF        :     4h57m CPU        5h24m WALL


   This run was terminated on:   5:30:38  26May2016            

=------------------------------------------------------------------------------=
   JOB DONE.
=------------------------------------------------------------------------------=
