
     Program PWSCF v.5.3.0 (svn rev. 11974) starts on 22May2016 at  9:13:14 

     This program is part of the open-source Quantum ESPRESSO suite
     for quantum simulation of materials; please cite
         "P. Giannozzi et al., J. Phys.:Condens. Matter 21 395502 (2009);
          URL http://www.quantum-espresso.org", 
     in publications or presentations arising from this work. More details at
     http://www.quantum-espresso.org/quote

     Parallel version (MPI), running on    32 processors
     R & G space division:  proc/nbgrp/npool/nimage =      32
     Waiting for input...
     Reading input from standard input
Warning: card    &IONS ignored
Warning: card TRUST_RADIUS_MAX=0.2 ignored
Warning: card / ignored
Warning: card     &CELL ignored
Warning: card CELL_DYNAMICS='BFGS' ignored
Warning: card / ignored

     Current dimensions of program PWSCF are:
     Max number of different atomic species (ntypx) = 10
     Max number of k-points (npk) =  40000
     Max angular momentum in pseudopotentials (lmaxx) =  3
               file N.pbe-n-kjpaw_psl.1.0.0.UPF: wavefunction(s)  2S renormalized
               file C.pbe-n-kjpaw_psl.1.0.0.UPF: wavefunction(s)  2S 2P renormalized
               file H.pbe-kjpaw_psl.1.0.0.UPF: wavefunction(s)  1S renormalized
               file O.pbe-n-kjpaw_psl.1.0.0.UPF: wavefunction(s)  2S 2P renormalized

     Subspace diagonalization in iterative solution of the eigenvalue problem:
     a serial algorithm will be used


     Parallelization info
     --------------------
     sticks:   dense  smooth     PW     G-vecs:    dense   smooth      PW
     Min         383     153     41                27040     6834     960
     Max         384     154     42                27044     6853     964
     Sum       12279    4915   1323               865331   219029   30773


     Title: 
     HMX-scf-pbe-n-kjpaw-kp242-ec-60-nofor-nostress-conv-em4                    


     bravais-lattice index     =            0
     lattice parameter (alat)  =       1.8897  a.u.
     unit-cell volume          =    3486.6982 (a.u.)^3
     number of atoms/cell      =           56
     number of atomic types    =            4
     number of electrons       =       224.00
     number of Kohn-Sham states=          112
     kinetic-energy cutoff     =      60.0000  Ry
     charge density cutoff     =     600.0000  Ry
     convergence threshold     =      1.0E-06
     mixing beta               =       0.7000
     number of iterations used =            8  plain     mixing
     Exchange-correlation      =  SLA  PW   PBX  PBC ( 1  4  3  4 0 0)

     celldm(1)=   1.889726  celldm(2)=   0.000000  celldm(3)=   0.000000
     celldm(4)=   0.000000  celldm(5)=   0.000000  celldm(6)=   0.000000

     crystal axes: (cart. coord. in units of alat)
               a(1) = (   6.524500   0.000000   0.000000 )  
               a(2) = (   0.000000  11.024000   0.000000 )  
               a(3) = (  -1.611215   0.000000   7.183422 )  

     reciprocal axes: (cart. coord. in units 2 pi/alat)
               b(1) = (  0.153268 -0.000000  0.034378 )  
               b(2) = (  0.000000  0.090711 -0.000000 )  
               b(3) = (  0.000000  0.000000  0.139209 )  


     PseudoPot. # 1 for  N read from file:
     /users/majewski/.data/PSEUDOPOTENTIALS/N.pbe-n-kjpaw_psl.1.0.0.UPF
     MD5 check sum: c21df8f53e59d08c3548513d559cdda6
     Pseudo is Projector augmented-wave + core cor, Zval =  5.0
     Generated using "atomic" code by A. Dal Corso  v.5.3.0 svn rev. 11974
     Shape of augmentation charge: PSQ
     Using radial grid of 1085 points,  4 beta functions with: 
                l(1) =   0
                l(2) =   0
                l(3) =   1
                l(4) =   1
     Q(r) pseudized with 0 coefficients 


     PseudoPot. # 2 for  C read from file:
     /users/majewski/.data/PSEUDOPOTENTIALS/C.pbe-n-kjpaw_psl.1.0.0.UPF
     MD5 check sum: 2ba8448e293caca687844dde9a1b88a8
     Pseudo is Projector augmented-wave + core cor, Zval =  4.0
     Generated using "atomic" code by A. Dal Corso  v.5.3.0 svn rev. 11974
     Shape of augmentation charge: PSQ
     Using radial grid of 1073 points,  4 beta functions with: 
                l(1) =   0
                l(2) =   0
                l(3) =   1
                l(4) =   1
     Q(r) pseudized with 0 coefficients 


     PseudoPot. # 3 for  H read from file:
     /users/majewski/.data/PSEUDOPOTENTIALS/H.pbe-kjpaw_psl.1.0.0.UPF
     MD5 check sum: bc0feb48a24907a0b97fa6ee2d589a29
     Pseudo is Projector augmented-wave, Zval =  1.0
     Generated using "atomic" code by A. Dal Corso  v.5.3.0 svn rev. 11974
     Shape of augmentation charge: PSQ
     Using radial grid of  929 points,  2 beta functions with: 
                l(1) =   0
                l(2) =   0
     Q(r) pseudized with 0 coefficients 


     PseudoPot. # 4 for  O read from file:
     /users/majewski/.data/PSEUDOPOTENTIALS/O.pbe-n-kjpaw_psl.1.0.0.UPF
     MD5 check sum: 9c0ade6c043cf4a781bde3908a3a8206
     Pseudo is Projector augmented-wave + core cor, Zval =  6.0
     Generated using "atomic" code by A. Dal Corso  v.5.3.0 svn rev. 11974
     Shape of augmentation charge: PSQ
     Using radial grid of 1095 points,  4 beta functions with: 
                l(1) =   0
                l(2) =   0
                l(3) =   1
                l(4) =   1
     Q(r) pseudized with 0 coefficients 


     atomic species   valence    mass     pseudopotential
        N              5.00    14.00670      N( 1.00)
        C              4.00    12.01100      C( 1.00)
        H              1.00     1.00790      H( 1.00)
        O              6.00    15.99940      O( 1.00)

      4 Sym. Ops., with inversion, found ( 2 have fractional translation)


                                    s                        frac. trans.

      isym =  1     identity                                     

 cryst.   s( 1) = (     1          0          0      )
                  (     0          1          0      )
                  (     0          0          1      )

 cart.    s( 1) = (  1.0000000  0.0000000  0.0000000 )
                  (  0.0000000  1.0000000  0.0000000 )
                  (  0.0000000  0.0000000  1.0000000 )


      isym =  2     180 deg rotation - cart. axis [0,1,0]        

 cryst.   s( 2) = (    -1          0          0      )    f =(  0.5000000 )
                  (     0          1          0      )       ( -0.5000000 )
                  (     0          0         -1      )       (  0.5000000 )

 cart.    s( 2) = ( -1.0000000  0.0000000  0.0000000 )    f =(  2.4566426 )
                  (  0.0000000  1.0000000  0.0000000 )       ( -5.5120000 )
                  (  0.0000000  0.0000000 -1.0000000 )       (  3.5917112 )


      isym =  3     inversion                                    

 cryst.   s( 3) = (    -1          0          0      )
                  (     0         -1          0      )
                  (     0          0         -1      )

 cart.    s( 3) = ( -1.0000000  0.0000000  0.0000000 )
                  (  0.0000000 -1.0000000  0.0000000 )
                  (  0.0000000  0.0000000 -1.0000000 )


      isym =  4     inv. 180 deg rotation - cart. axis [0,1,0]   

 cryst.   s( 4) = (     1          0          0      )    f =( -0.5000000 )
                  (     0         -1          0      )       ( -0.5000000 )
                  (     0          0          1      )       ( -0.5000000 )

 cart.    s( 4) = (  1.0000000  0.0000000  0.0000000 )    f =( -2.4566426 )
                  (  0.0000000 -1.0000000  0.0000000 )       ( -5.5120000 )
                  (  0.0000000  0.0000000  1.0000000 )       ( -3.5917112 )


   Cartesian axes

     site n.     atom                  positions (alat units)
         1           N   tau(   1) = (  -0.8659061   6.8626605   3.3165861  )
         2           O   tau(   2) = (   1.0642077   7.9307758   3.1413106  )
         3           N   tau(   3) = (   0.0570773   7.7471160   3.8208624  )
         4           N   tau(   4) = (  -2.0666224   5.7847338   5.0657495  )
         5           O   tau(   5) = (  -3.2536876   4.7233430   6.6202421  )
         6           N   tau(   6) = (  -3.2443309   5.5226933   5.7000457  )
         7           O   tau(   7) = (  -0.1845731   8.2332744   4.9098692  )
         8           C   tau(   8) = (  -2.1347167   6.7751299   3.9788977  )
         9           H   tau(   9) = (  -2.8326807   6.5096720   3.3295163  )
        10           H   tau(  10) = (  -2.3796630   7.6605776   4.3495623  )
        11           O   tau(  11) = (  -4.2115393   6.1725581   5.3056758  )
        12           C   tau(  12) = (  -0.5988683   6.2410171   2.0300352  )
        13           H   tau(  13) = (  -1.4188675   5.8228768   1.7240214  )
        14           H   tau(  14) = (  -0.3175686   6.8855904   1.3576668  )
        15           H   tau(  15) = (   2.1390739  -1.3735904   4.9493781  )
        16           H   tau(  16) = (   1.0377751  -0.3108768   5.3157326  )
        17           C   tau(  17) = (   1.8577742  -0.7290171   5.6217464  )
        18           O   tau(  18) = (  -1.7548967  -0.6605581   8.8973871  )
        19           H   tau(  19) = (   0.0769795  -2.1485776   7.9412735  )
        20           H   tau(  20) = (  -0.3760382  -0.9976720   6.9212275  )
        21           C   tau(  21) = (   0.3219258  -1.2631299   7.5706089  )
        22           O   tau(  22) = (   2.2720694  -2.7212744   8.5015805  )
        23           N   tau(  23) = (  -0.7876883  -0.0106933   9.2917569  )
        24           O   tau(  24) = (  -0.7970450   0.7886570  10.2119534  )
        25           N   tau(  25) = (   0.3900201  -0.2727338   8.6574607  )
        26           N   tau(  26) = (   2.5137198  -2.2351160   7.4125736  )
        27           O   tau(  27) = (   3.5208502  -2.4187758   6.7330219  )
        28           N   tau(  28) = (   1.5907365  -1.3506605   6.9082974  )
        29           H   tau(  29) = (  -1.2936463   4.1384096   5.8257556  )
        30           H   tau(  30) = (  -0.1923474   5.2011232   5.4594011  )
        31           C   tau(  31) = (  -1.0123466   4.7829829   5.1533873  )
        32           O   tau(  32) = (   2.6003244   4.8514419   1.8777466  )
        33           H   tau(  33) = (   0.7684481   3.3634224   2.8338602  )
        34           H   tau(  34) = (   1.2214659   4.5143280   3.8539061  )
        35           C   tau(  35) = (   0.5235018   4.2488701   3.2045248  )
        36           O   tau(  36) = (  -1.4266418   2.7907256   2.2735532  )
        37           N   tau(  37) = (   1.6331160   5.5013067   1.4833767  )
        38           O   tau(  38) = (   1.6424727   6.3006570   0.5631803  )
        39           N   tau(  39) = (   0.4554076   5.2392662   2.1176729  )
        40           N   tau(  40) = (  -1.6682921   3.2768840   3.3625601  )
        41           O   tau(  41) = (  -2.6754226   3.0932242   4.0421118  )
        42           N   tau(  42) = (  -0.7453088   4.1613395   3.8668363  )
        43           H   tau(  43) = (   1.1629963   1.3735904   9.4174668  )
        44           H   tau(  44) = (   2.2642951   0.3108768   9.0511123  )
        45           C   tau(  45) = (   1.4442960   0.7290171   8.7450985  )
        46           O   tau(  46) = (   5.0569669   0.6605581   5.4694579  )
        47           H   tau(  47) = (   3.2250907   2.1485776   6.4255714  )
        48           H   tau(  48) = (   3.6781084   0.9976720   7.4456174  )
        49           C   tau(  49) = (   2.9801444   1.2631299   6.7962360  )
        50           O   tau(  50) = (   1.0300008   2.7212744   5.8652644  )
        51           N   tau(  51) = (   4.0897585   0.0106933   5.0750880  )
        52           O   tau(  52) = (   4.0991153  -0.7886570   4.1548915  )
        53           N   tau(  53) = (   2.9120501   0.2727338   5.7093842  )
        54           N   tau(  54) = (   0.7883504   2.2351160   6.9542713  )
        55           O   tau(  55) = (  -0.2187800   2.4187758   7.6338230  )
        56           N   tau(  56) = (   1.7113337   1.3506605   7.4585475  )

   Crystallographic axes

     site n.     atom                  positions (cryst. coord.)
         1           N   tau(   1) = ( -0.0187000  0.6225200  0.4617000  )
         2           O   tau(   2) = (  0.2711000  0.7194100  0.4373000  )
         3           N   tau(   3) = (  0.1401000  0.7027500  0.5319000  )
         4           N   tau(   4) = ( -0.1426000  0.5247400  0.7052000  )
         5           O   tau(   5) = ( -0.2711000  0.4284600  0.9216000  )
         6           N   tau(   6) = ( -0.3013000  0.5009700  0.7935000  )
         7           O   tau(   7) = (  0.1405000  0.7468500  0.6835000  )
         8           C   tau(   8) = ( -0.1904000  0.6145800  0.5539000  )
         9           H   tau(   9) = ( -0.3197000  0.5905000  0.4635000  )
        10           H   tau(  10) = ( -0.2152000  0.6949000  0.6055000  )
        11           O   tau(  11) = ( -0.4631000  0.5599200  0.7386000  )
        12           C   tau(  12) = ( -0.0220000  0.5661300  0.2826000  )
        13           H   tau(  13) = ( -0.1582000  0.5282000  0.2400000  )
        14           H   tau(  14) = ( -0.0020000  0.6246000  0.1890000  )
        15           H   tau(  15) = (  0.4980000 -0.1246000  0.6890000  )
        16           H   tau(  16) = (  0.3418000 -0.0282000  0.7400000  )
        17           C   tau(  17) = (  0.4780000 -0.0661300  0.7826000  )
        18           O   tau(  18) = (  0.0369000 -0.0599200  1.2386000  )
        19           H   tau(  19) = (  0.2848000 -0.1949000  1.1055000  )
        20           H   tau(  20) = (  0.1803000 -0.0905000  0.9635000  )
        21           C   tau(  21) = (  0.3096000 -0.1145800  1.0539000  )
        22           O   tau(  22) = (  0.6405000 -0.2468500  1.1835000  )
        23           N   tau(  23) = (  0.1987000 -0.0009700  1.2935000  )
        24           O   tau(  24) = (  0.2289000  0.0715400  1.4216000  )
        25           N   tau(  25) = (  0.3574000 -0.0247400  1.2052000  )
        26           N   tau(  26) = (  0.6401000 -0.2027500  1.0319000  )
        27           O   tau(  27) = (  0.7711000 -0.2194100  0.9373000  )
        28           N   tau(  28) = (  0.4813000 -0.1225200  0.9617000  )
        29           H   tau(  29) = (  0.0020000  0.3754000  0.8110000  )
        30           H   tau(  30) = (  0.1582000  0.4718000  0.7600000  )
        31           C   tau(  31) = (  0.0220000  0.4338700  0.7174000  )
        32           O   tau(  32) = (  0.4631000  0.4400800  0.2614000  )
        33           H   tau(  33) = (  0.2152000  0.3051000  0.3945000  )
        34           H   tau(  34) = (  0.3197000  0.4095000  0.5365000  )
        35           C   tau(  35) = (  0.1904000  0.3854200  0.4461000  )
        36           O   tau(  36) = ( -0.1405000  0.2531500  0.3165000  )
        37           N   tau(  37) = (  0.3013000  0.4990300  0.2065000  )
        38           O   tau(  38) = (  0.2711000  0.5715400  0.0784000  )
        39           N   tau(  39) = (  0.1426000  0.4752600  0.2948000  )
        40           N   tau(  40) = ( -0.1401000  0.2972500  0.4681000  )
        41           O   tau(  41) = ( -0.2711000  0.2805900  0.5627000  )
        42           N   tau(  42) = (  0.0187000  0.3774800  0.5383000  )
        43           H   tau(  43) = (  0.5020000  0.1246000  1.3110000  )
        44           H   tau(  44) = (  0.6582000  0.0282000  1.2600000  )
        45           C   tau(  45) = (  0.5220000  0.0661300  1.2174000  )
        46           O   tau(  46) = (  0.9631000  0.0599200  0.7614000  )
        47           H   tau(  47) = (  0.7152000  0.1949000  0.8945000  )
        48           H   tau(  48) = (  0.8197000  0.0905000  1.0365000  )
        49           C   tau(  49) = (  0.6904000  0.1145800  0.9461000  )
        50           O   tau(  50) = (  0.3595000  0.2468500  0.8165000  )
        51           N   tau(  51) = (  0.8013000  0.0009700  0.7065000  )
        52           O   tau(  52) = (  0.7711000 -0.0715400  0.5784000  )
        53           N   tau(  53) = (  0.6426000  0.0247400  0.7948000  )
        54           N   tau(  54) = (  0.3599000  0.2027500  0.9681000  )
        55           O   tau(  55) = (  0.2289000  0.2194100  1.0627000  )
        56           N   tau(  56) = (  0.5187000  0.1225200  1.0383000  )

     number of k points=    16
                       cart. coord. in units 2pi/alat
        k(    1) = (   0.0191586   0.0113389   0.0216984), wk =   0.1250000
        k(    2) = (   0.0191586   0.0113389   0.0565007), wk =   0.1250000
        k(    3) = (   0.0191586   0.0113389  -0.0479063), wk =   0.1250000
        k(    4) = (   0.0191586   0.0113389  -0.0131040), wk =   0.1250000
        k(    5) = (   0.0191586   0.0340167   0.0216984), wk =   0.1250000
        k(    6) = (   0.0191586   0.0340167   0.0565007), wk =   0.1250000
        k(    7) = (   0.0191586   0.0340167  -0.0479063), wk =   0.1250000
        k(    8) = (   0.0191586   0.0340167  -0.0131040), wk =   0.1250000
        k(    9) = (   0.0574757   0.0113389   0.0302928), wk =   0.1250000
        k(   10) = (   0.0574757   0.0113389   0.0650951), wk =   0.1250000
        k(   11) = (   0.0574757   0.0113389  -0.0393120), wk =   0.1250000
        k(   12) = (   0.0574757   0.0113389  -0.0045096), wk =   0.1250000
        k(   13) = (   0.0574757   0.0340167   0.0302928), wk =   0.1250000
        k(   14) = (   0.0574757   0.0340167   0.0650951), wk =   0.1250000
        k(   15) = (   0.0574757   0.0340167  -0.0393120), wk =   0.1250000
        k(   16) = (   0.0574757   0.0340167  -0.0045096), wk =   0.1250000

                       cryst. coord.
        k(    1) = (   0.1250000   0.1250000   0.1250000), wk =   0.1250000
        k(    2) = (   0.1250000   0.1250000   0.3750000), wk =   0.1250000
        k(    3) = (   0.1250000   0.1250000  -0.3750000), wk =   0.1250000
        k(    4) = (   0.1250000   0.1250000  -0.1250000), wk =   0.1250000
        k(    5) = (   0.1250000   0.3750000   0.1250000), wk =   0.1250000
        k(    6) = (   0.1250000   0.3750000   0.3750000), wk =   0.1250000
        k(    7) = (   0.1250000   0.3750000  -0.3750000), wk =   0.1250000
        k(    8) = (   0.1250000   0.3750000  -0.1250000), wk =   0.1250000
        k(    9) = (   0.3750000   0.1250000   0.1250000), wk =   0.1250000
        k(   10) = (   0.3750000   0.1250000   0.3750000), wk =   0.1250000
        k(   11) = (   0.3750000   0.1250000  -0.3750000), wk =   0.1250000
        k(   12) = (   0.3750000   0.1250000  -0.1250000), wk =   0.1250000
        k(   13) = (   0.3750000   0.3750000   0.1250000), wk =   0.1250000
        k(   14) = (   0.3750000   0.3750000   0.3750000), wk =   0.1250000
        k(   15) = (   0.3750000   0.3750000  -0.3750000), wk =   0.1250000
        k(   16) = (   0.3750000   0.3750000  -0.1250000), wk =   0.1250000

     Dense  grid:   865331 G-vectors     FFT dimensions: ( 100, 180, 120)

     Smooth grid:   219029 G-vectors     FFT dimensions: (  64, 108,  72)

     Largest allocated arrays     est. size (Mb)     dimensions
        Kohn-Sham Wavefunctions         1.47 Mb     (     863,  112)
        NL pseudopotentials             4.64 Mb     (     863,  352)
        Each V/rho on FFT grid          1.10 Mb     (   72000)
        Each G-vector array             0.21 Mb     (   27044)
        G-vector shells                 0.20 Mb     (   26669)
     Largest temporary arrays     est. size (Mb)     dimensions
        Auxiliary wavefunctions         5.90 Mb     (     863,  448)
        Each subspace H/S matrix        3.06 Mb     (     448,  448)
        Each <psi_i|beta_j> matrix      0.60 Mb     (     352,  112)
        Arrays for rho mixing           8.79 Mb     (   72000,    8)

     Check: negative/imaginary core charge=   -0.000001    0.000000

     Initial potential from superposition of free atoms

     starting charge  223.99937, renormalised to  224.00000
     Starting wfc are  176 randomized atomic wfcs
     Checking if some PAW data can be deallocated... 
       node    0, deallocated PAW data for type:  2
       node    0, deallocated PAW data for type:  3
       node    1, deallocated PAW data for type:  2
       node    1, deallocated PAW data for type:  3
       node    1, deallocated PAW data for type:  4
       node    2, deallocated PAW data for type:  2
       node    2, deallocated PAW data for type:  3
       node    3, deallocated PAW data for type:  1
       node    3, deallocated PAW data for type:  3
       node    4, deallocated PAW data for type:  1
       node    4, deallocated PAW data for type:  2
       node    4, deallocated PAW data for type:  4
       node    5, deallocated PAW data for type:  1
       node    5, deallocated PAW data for type:  3
       node    6, deallocated PAW data for type:  1
       node    6, deallocated PAW data for type:  2
       node    6, deallocated PAW data for type:  4
       node    7, deallocated PAW data for type:  1
       node    7, deallocated PAW data for type:  2
       node    7, deallocated PAW data for type:  4
       node    8, deallocated PAW data for type:  1
       node    8, deallocated PAW data for type:  3
       node    9, deallocated PAW data for type:  1
       node    9, deallocated PAW data for type:  2
       node    9, deallocated PAW data for type:  4
       node   10, deallocated PAW data for type:  1
       node   10, deallocated PAW data for type:  3
       node   11, deallocated PAW data for type:  2
       node   11, deallocated PAW data for type:  3
       node   12, deallocated PAW data for type:  2
       node   12, deallocated PAW data for type:  3
       node   12, deallocated PAW data for type:  4
       node   13, deallocated PAW data for type:  2
       node   13, deallocated PAW data for type:  3
       node   14, deallocated PAW data for type:  1
       node   14, deallocated PAW data for type:  2
       node   14, deallocated PAW data for type:  4
       node   15, deallocated PAW data for type:  1
       node   15, deallocated PAW data for type:  3
       node   16, deallocated PAW data for type:  1
       node   16, deallocated PAW data for type:  2
       node   16, deallocated PAW data for type:  4
       node   17, deallocated PAW data for type:  1
       node   17, deallocated PAW data for type:  3
       node   18, deallocated PAW data for type:  2
       node   18, deallocated PAW data for type:  3
       node   19, deallocated PAW data for type:  2
       node   19, deallocated PAW data for type:  3
       node   19, deallocated PAW data for type:  4
       node   20, deallocated PAW data for type:  2
       node   20, deallocated PAW data for type:  3
       node   21, deallocated PAW data for type:  1
       node   21, deallocated PAW data for type:  2
       node   21, deallocated PAW data for type:  4
       node   22, deallocated PAW data for type:  1
       node   22, deallocated PAW data for type:  3
       node   23, deallocated PAW data for type:  1
       node   23, deallocated PAW data for type:  2
       node   23, deallocated PAW data for type:  4
       node   24, deallocated PAW data for type:  1
       node   24, deallocated PAW data for type:  3
       node   24, deallocated PAW data for type:  4
       node   25, deallocated PAW data for type:  1
       node   25, deallocated PAW data for type:  2
       node   25, deallocated PAW data for type:  3
       node   26, deallocated PAW data for type:  2
       node   26, deallocated PAW data for type:  3
       node   26, deallocated PAW data for type:  4
       node   27, deallocated PAW data for type:  1
       node   27, deallocated PAW data for type:  2
       node   27, deallocated PAW data for type:  3
       node   28, deallocated PAW data for type:  2
       node   28, deallocated PAW data for type:  3
       node   28, deallocated PAW data for type:  4
       node   29, deallocated PAW data for type:  2
       node   29, deallocated PAW data for type:  3
       node   29, deallocated PAW data for type:  4
       node   30, deallocated PAW data for type:  1
       node   30, deallocated PAW data for type:  2
       node   30, deallocated PAW data for type:  3
       node   31, deallocated PAW data for type:  2
       node   31, deallocated PAW data for type:  3
       node   31, deallocated PAW data for type:  4

     total cpu time spent up to now is       71.4 secs

     per-process dynamical memory:    57.5 Mb

     Self-consistent Calculation

     iteration #  1     ecut=    60.00 Ry     beta=0.70
     Davidson diagonalization with overlap
     ethr =  1.00E-02,  avg # of iterations =  3.0

     total cpu time spent up to now is      185.8 secs

     total energy              =   -1279.47881467 Ry
     Harris-Foulkes estimate   =   -1283.87628595 Ry
     estimated scf accuracy    <       6.75440924 Ry

     iteration #  2     ecut=    60.00 Ry     beta=0.70
     Davidson diagonalization with overlap
     ethr =  3.02E-03,  avg # of iterations =  4.0

     total cpu time spent up to now is      333.3 secs

     total energy              =   -1280.27434129 Ry
     Harris-Foulkes estimate   =   -1283.89701679 Ry
     estimated scf accuracy    <       7.35105516 Ry

     iteration #  3     ecut=    60.00 Ry     beta=0.70
     Davidson diagonalization with overlap
     ethr =  3.02E-03,  avg # of iterations =  4.0

     total cpu time spent up to now is      431.6 secs

     total energy              =   -1281.84010735 Ry
     Harris-Foulkes estimate   =   -1282.06099517 Ry
     estimated scf accuracy    <       0.40656984 Ry

     iteration #  4     ecut=    60.00 Ry     beta=0.70
     Davidson diagonalization with overlap
     ethr =  1.82E-04,  avg # of iterations =  4.9

     total cpu time spent up to now is      566.6 secs

     total energy              =   -1281.97272474 Ry
     Harris-Foulkes estimate   =   -1282.06341289 Ry
     estimated scf accuracy    <       0.20268266 Ry

     iteration #  5     ecut=    60.00 Ry     beta=0.70
     Davidson diagonalization with overlap
     ethr =  9.05E-05,  avg # of iterations =  4.0

     total cpu time spent up to now is      661.2 secs

     total energy              =   -1282.01410765 Ry
     Harris-Foulkes estimate   =   -1282.02146126 Ry
     estimated scf accuracy    <       0.01772644 Ry

     iteration #  6     ecut=    60.00 Ry     beta=0.70
     Davidson diagonalization with overlap
     ethr =  7.91E-06,  avg # of iterations =  6.1

     total cpu time spent up to now is      780.9 secs

     total energy              =   -1282.01718483 Ry
     Harris-Foulkes estimate   =   -1282.01894300 Ry
     estimated scf accuracy    <       0.00407047 Ry

     iteration #  7     ecut=    60.00 Ry     beta=0.70
     Davidson diagonalization with overlap
     ethr =  1.82E-06,  avg # of iterations =  5.1

     total cpu time spent up to now is      886.1 secs

     total energy              =   -1282.01821704 Ry
     Harris-Foulkes estimate   =   -1282.01834604 Ry
     estimated scf accuracy    <       0.00034029 Ry

     iteration #  8     ecut=    60.00 Ry     beta=0.70
     Davidson diagonalization with overlap
     ethr =  1.52E-07,  avg # of iterations =  4.8

     total cpu time spent up to now is     1035.7 secs

     total energy              =   -1282.01832495 Ry
     Harris-Foulkes estimate   =   -1282.01834703 Ry
     estimated scf accuracy    <       0.00004570 Ry

     iteration #  9     ecut=    60.00 Ry     beta=0.70
     Davidson diagonalization with overlap
     ethr =  2.04E-08,  avg # of iterations =  5.0

     total cpu time spent up to now is     1165.0 secs

     total energy              =   -1282.01833354 Ry
     Harris-Foulkes estimate   =   -1282.01834024 Ry
     estimated scf accuracy    <       0.00001569 Ry

     iteration # 10     ecut=    60.00 Ry     beta=0.70
     Davidson diagonalization with overlap
     ethr =  7.00E-09,  avg # of iterations =  7.1

     total cpu time spent up to now is     1261.8 secs

     total energy              =   -1282.01833589 Ry
     Harris-Foulkes estimate   =   -1282.01833685 Ry
     estimated scf accuracy    <       0.00000223 Ry

     iteration # 11     ecut=    60.00 Ry     beta=0.70
     Davidson diagonalization with overlap
     ethr =  9.95E-10,  avg # of iterations =  4.0

     total cpu time spent up to now is     1403.1 secs

     total energy              =   -1282.01833735 Ry
     Harris-Foulkes estimate   =   -1282.01833773 Ry
     estimated scf accuracy    <       0.00000123 Ry

     iteration # 12     ecut=    60.00 Ry     beta=0.70
     Davidson diagonalization with overlap
     ethr =  5.48E-10,  avg # of iterations =  1.0

     total cpu time spent up to now is     1465.0 secs

     End of self-consistent calculation

          k = 0.0192 0.0113 0.0217 ( 27346 PWs)   bands (ev):

   -24.0408 -24.0186 -24.0068 -23.9975 -23.7669 -23.7585 -23.7577 -23.7539
   -19.2690 -19.2639 -19.2571 -19.2453 -18.9618 -18.9614 -18.9578 -18.9566
   -18.2953 -18.2711 -17.2660 -17.2183 -17.1195 -17.1181 -16.0983 -16.0850
   -12.1242 -12.1204 -12.1023 -11.9899 -11.9356 -11.8635 -11.8050 -11.7894
    -8.9239  -8.8857  -8.3189  -8.2830  -7.5941  -7.5527  -7.4656  -7.4577
    -6.9098  -6.8094  -6.6610  -6.5646  -6.5524  -6.4683  -6.4001  -6.3248
    -6.1934  -6.1646  -6.1424  -6.0232  -5.9651  -5.8883  -5.8290  -5.7832
    -5.7162  -5.6942  -5.5937  -5.5457  -5.1819  -5.0686  -4.9832  -4.9755
    -4.5164  -4.5036  -4.4801  -4.4374  -4.2763  -4.1682  -3.9128  -3.9016
    -3.7307  -3.6066  -3.5448  -3.5008  -3.1946  -3.1611  -3.0617  -3.0463
    -0.8495  -0.8449  -0.3642  -0.3621  -0.2658  -0.2143  -0.1547  -0.1359
    -0.0820  -0.0553   0.1106   0.1444   0.1555   0.1844   0.3114   0.3371
     0.3925   0.4149   0.5958   0.6398   0.7253   0.7617   0.8037   0.8442
     0.8563   0.9751   1.0024   1.0629   1.1674   1.2971   1.3143   1.3450

     occupation numbers 
     1.0000   1.0000   1.0000   1.0000   1.0000   1.0000   1.0000   1.0000
     1.0000   1.0000   1.0000   1.0000   1.0000   1.0000   1.0000   1.0000
     1.0000   1.0000   1.0000   1.0000   1.0000   1.0000   1.0000   1.0000
     1.0000   1.0000   1.0000   1.0000   1.0000   1.0000   1.0000   1.0000
     1.0000   1.0000   1.0000   1.0000   1.0000   1.0000   1.0000   1.0000
     1.0000   1.0000   1.0000   1.0000   1.0000   1.0000   1.0000   1.0000
     1.0000   1.0000   1.0000   1.0000   1.0000   1.0000   1.0000   1.0000
     1.0000   1.0000   1.0000   1.0000   1.0000   1.0000   1.0000   1.0000
     1.0000   1.0000   1.0000   1.0000   1.0000   1.0000   1.0000   1.0000
     1.0000   1.0000   1.0000   1.0000   1.0000   1.0000   1.0000   1.0000
     1.0000   1.0000   1.0000   1.0000   1.0000   1.0000   1.0000   1.0000
     1.0000   1.0000   1.0000   1.0000   1.0000   1.0000   1.0000   1.0000
     1.0000   1.0000   1.0000   1.0000   1.0000   1.0000   1.0000   1.0000
     1.0000   1.0000   1.0000   1.0000   1.0000   1.0000   1.0000   1.0000

          k = 0.0192 0.0113 0.0565 ( 27369 PWs)   bands (ev):

   -24.0329 -24.0240 -24.0032 -24.0021 -23.7687 -23.7657 -23.7543 -23.7499
   -19.2672 -19.2626 -19.2581 -19.2489 -18.9673 -18.9665 -18.9532 -18.9514
   -18.2843 -18.2841 -17.2433 -17.2409 -17.1154 -17.1130 -16.0936 -16.0922
   -12.1324 -12.1293 -12.0529 -12.0341 -11.8944 -11.8836 -11.8129 -11.8062
    -8.9047  -8.8702  -8.2994  -8.2754  -7.6086  -7.5600  -7.4452  -7.3648
    -6.9554  -6.8349  -6.6390  -6.6040  -6.5948  -6.4854  -6.4224  -6.3943
    -6.2521  -6.2229  -6.0291  -5.9835  -5.9615  -5.8916  -5.8675  -5.8180
    -5.7844  -5.7227  -5.5159  -5.4708  -5.1867  -5.1080  -4.9798  -4.9427
    -4.4786  -4.4713  -4.4071  -4.3449  -4.2046  -4.1724  -4.0246  -4.0222
    -3.7087  -3.6546  -3.4816  -3.4714  -3.2195  -3.2158  -3.0468  -3.0250
    -0.8157  -0.7820  -0.3768  -0.3678  -0.2741  -0.2399  -0.1861  -0.1664
    -0.1341  -0.0927   0.0132   0.0714   0.1758   0.2233   0.2803   0.2919
     0.5042   0.5670   0.6076   0.6591   0.7171   0.7424   0.7697   0.8195
     0.9372   0.9735   1.0370   1.0619   1.1729   1.2409   1.3237   1.3532

     occupation numbers 
     1.0000   1.0000   1.0000   1.0000   1.0000   1.0000   1.0000   1.0000
     1.0000   1.0000   1.0000   1.0000   1.0000   1.0000   1.0000   1.0000
     1.0000   1.0000   1.0000   1.0000   1.0000   1.0000   1.0000   1.0000
     1.0000   1.0000   1.0000   1.0000   1.0000   1.0000   1.0000   1.0000
     1.0000   1.0000   1.0000   1.0000   1.0000   1.0000   1.0000   1.0000
     1.0000   1.0000   1.0000   1.0000   1.0000   1.0000   1.0000   1.0000
     1.0000   1.0000   1.0000   1.0000   1.0000   1.0000   1.0000   1.0000
     1.0000   1.0000   1.0000   1.0000   1.0000   1.0000   1.0000   1.0000
     1.0000   1.0000   1.0000   1.0000   1.0000   1.0000   1.0000   1.0000
     1.0000   1.0000   1.0000   1.0000   1.0000   1.0000   1.0000   1.0000
     1.0000   1.0000   1.0000   1.0000   1.0000   1.0000   1.0000   1.0000
     1.0000   1.0000   1.0000   1.0000   1.0000   1.0000   1.0000   1.0000
     1.0000   1.0000   1.0000   1.0000   1.0000   1.0000   1.0000   1.0000
     1.0000   1.0000   1.0000   1.0000   1.0000   1.0000   1.0000   1.0000

          k = 0.0192 0.0113-0.0479 ( 27384 PWs)   bands (ev):

   -24.0338 -24.0234 -24.0068 -23.9982 -23.7702 -23.7672 -23.7512 -23.7499
   -19.2650 -19.2633 -19.2550 -19.2536 -18.9688 -18.9683 -18.9514 -18.9498
   -18.2954 -18.2717 -17.2640 -17.2201 -17.1181 -17.1157 -16.0974 -16.0821
   -12.1428 -12.1278 -12.0858 -12.0021 -11.9215 -11.8523 -11.8149 -11.8053
    -8.9142  -8.8328  -8.2865  -8.2847  -7.6028  -7.5883  -7.4519  -7.3422
    -6.9674  -6.8607  -6.6383  -6.5994  -6.5611  -6.5330  -6.4364  -6.4020
    -6.2748  -6.2431  -6.0352  -6.0023  -5.8888  -5.8615  -5.8514  -5.8398
    -5.7807  -5.7088  -5.5148  -5.4700  -5.1820  -5.1099  -4.9644  -4.9354
    -4.5079  -4.4342  -4.4029  -4.3500  -4.2192  -4.1998  -4.0316  -3.9833
    -3.7081  -3.6587  -3.5336  -3.4515  -3.2269  -3.2036  -3.0433  -3.0313
    -0.7515  -0.6915  -0.3669  -0.3590  -0.3234  -0.2959  -0.2237  -0.2045
    -0.1447  -0.1422  -0.0254   0.0566   0.1922   0.2263   0.2374   0.2866
     0.5498   0.6246   0.6452   0.6573   0.7016   0.7795   0.7904   0.7998
     0.9309   0.9807   1.0553   1.1033   1.1760   1.2041   1.3168   1.3349

     occupation numbers 
     1.0000   1.0000   1.0000   1.0000   1.0000   1.0000   1.0000   1.0000
     1.0000   1.0000   1.0000   1.0000   1.0000   1.0000   1.0000   1.0000
     1.0000   1.0000   1.0000   1.0000   1.0000   1.0000   1.0000   1.0000
     1.0000   1.0000   1.0000   1.0000   1.0000   1.0000   1.0000   1.0000
     1.0000   1.0000   1.0000   1.0000   1.0000   1.0000   1.0000   1.0000
     1.0000   1.0000   1.0000   1.0000   1.0000   1.0000   1.0000   1.0000
     1.0000   1.0000   1.0000   1.0000   1.0000   1.0000   1.0000   1.0000
     1.0000   1.0000   1.0000   1.0000   1.0000   1.0000   1.0000   1.0000
     1.0000   1.0000   1.0000   1.0000   1.0000   1.0000   1.0000   1.0000
     1.0000   1.0000   1.0000   1.0000   1.0000   1.0000   1.0000   1.0000
     1.0000   1.0000   1.0000   1.0000   1.0000   1.0000   1.0000   1.0000
     1.0000   1.0000   1.0000   1.0000   1.0000   1.0000   1.0000   1.0000
     1.0000   1.0000   1.0000   1.0000   1.0000   1.0000   1.0000   1.0000
     1.0000   1.0000   1.0000   1.0000   1.0000   1.0000   1.0000   1.0000

          k = 0.0192 0.0113-0.0131 ( 27364 PWs)   bands (ev):

   -24.0412 -24.0187 -24.0080 -23.9958 -23.7693 -23.7613 -23.7540 -23.7523
   -19.2680 -19.2626 -19.2575 -19.2475 -18.9652 -18.9650 -18.9537 -18.9535
   -18.2996 -18.2655 -17.2745 -17.2096 -17.1218 -17.1212 -16.0987 -16.0784
   -12.1390 -12.1212 -12.1074 -11.9872 -11.9363 -11.8525 -11.8035 -11.7898
    -8.9349  -8.8468  -8.3130  -8.2858  -7.5979  -7.5756  -7.4916  -7.4141
    -6.8810  -6.8672  -6.6567  -6.5542  -6.5489  -6.5126  -6.4090  -6.3404
    -6.2415  -6.1985  -6.0752  -6.0271  -5.9285  -5.8801  -5.8108  -5.7830
    -5.7276  -5.6784  -5.5633  -5.5613  -5.1515  -5.1062  -4.9760  -4.9453
    -4.5149  -4.5013  -4.4773  -4.4512  -4.2871  -4.1754  -3.9195  -3.8700
    -3.7481  -3.6153  -3.5593  -3.4987  -3.2021  -3.1550  -3.0554  -3.0539
    -0.8025  -0.7796  -0.3556  -0.3490  -0.2665  -0.2335  -0.1618  -0.1436
    -0.1373  -0.0993   0.0045   0.0644   0.1270   0.2010   0.2566   0.3217
     0.5194   0.5524   0.5824   0.6599   0.7215   0.7670   0.8198   0.8332
     0.8707   0.9547   1.0306   1.0906   1.1666   1.2796   1.3013   1.3303

     occupation numbers 
     1.0000   1.0000   1.0000   1.0000   1.0000   1.0000   1.0000   1.0000
     1.0000   1.0000   1.0000   1.0000   1.0000   1.0000   1.0000   1.0000
     1.0000   1.0000   1.0000   1.0000   1.0000   1.0000   1.0000   1.0000
     1.0000   1.0000   1.0000   1.0000   1.0000   1.0000   1.0000   1.0000
     1.0000   1.0000   1.0000   1.0000   1.0000   1.0000   1.0000   1.0000
     1.0000   1.0000   1.0000   1.0000   1.0000   1.0000   1.0000   1.0000
     1.0000   1.0000   1.0000   1.0000   1.0000   1.0000   1.0000   1.0000
     1.0000   1.0000   1.0000   1.0000   1.0000   1.0000   1.0000   1.0000
     1.0000   1.0000   1.0000   1.0000   1.0000   1.0000   1.0000   1.0000
     1.0000   1.0000   1.0000   1.0000   1.0000   1.0000   1.0000   1.0000
     1.0000   1.0000   1.0000   1.0000   1.0000   1.0000   1.0000   1.0000
     1.0000   1.0000   1.0000   1.0000   1.0000   1.0000   1.0000   1.0000
     1.0000   1.0000   1.0000   1.0000   1.0000   1.0000   1.0000   1.0000
     1.0000   1.0000   1.0000   1.0000   1.0000   1.0000   1.0000   1.0000

          k = 0.0192 0.0340 0.0217 ( 27366 PWs)   bands (ev):

   -24.0356 -24.0270 -24.0023 -23.9991 -23.7633 -23.7595 -23.7575 -23.7564
   -19.2687 -19.2671 -19.2520 -19.2476 -18.9617 -18.9616 -18.9574 -18.9569
   -18.2884 -18.2784 -17.2519 -17.2322 -17.1190 -17.1184 -16.0943 -16.0888
   -12.1240 -12.1230 -12.0775 -12.0369 -11.8996 -11.8749 -11.8003 -11.7938
    -8.9136  -8.8977  -8.3092  -8.2943  -7.5841  -7.5665  -7.4583  -7.4548
    -6.8869  -6.8418  -6.6075  -6.5655  -6.5585  -6.5158  -6.3775  -6.3541
    -6.2039  -6.1881  -6.0713  -6.0339  -5.9677  -5.9306  -5.8260  -5.8104
    -5.6855  -5.6741  -5.5720  -5.5497  -5.1358  -5.0694  -5.0274  -5.0045
    -4.5296  -4.5203  -4.4463  -4.4270  -4.2498  -4.2000  -3.9083  -3.9016
    -3.6937  -3.6403  -3.5324  -3.5125  -3.1883  -3.1747  -3.0542  -3.0484
    -0.8452  -0.8429  -0.3554  -0.3497  -0.2781  -0.2423  -0.1772  -0.1706
    -0.0489  -0.0395   0.1344   0.1456   0.1757   0.1824   0.3340   0.3442
     0.3737   0.3916   0.6080   0.6330   0.7052   0.7171   0.8218   0.8426
     0.9028   0.9475   1.0293   1.0522   1.2042   1.2580   1.3250   1.3349

     occupation numbers 
     1.0000   1.0000   1.0000   1.0000   1.0000   1.0000   1.0000   1.0000
     1.0000   1.0000   1.0000   1.0000   1.0000   1.0000   1.0000   1.0000
     1.0000   1.0000   1.0000   1.0000   1.0000   1.0000   1.0000   1.0000
     1.0000   1.0000   1.0000   1.0000   1.0000   1.0000   1.0000   1.0000
     1.0000   1.0000   1.0000   1.0000   1.0000   1.0000   1.0000   1.0000
     1.0000   1.0000   1.0000   1.0000   1.0000   1.0000   1.0000   1.0000
     1.0000   1.0000   1.0000   1.0000   1.0000   1.0000   1.0000   1.0000
     1.0000   1.0000   1.0000   1.0000   1.0000   1.0000   1.0000   1.0000
     1.0000   1.0000   1.0000   1.0000   1.0000   1.0000   1.0000   1.0000
     1.0000   1.0000   1.0000   1.0000   1.0000   1.0000   1.0000   1.0000
     1.0000   1.0000   1.0000   1.0000   1.0000   1.0000   1.0000   1.0000
     1.0000   1.0000   1.0000   1.0000   1.0000   1.0000   1.0000   1.0000
     1.0000   1.0000   1.0000   1.0000   1.0000   1.0000   1.0000   1.0000
     1.0000   1.0000   1.0000   1.0000   1.0000   1.0000   1.0000   1.0000

          k = 0.0192 0.0340 0.0565 ( 27368 PWs)   bands (ev):

   -24.0300 -24.0263 -24.0034 -24.0028 -23.7672 -23.7660 -23.7535 -23.7516
   -19.2671 -19.2657 -19.2536 -19.2504 -18.9671 -18.9667 -18.9527 -18.9520
   -18.2843 -18.2841 -17.2429 -17.2419 -17.1144 -17.1134 -16.0932 -16.0926
   -12.1311 -12.1297 -12.0498 -12.0418 -11.8883 -11.8833 -11.8123 -11.8094
    -8.8948  -8.8805  -8.2928  -8.2828  -7.5928  -7.5730  -7.4219  -7.3893
    -6.9359  -6.8913  -6.6249  -6.6137  -6.5445  -6.4983  -6.4325  -6.4140
    -6.2099  -6.1831  -6.0520  -6.0073  -5.9406  -5.9091  -5.8631  -5.8440
    -5.7633  -5.7300  -5.5212  -5.5007  -5.1237  -5.0743  -5.0237  -4.9881
    -4.4559  -4.4441  -4.4047  -4.3755  -4.1985  -4.1842  -4.0245  -4.0229
    -3.6876  -3.6648  -3.4808  -3.4762  -3.2153  -3.2116  -3.0465  -3.0360
    -0.8053  -0.7914  -0.3702  -0.3623  -0.2845  -0.2569  -0.2018  -0.1860
    -0.1061  -0.0877   0.0590   0.0790   0.1793   0.2022   0.2737   0.2849
     0.5199   0.5469   0.6220   0.6453   0.7276   0.7377   0.7758   0.8056
     0.9394   0.9585   1.0493   1.0591   1.1959   1.2236   1.3312   1.3434

     occupation numbers 
     1.0000   1.0000   1.0000   1.0000   1.0000   1.0000   1.0000   1.0000
     1.0000   1.0000   1.0000   1.0000   1.0000   1.0000   1.0000   1.0000
     1.0000   1.0000   1.0000   1.0000   1.0000   1.0000   1.0000   1.0000
     1.0000   1.0000   1.0000   1.0000   1.0000   1.0000   1.0000   1.0000
     1.0000   1.0000   1.0000   1.0000   1.0000   1.0000   1.0000   1.0000
     1.0000   1.0000   1.0000   1.0000   1.0000   1.0000   1.0000   1.0000
     1.0000   1.0000   1.0000   1.0000   1.0000   1.0000   1.0000   1.0000
     1.0000   1.0000   1.0000   1.0000   1.0000   1.0000   1.0000   1.0000
     1.0000   1.0000   1.0000   1.0000   1.0000   1.0000   1.0000   1.0000
     1.0000   1.0000   1.0000   1.0000   1.0000   1.0000   1.0000   1.0000
     1.0000   1.0000   1.0000   1.0000   1.0000   1.0000   1.0000   1.0000
     1.0000   1.0000   1.0000   1.0000   1.0000   1.0000   1.0000   1.0000
     1.0000   1.0000   1.0000   1.0000   1.0000   1.0000   1.0000   1.0000
     1.0000   1.0000   1.0000   1.0000   1.0000   1.0000   1.0000   1.0000

          k = 0.0192 0.0340-0.0479 ( 27354 PWs)   bands (ev):

   -24.0309 -24.0266 -24.0042 -24.0007 -23.7689 -23.7676 -23.7512 -23.7506
   -19.2654 -19.2648 -19.2536 -19.2531 -18.9686 -18.9685 -18.9510 -18.9503
   -18.2887 -18.2788 -17.2511 -17.2330 -17.1173 -17.1163 -16.0929 -16.0865
   -12.1390 -12.1330 -12.0673 -12.0357 -11.8917 -11.8657 -11.8121 -11.8079
    -8.8913  -8.8576  -8.2873  -8.2862  -7.5953  -7.5902  -7.4227  -7.3764
    -6.9350  -6.8902  -6.6434  -6.6153  -6.5426  -6.5270  -6.4637  -6.4446
    -6.1915  -6.1752  -6.0686  -6.0421  -5.8844  -5.8743  -5.8550  -5.8389
    -5.7601  -5.7282  -5.5094  -5.4837  -5.1555  -5.1055  -4.9861  -4.9553
    -4.4949  -4.4654  -4.3645  -4.3441  -4.2207  -4.2132  -4.0182  -3.9984
    -3.6869  -3.6664  -3.5102  -3.4760  -3.2147  -3.2040  -3.0479  -3.0434
    -0.7353  -0.7108  -0.3666  -0.3633  -0.2965  -0.2795  -0.2485  -0.2248
    -0.1617  -0.1499   0.0261   0.0574   0.1929   0.2088   0.2498   0.2755
     0.5719   0.6014   0.6685   0.6801   0.6899   0.7313   0.7971   0.8010
     0.9449   0.9614   1.0767   1.0947   1.1823   1.1947   1.3216   1.3294

     occupation numbers 
     1.0000   1.0000   1.0000   1.0000   1.0000   1.0000   1.0000   1.0000
     1.0000   1.0000   1.0000   1.0000   1.0000   1.0000   1.0000   1.0000
     1.0000   1.0000   1.0000   1.0000   1.0000   1.0000   1.0000   1.0000
     1.0000   1.0000   1.0000   1.0000   1.0000   1.0000   1.0000   1.0000
     1.0000   1.0000   1.0000   1.0000   1.0000   1.0000   1.0000   1.0000
     1.0000   1.0000   1.0000   1.0000   1.0000   1.0000   1.0000   1.0000
     1.0000   1.0000   1.0000   1.0000   1.0000   1.0000   1.0000   1.0000
     1.0000   1.0000   1.0000   1.0000   1.0000   1.0000   1.0000   1.0000
     1.0000   1.0000   1.0000   1.0000   1.0000   1.0000   1.0000   1.0000
     1.0000   1.0000   1.0000   1.0000   1.0000   1.0000   1.0000   1.0000
     1.0000   1.0000   1.0000   1.0000   1.0000   1.0000   1.0000   1.0000
     1.0000   1.0000   1.0000   1.0000   1.0000   1.0000   1.0000   1.0000
     1.0000   1.0000   1.0000   1.0000   1.0000   1.0000   1.0000   1.0000
     1.0000   1.0000   1.0000   1.0000   1.0000   1.0000   1.0000   1.0000

          k = 0.0192 0.0340-0.0131 ( 27373 PWs)   bands (ev):

   -24.0361 -24.0276 -24.0023 -23.9980 -23.7664 -23.7630 -23.7540 -23.7533
   -19.2677 -19.2661 -19.2527 -19.2492 -18.9652 -18.9651 -18.9536 -18.9536
   -18.2900 -18.2759 -17.2551 -17.2282 -17.1218 -17.1216 -16.0926 -16.0842
   -12.1340 -12.1281 -12.0818 -12.0393 -11.8949 -11.8667 -11.7987 -11.7931
    -8.9106  -8.8741  -8.3065  -8.2954  -7.5913  -7.5812  -7.4670  -7.4359
    -6.8575  -6.8428  -6.6439  -6.5896  -6.5503  -6.5300  -6.4271  -6.3957
    -6.1830  -6.1651  -6.0818  -6.0531  -5.9250  -5.9005  -5.8094  -5.8033
    -5.6875  -5.6719  -5.5544  -5.5499  -5.1463  -5.1162  -4.9856  -4.9656
    -4.5324  -4.5303  -4.4469  -4.4262  -4.2611  -4.2093  -3.9038  -3.8833
    -3.7005  -3.6446  -3.5441  -3.5183  -3.1911  -3.1718  -3.0544  -3.0538
    -0.7929  -0.7834  -0.3462  -0.3404  -0.2784  -0.2441  -0.1795  -0.1704
    -0.1288  -0.1097   0.0352   0.0637   0.1488   0.1827   0.2905   0.3186
     0.5275   0.5487   0.5973   0.6494   0.6918   0.7203   0.8331   0.8365
     0.9092   0.9393   1.0579   1.0818   1.1938   1.2425   1.3115   1.3201

     occupation numbers 
     1.0000   1.0000   1.0000   1.0000   1.0000   1.0000   1.0000   1.0000
     1.0000   1.0000   1.0000   1.0000   1.0000   1.0000   1.0000   1.0000
     1.0000   1.0000   1.0000   1.0000   1.0000   1.0000   1.0000   1.0000
     1.0000   1.0000   1.0000   1.0000   1.0000   1.0000   1.0000   1.0000
     1.0000   1.0000   1.0000   1.0000   1.0000   1.0000   1.0000   1.0000
     1.0000   1.0000   1.0000   1.0000   1.0000   1.0000   1.0000   1.0000
     1.0000   1.0000   1.0000   1.0000   1.0000   1.0000   1.0000   1.0000
     1.0000   1.0000   1.0000   1.0000   1.0000   1.0000   1.0000   1.0000
     1.0000   1.0000   1.0000   1.0000   1.0000   1.0000   1.0000   1.0000
     1.0000   1.0000   1.0000   1.0000   1.0000   1.0000   1.0000   1.0000
     1.0000   1.0000   1.0000   1.0000   1.0000   1.0000   1.0000   1.0000
     1.0000   1.0000   1.0000   1.0000   1.0000   1.0000   1.0000   1.0000
     1.0000   1.0000   1.0000   1.0000   1.0000   1.0000   1.0000   1.0000
     1.0000   1.0000   1.0000   1.0000   1.0000   1.0000   1.0000   1.0000

          k = 0.0575 0.0113 0.0303 ( 27375 PWs)   bands (ev):

   -24.0303 -24.0208 -24.0039 -24.0033 -23.7656 -23.7629 -23.7588 -23.7540
   -19.2668 -19.2629 -19.2588 -19.2498 -18.9644 -18.9634 -18.9560 -18.9545
   -18.2902 -18.2900 -17.2404 -17.2382 -17.1208 -17.1189 -16.0940 -16.0924
   -12.1212 -12.1196 -12.0217 -12.0039 -11.8684 -11.8513 -11.8165 -11.8024
    -8.9238  -8.8917  -8.3181  -8.2969  -7.5828  -7.5569  -7.5369  -7.4731
    -7.0291  -6.9626  -6.7219  -6.5939  -6.5176  -6.4819  -6.3176  -6.2805
    -6.2616  -6.2048  -6.0864  -6.0192  -5.9455  -5.9029  -5.8324  -5.8088
    -5.7242  -5.6802  -5.5927  -5.5726  -5.1982  -5.0898  -4.9738  -4.9659
    -4.5110  -4.4893  -4.4353  -4.3911  -4.0768  -4.0277  -3.8599  -3.8175
    -3.7698  -3.6573  -3.6017  -3.5960  -3.1935  -3.1914  -3.0620  -3.0353
    -0.8047  -0.7900  -0.3466  -0.3443  -0.2542  -0.2369  -0.1749  -0.1497
    -0.1220  -0.0919   0.0531   0.0674   0.1451   0.1594   0.2854   0.3104
     0.5337   0.5422   0.6114   0.6618   0.7309   0.7410   0.8043   0.8245
     0.8788   0.9304   0.9632   1.0061   1.2354   1.2710   1.3041   1.3409

     occupation numbers 
     1.0000   1.0000   1.0000   1.0000   1.0000   1.0000   1.0000   1.0000
     1.0000   1.0000   1.0000   1.0000   1.0000   1.0000   1.0000   1.0000
     1.0000   1.0000   1.0000   1.0000   1.0000   1.0000   1.0000   1.0000
     1.0000   1.0000   1.0000   1.0000   1.0000   1.0000   1.0000   1.0000
     1.0000   1.0000   1.0000   1.0000   1.0000   1.0000   1.0000   1.0000
     1.0000   1.0000   1.0000   1.0000   1.0000   1.0000   1.0000   1.0000
     1.0000   1.0000   1.0000   1.0000   1.0000   1.0000   1.0000   1.0000
     1.0000   1.0000   1.0000   1.0000   1.0000   1.0000   1.0000   1.0000
     1.0000   1.0000   1.0000   1.0000   1.0000   1.0000   1.0000   1.0000
     1.0000   1.0000   1.0000   1.0000   1.0000   1.0000   1.0000   1.0000
     1.0000   1.0000   1.0000   1.0000   1.0000   1.0000   1.0000   1.0000
     1.0000   1.0000   1.0000   1.0000   1.0000   1.0000   1.0000   1.0000
     1.0000   1.0000   1.0000   1.0000   1.0000   1.0000   1.0000   1.0000
     1.0000   1.0000   1.0000   1.0000   1.0000   1.0000   1.0000   1.0000

          k = 0.0575 0.0113 0.0651 ( 27388 PWs)   bands (ev):

   -24.0264 -24.0235 -24.0076 -23.9997 -23.7650 -23.7647 -23.7610 -23.7517
   -19.2672 -19.2643 -19.2591 -19.2489 -18.9737 -18.9717 -18.9490 -18.9452
   -18.3043 -18.2810 -17.2596 -17.2177 -17.1115 -17.1076 -16.1091 -16.0912
   -12.1346 -12.1270 -12.0517 -11.9772 -11.8668 -11.8260 -11.8201 -11.8047
    -8.9668  -8.8480  -8.3114  -8.2774  -7.5877  -7.5597  -7.5021  -7.3586
    -7.1284  -6.9118  -6.7265  -6.5484  -6.5377  -6.4912  -6.4567  -6.3726
    -6.3060  -6.2373  -6.0367  -6.0263  -5.9728  -5.9343  -5.8697  -5.8109
    -5.7005  -5.6507  -5.5493  -5.4773  -5.2107  -5.0481  -5.0382  -4.9762
    -4.4526  -4.4381  -4.3744  -4.3307  -4.0339  -4.0118  -3.9655  -3.9270
    -3.7790  -3.6827  -3.6087  -3.5140  -3.2401  -3.2073  -3.0591  -3.0064
    -0.8791  -0.8363  -0.3528  -0.3204  -0.2583  -0.2284  -0.1716  -0.1336
    -0.0885  -0.0545   0.1152   0.1464   0.1649   0.1882   0.2545   0.3464
     0.4519   0.4719   0.5230   0.6289   0.7185   0.7506   0.7852   0.8219
     0.9146   0.9588   0.9733   1.0029   1.2495   1.2896   1.3065   1.3547

     occupation numbers 
     1.0000   1.0000   1.0000   1.0000   1.0000   1.0000   1.0000   1.0000
     1.0000   1.0000   1.0000   1.0000   1.0000   1.0000   1.0000   1.0000
     1.0000   1.0000   1.0000   1.0000   1.0000   1.0000   1.0000   1.0000
     1.0000   1.0000   1.0000   1.0000   1.0000   1.0000   1.0000   1.0000
     1.0000   1.0000   1.0000   1.0000   1.0000   1.0000   1.0000   1.0000
     1.0000   1.0000   1.0000   1.0000   1.0000   1.0000   1.0000   1.0000
     1.0000   1.0000   1.0000   1.0000   1.0000   1.0000   1.0000   1.0000
     1.0000   1.0000   1.0000   1.0000   1.0000   1.0000   1.0000   1.0000
     1.0000   1.0000   1.0000   1.0000   1.0000   1.0000   1.0000   1.0000
     1.0000   1.0000   1.0000   1.0000   1.0000   1.0000   1.0000   1.0000
     1.0000   1.0000   1.0000   1.0000   1.0000   1.0000   1.0000   1.0000
     1.0000   1.0000   1.0000   1.0000   1.0000   1.0000   1.0000   1.0000
     1.0000   1.0000   1.0000   1.0000   1.0000   1.0000   1.0000   1.0000
     1.0000   1.0000   1.0000   1.0000   1.0000   1.0000   1.0000   1.0000

          k = 0.0575 0.0113-0.0393 ( 27379 PWs)   bands (ev):

   -24.0279 -24.0224 -24.0091 -23.9977 -23.7680 -23.7669 -23.7569 -23.7506
   -19.2653 -19.2634 -19.2594 -19.2516 -18.9747 -18.9728 -18.9479 -18.9442
   -18.3087 -18.2754 -17.2691 -17.2078 -17.1142 -17.1106 -16.1089 -16.0853
   -12.1390 -12.1280 -12.0748 -11.9578 -11.8825 -11.8196 -11.8142 -11.7988
    -8.9624  -8.8246  -8.3055  -8.2791  -7.5871  -7.5606  -7.5228  -7.3475
    -7.1484  -6.9147  -6.7128  -6.5732  -6.5398  -6.5238  -6.4513  -6.3920
    -6.3143  -6.2512  -6.0263  -5.9689  -5.9606  -5.9336  -5.8719  -5.8271
    -5.6771  -5.6478  -5.5547  -5.4772  -5.2015  -5.0737  -5.0119  -4.9609
    -4.4580  -4.4181  -4.3699  -4.3465  -4.0630  -4.0569  -3.9094  -3.9061
    -3.7311  -3.7092  -3.6603  -3.5185  -3.2441  -3.2037  -3.0566  -3.0114
    -0.8365  -0.7721  -0.3464  -0.2971  -0.2719  -0.2481  -0.1777  -0.1496
    -0.1458  -0.1074   0.0504   0.1270   0.1633   0.2043   0.2218   0.2486
     0.5040   0.5732   0.5983   0.6137   0.7212   0.7373   0.8083   0.8342
     0.9084   0.9393   0.9931   1.0568   1.2659   1.2848   1.2875   1.3192

     occupation numbers 
     1.0000   1.0000   1.0000   1.0000   1.0000   1.0000   1.0000   1.0000
     1.0000   1.0000   1.0000   1.0000   1.0000   1.0000   1.0000   1.0000
     1.0000   1.0000   1.0000   1.0000   1.0000   1.0000   1.0000   1.0000
     1.0000   1.0000   1.0000   1.0000   1.0000   1.0000   1.0000   1.0000
     1.0000   1.0000   1.0000   1.0000   1.0000   1.0000   1.0000   1.0000
     1.0000   1.0000   1.0000   1.0000   1.0000   1.0000   1.0000   1.0000
     1.0000   1.0000   1.0000   1.0000   1.0000   1.0000   1.0000   1.0000
     1.0000   1.0000   1.0000   1.0000   1.0000   1.0000   1.0000   1.0000
     1.0000   1.0000   1.0000   1.0000   1.0000   1.0000   1.0000   1.0000
     1.0000   1.0000   1.0000   1.0000   1.0000   1.0000   1.0000   1.0000
     1.0000   1.0000   1.0000   1.0000   1.0000   1.0000   1.0000   1.0000
     1.0000   1.0000   1.0000   1.0000   1.0000   1.0000   1.0000   1.0000
     1.0000   1.0000   1.0000   1.0000   1.0000   1.0000   1.0000   1.0000
     1.0000   1.0000   1.0000   1.0000   1.0000   1.0000   1.0000   1.0000

          k = 0.0575 0.0113-0.0045 ( 27357 PWs)   bands (ev):

   -24.0311 -24.0205 -24.0076 -23.9991 -23.7684 -23.7650 -23.7548 -23.7531
   -19.2648 -19.2630 -19.2560 -19.2547 -18.9668 -18.9661 -18.9534 -18.9520
   -18.3014 -18.2775 -17.2616 -17.2164 -17.1230 -17.1224 -16.0979 -16.0824
   -12.1270 -12.1193 -12.0616 -11.9668 -11.8917 -11.8321 -11.8076 -11.8054
    -8.9335  -8.8537  -8.3074  -8.3039  -7.5821  -7.5723  -7.5540  -7.4544
    -7.0470  -6.9597  -6.6767  -6.6543  -6.5148  -6.5084  -6.3525  -6.3187
    -6.2383  -6.2357  -6.0282  -5.9975  -5.9061  -5.8727  -5.8543  -5.8376
    -5.7000  -5.6870  -5.5879  -5.5764  -5.1595  -5.1398  -4.9515  -4.9472
    -4.5122  -4.4871  -4.4294  -4.4001  -4.0908  -4.0474  -3.8244  -3.8188
    -3.7263  -3.6836  -3.6595  -3.5862  -3.2107  -3.1767  -3.0583  -3.0406
    -0.7504  -0.7021  -0.3499  -0.3407  -0.2636  -0.2609  -0.2264  -0.2251
    -0.1366  -0.1081   0.0079   0.0684   0.1276   0.1657   0.2598   0.2947
     0.5248   0.5826   0.6617   0.7074   0.7221   0.7604   0.8206   0.8467
     0.8784   0.8965   0.9768   1.0563   1.2535   1.2638   1.2865   1.3008

     occupation numbers 
     1.0000   1.0000   1.0000   1.0000   1.0000   1.0000   1.0000   1.0000
     1.0000   1.0000   1.0000   1.0000   1.0000   1.0000   1.0000   1.0000
     1.0000   1.0000   1.0000   1.0000   1.0000   1.0000   1.0000   1.0000
     1.0000   1.0000   1.0000   1.0000   1.0000   1.0000   1.0000   1.0000
     1.0000   1.0000   1.0000   1.0000   1.0000   1.0000   1.0000   1.0000
     1.0000   1.0000   1.0000   1.0000   1.0000   1.0000   1.0000   1.0000
     1.0000   1.0000   1.0000   1.0000   1.0000   1.0000   1.0000   1.0000
     1.0000   1.0000   1.0000   1.0000   1.0000   1.0000   1.0000   1.0000
     1.0000   1.0000   1.0000   1.0000   1.0000   1.0000   1.0000   1.0000
     1.0000   1.0000   1.0000   1.0000   1.0000   1.0000   1.0000   1.0000
     1.0000   1.0000   1.0000   1.0000   1.0000   1.0000   1.0000   1.0000
     1.0000   1.0000   1.0000   1.0000   1.0000   1.0000   1.0000   1.0000
     1.0000   1.0000   1.0000   1.0000   1.0000   1.0000   1.0000   1.0000
     1.0000   1.0000   1.0000   1.0000   1.0000   1.0000   1.0000   1.0000

          k = 0.0575 0.0340 0.0303 ( 27354 PWs)   bands (ev):

   -24.0273 -24.0233 -24.0042 -24.0037 -23.7638 -23.7629 -23.7583 -23.7561
   -19.2668 -19.2657 -19.2545 -19.2513 -18.9641 -18.9637 -18.9556 -18.9549
   -18.2902 -18.2901 -17.2399 -17.2390 -17.1200 -17.1192 -16.0936 -16.0929
   -12.1208 -12.1201 -12.0151 -12.0076 -11.8654 -11.8582 -11.8121 -11.8062
    -8.9143  -8.9010  -8.3091  -8.3001  -7.5755  -7.5655  -7.5199  -7.4935
    -7.0322  -7.0095  -6.6455  -6.5989  -6.5019  -6.4805  -6.3471  -6.3138
    -6.2442  -6.2163  -6.0572  -6.0289  -5.9416  -5.9164  -5.8284  -5.8089
    -5.7044  -5.6905  -5.5872  -5.5786  -5.1677  -5.1229  -4.9769  -4.9731
    -4.5019  -4.4892  -4.4289  -4.4104  -4.0542  -4.0328  -3.8486  -3.8306
    -3.7375  -3.6916  -3.6011  -3.5963  -3.1927  -3.1906  -3.0581  -3.0463
    -0.7970  -0.7910  -0.3368  -0.3304  -0.2902  -0.2735  -0.1553  -0.1352
    -0.1161  -0.1004   0.0664   0.0806   0.1499   0.1632   0.2859   0.2976
     0.5547   0.5608   0.5937   0.6198   0.7296   0.7376   0.8142   0.8361
     0.8953   0.9263   0.9640   0.9855   1.2463   1.2608   1.3152   1.3302

     occupation numbers 
     1.0000   1.0000   1.0000   1.0000   1.0000   1.0000   1.0000   1.0000
     1.0000   1.0000   1.0000   1.0000   1.0000   1.0000   1.0000   1.0000
     1.0000   1.0000   1.0000   1.0000   1.0000   1.0000   1.0000   1.0000
     1.0000   1.0000   1.0000   1.0000   1.0000   1.0000   1.0000   1.0000
     1.0000   1.0000   1.0000   1.0000   1.0000   1.0000   1.0000   1.0000
     1.0000   1.0000   1.0000   1.0000   1.0000   1.0000   1.0000   1.0000
     1.0000   1.0000   1.0000   1.0000   1.0000   1.0000   1.0000   1.0000
     1.0000   1.0000   1.0000   1.0000   1.0000   1.0000   1.0000   1.0000
     1.0000   1.0000   1.0000   1.0000   1.0000   1.0000   1.0000   1.0000
     1.0000   1.0000   1.0000   1.0000   1.0000   1.0000   1.0000   1.0000
     1.0000   1.0000   1.0000   1.0000   1.0000   1.0000   1.0000   1.0000
     1.0000   1.0000   1.0000   1.0000   1.0000   1.0000   1.0000   1.0000
     1.0000   1.0000   1.0000   1.0000   1.0000   1.0000   1.0000   1.0000
     1.0000   1.0000   1.0000   1.0000   1.0000   1.0000   1.0000   1.0000

          k = 0.0575 0.0340 0.0651 ( 27370 PWs)   bands (ev):

   -24.0251 -24.0240 -24.0058 -24.0025 -23.7649 -23.7647 -23.7583 -23.7544
   -19.2675 -19.2668 -19.2545 -19.2507 -18.9731 -18.9723 -18.9479 -18.9463
   -18.2977 -18.2880 -17.2473 -17.2299 -17.1103 -17.1088 -16.1038 -16.0964
   -12.1345 -12.1317 -12.0287 -11.9988 -11.8531 -11.8366 -11.8158 -11.8094
    -8.9332  -8.8841  -8.3000  -8.2859  -7.5667  -7.5525  -7.4840  -7.4195
    -7.0876  -7.0108  -6.6306  -6.5715  -6.5270  -6.5125  -6.4168  -6.3657
    -6.3028  -6.2536  -6.0180  -6.0092  -5.9759  -5.9626  -5.8772  -5.8404
    -5.6918  -5.6718  -5.5217  -5.4920  -5.1722  -5.1041  -5.0172  -4.9910
    -4.4399  -4.4204  -4.3709  -4.3374  -4.0236  -4.0153  -3.9555  -3.9401
    -3.7596  -3.7245  -3.5737  -3.5375  -3.2315  -3.2180  -3.0440  -3.0221
    -0.8633  -0.8458  -0.3412  -0.3271  -0.2850  -0.2766  -0.1454  -0.1337
    -0.0580  -0.0463   0.1318   0.1425   0.1780   0.1904   0.2774   0.3201
     0.4396   0.4488   0.5726   0.6280   0.6950   0.7298   0.8000   0.8182
     0.9103   0.9362   0.9929   1.0085   1.2603   1.2767   1.3203   1.3400

     occupation numbers 
     1.0000   1.0000   1.0000   1.0000   1.0000   1.0000   1.0000   1.0000
     1.0000   1.0000   1.0000   1.0000   1.0000   1.0000   1.0000   1.0000
     1.0000   1.0000   1.0000   1.0000   1.0000   1.0000   1.0000   1.0000
     1.0000   1.0000   1.0000   1.0000   1.0000   1.0000   1.0000   1.0000
     1.0000   1.0000   1.0000   1.0000   1.0000   1.0000   1.0000   1.0000
     1.0000   1.0000   1.0000   1.0000   1.0000   1.0000   1.0000   1.0000
     1.0000   1.0000   1.0000   1.0000   1.0000   1.0000   1.0000   1.0000
     1.0000   1.0000   1.0000   1.0000   1.0000   1.0000   1.0000   1.0000
     1.0000   1.0000   1.0000   1.0000   1.0000   1.0000   1.0000   1.0000
     1.0000   1.0000   1.0000   1.0000   1.0000   1.0000   1.0000   1.0000
     1.0000   1.0000   1.0000   1.0000   1.0000   1.0000   1.0000   1.0000
     1.0000   1.0000   1.0000   1.0000   1.0000   1.0000   1.0000   1.0000
     1.0000   1.0000   1.0000   1.0000   1.0000   1.0000   1.0000   1.0000
     1.0000   1.0000   1.0000   1.0000   1.0000   1.0000   1.0000   1.0000

          k = 0.0575 0.0340-0.0393 ( 27363 PWs)   bands (ev):

   -24.0264 -24.0242 -24.0057 -24.0010 -23.7675 -23.7670 -23.7552 -23.7526
   -19.2660 -19.2657 -19.2554 -19.2527 -18.9741 -18.9733 -18.9468 -18.9453
   -18.2993 -18.2855 -17.2509 -17.2254 -17.1133 -17.1119 -16.1017 -16.0919
   -12.1389 -12.1354 -12.0425 -11.9983 -11.8547 -11.8319 -11.8096 -11.8038
    -8.9239  -8.8670  -8.2974  -8.2864  -7.5715  -7.5538  -7.4922  -7.4135
    -7.0956  -7.0106  -6.6296  -6.5867  -6.5382  -6.5204  -6.4681  -6.4150
    -6.2669  -6.2253  -6.0297  -5.9945  -5.9541  -5.9402  -5.8770  -5.8484
    -5.6760  -5.6633  -5.5179  -5.4857  -5.1864  -5.1334  -4.9861  -4.9648
    -4.4575  -4.4401  -4.3441  -4.3269  -4.0579  -4.0556  -3.9104  -3.9074
    -3.7380  -3.7304  -3.6089  -3.5540  -3.2307  -3.2133  -3.0468  -3.0276
    -0.8152  -0.7883  -0.3373  -0.3195  -0.2939  -0.2774  -0.1570  -0.1502
    -0.1149  -0.0923   0.0764   0.1057   0.1712   0.1876   0.2254   0.2496
     0.5264   0.5512   0.6273   0.6284   0.7175   0.7219   0.7931   0.8025
     0.9195   0.9377   1.0182   1.0426   1.2701   1.2791   1.2946   1.3087

     occupation numbers 
     1.0000   1.0000   1.0000   1.0000   1.0000   1.0000   1.0000   1.0000
     1.0000   1.0000   1.0000   1.0000   1.0000   1.0000   1.0000   1.0000
     1.0000   1.0000   1.0000   1.0000   1.0000   1.0000   1.0000   1.0000
     1.0000   1.0000   1.0000   1.0000   1.0000   1.0000   1.0000   1.0000
     1.0000   1.0000   1.0000   1.0000   1.0000   1.0000   1.0000   1.0000
     1.0000   1.0000   1.0000   1.0000   1.0000   1.0000   1.0000   1.0000
     1.0000   1.0000   1.0000   1.0000   1.0000   1.0000   1.0000   1.0000
     1.0000   1.0000   1.0000   1.0000   1.0000   1.0000   1.0000   1.0000
     1.0000   1.0000   1.0000   1.0000   1.0000   1.0000   1.0000   1.0000
     1.0000   1.0000   1.0000   1.0000   1.0000   1.0000   1.0000   1.0000
     1.0000   1.0000   1.0000   1.0000   1.0000   1.0000   1.0000   1.0000
     1.0000   1.0000   1.0000   1.0000   1.0000   1.0000   1.0000   1.0000
     1.0000   1.0000   1.0000   1.0000   1.0000   1.0000   1.0000   1.0000
     1.0000   1.0000   1.0000   1.0000   1.0000   1.0000   1.0000   1.0000

          k = 0.0575 0.0340-0.0045 ( 27348 PWs)   bands (ev):

   -24.0282 -24.0239 -24.0049 -24.0015 -23.7670 -23.7655 -23.7547 -23.7540
   -19.2651 -19.2645 -19.2546 -19.2542 -18.9666 -18.9663 -18.9530 -18.9524
   -18.2946 -18.2847 -17.2483 -17.2296 -17.1228 -17.1226 -16.0933 -16.0868
   -12.1261 -12.1234 -12.0369 -12.0003 -11.8678 -11.8454 -11.8071 -11.8051
    -8.9106  -8.8777  -8.3053  -8.3025  -7.5788  -7.5748  -7.5277  -7.4864
    -7.0356  -7.0004  -6.6367  -6.6252  -6.5048  -6.4972  -6.4058  -6.3938
    -6.1953  -6.1874  -6.0387  -6.0195  -5.8996  -5.8852  -5.8354  -5.8263
    -5.7009  -5.6888  -5.5845  -5.5796  -5.1631  -5.1523  -4.9490  -4.9482
    -4.5114  -4.4950  -4.4280  -4.4059  -4.0659  -4.0481  -3.8260  -3.8242
    -3.7062  -3.6814  -3.6510  -3.6127  -3.1990  -3.1840  -3.0592  -3.0524
    -0.7348  -0.7148  -0.3341  -0.3286  -0.2827  -0.2594  -0.2486  -0.2302
    -0.1345  -0.1144   0.0306   0.0568   0.1450   0.1637   0.2693   0.2884
     0.5545   0.5858   0.6442   0.6703   0.7287   0.7551   0.8258   0.8318
     0.8999   0.9110   0.9913   1.0282   1.2566   1.2601   1.2901   1.2963

     occupation numbers 
     1.0000   1.0000   1.0000   1.0000   1.0000   1.0000   1.0000   1.0000
     1.0000   1.0000   1.0000   1.0000   1.0000   1.0000   1.0000   1.0000
     1.0000   1.0000   1.0000   1.0000   1.0000   1.0000   1.0000   1.0000
     1.0000   1.0000   1.0000   1.0000   1.0000   1.0000   1.0000   1.0000
     1.0000   1.0000   1.0000   1.0000   1.0000   1.0000   1.0000   1.0000
     1.0000   1.0000   1.0000   1.0000   1.0000   1.0000   1.0000   1.0000
     1.0000   1.0000   1.0000   1.0000   1.0000   1.0000   1.0000   1.0000
     1.0000   1.0000   1.0000   1.0000   1.0000   1.0000   1.0000   1.0000
     1.0000   1.0000   1.0000   1.0000   1.0000   1.0000   1.0000   1.0000
     1.0000   1.0000   1.0000   1.0000   1.0000   1.0000   1.0000   1.0000
     1.0000   1.0000   1.0000   1.0000   1.0000   1.0000   1.0000   1.0000
     1.0000   1.0000   1.0000   1.0000   1.0000   1.0000   1.0000   1.0000
     1.0000   1.0000   1.0000   1.0000   1.0000   1.0000   1.0000   1.0000
     1.0000   1.0000   1.0000   1.0000   1.0000   1.0000   1.0000   1.0000

     highest occupied level (ev):     1.3547

!    total energy              =   -1282.01833688 Ry
     Harris-Foulkes estimate   =   -1282.01833739 Ry
     estimated scf accuracy    <       0.00000057 Ry

     total all-electron energy =     -4786.462085 Ry

     The total energy is the sum of the following terms:

     one-electron contribution =    -651.40907452 Ry
     hartree contribution      =     423.52480518 Ry
     xc contribution           =    -260.28290890 Ry
     ewald contribution        =    -463.45998747 Ry
     one-center paw contrib.   =    -330.39117117 Ry

     convergence has been achieved in  12 iterations

     Writing output data file scf.pbe-ec-60-kp444.HMX-792828-nofor.nostress.save

     init_run     :     48.54s CPU     68.99s WALL (       1 calls)
     electrons    :   1207.78s CPU   1395.14s WALL (       1 calls)

     Called by init_run:
     wfcinit      :     29.25s CPU     44.14s WALL (       1 calls)
     potinit      :      6.55s CPU      6.82s WALL (       1 calls)

     Called by electrons:
     c_bands      :   1084.86s CPU   1244.51s WALL (      12 calls)
     sum_band     :    104.69s CPU    130.16s WALL (      12 calls)
     v_of_rho     :      3.60s CPU      4.15s WALL (      13 calls)
     v_h          :      0.19s CPU      0.23s WALL (      13 calls)
     v_xc         :      3.40s CPU      3.92s WALL (      13 calls)
     newd         :      5.97s CPU      6.84s WALL (      13 calls)
     PAW_pot      :      3.82s CPU      3.85s WALL (      13 calls)
     mix_rho      :      3.07s CPU      3.22s WALL (      12 calls)

     Called by c_bands:
     init_us_2    :      4.66s CPU      4.83s WALL (     400 calls)
     cegterg      :   1058.19s CPU   1206.41s WALL (     192 calls)

     Called by sum_band:
     sum_band:bec :      0.24s CPU      0.26s WALL (     192 calls)
     addusdens    :     11.11s CPU      9.62s WALL (      12 calls)

     Called by *egterg:
     h_psi        :    413.10s CPU    564.56s WALL (    1054 calls)
     s_psi        :     74.54s CPU     57.86s WALL (    1054 calls)
     g_psi        :      1.03s CPU      1.17s WALL (     846 calls)
     cdiaghg      :    361.39s CPU    328.24s WALL (    1038 calls)
     cegterg:over :     99.03s CPU    146.81s WALL (     846 calls)
     cegterg:upda :     58.99s CPU     44.83s WALL (     846 calls)
     cegterg:last :     24.65s CPU     18.93s WALL (     192 calls)

     Called by h_psi:
     h_psi:vloc   :    235.17s CPU    325.77s WALL (    1054 calls)
     h_psi:vnl    :    175.23s CPU    236.06s WALL (    1054 calls)
     add_vuspsi   :     78.08s CPU     83.89s WALL (    1054 calls)

     General routines
     calbec       :    123.62s CPU    193.31s WALL (    1246 calls)
     fft          :      2.85s CPU      4.19s WALL (     204 calls)
     ffts         :      0.16s CPU      0.25s WALL (      25 calls)
     fftw         :    216.87s CPU    314.63s WALL (  158154 calls)
     interpolate  :      0.85s CPU      1.06s WALL (      25 calls)
     davcio       :      0.10s CPU     16.31s WALL (      16 calls)

     Parallel routines
     fft_scatter  :    109.15s CPU    200.30s WALL (  158383 calls)

     PAW routines
     PAW_pot      :      3.82s CPU      3.85s WALL (      13 calls)
     PAW_symme    :      0.01s CPU      0.03s WALL (      25 calls)

     PWSCF        : 20m58.54s CPU    24m46.98s WALL


   This run was terminated on:   9:38: 1  22May2016            

=------------------------------------------------------------------------------=
   JOB DONE.
=------------------------------------------------------------------------------=
