
     Program PWSCF v.5.3.0 (svn rev. 11974) starts on 24May2016 at  6:50:32 

     This program is part of the open-source Quantum ESPRESSO suite
     for quantum simulation of materials; please cite
         "P. Giannozzi et al., J. Phys.:Condens. Matter 21 395502 (2009);
          URL http://www.quantum-espresso.org", 
     in publications or presentations arising from this work. More details at
     http://www.quantum-espresso.org/quote

     Parallel version (MPI), running on     8 processors
     R & G space division:  proc/nbgrp/npool/nimage =       8
     Waiting for input...
     Reading input from standard input
Warning: card     &CELL ignored
Warning: card CELL_DYNAMICS='BFGS' ignored
Warning: card / ignored

     Current dimensions of program PWSCF are:
     Max number of different atomic species (ntypx) = 10
     Max number of k-points (npk) =  40000
     Max angular momentum in pseudopotentials (lmaxx) =  3
               file N.pbe-n-kjpaw_psl.1.0.0.UPF: wavefunction(s)  2S renormalized
               file C.pbe-n-kjpaw_psl.1.0.0.UPF: wavefunction(s)  2S 2P renormalized
               file H.pbe-kjpaw_psl.1.0.0.UPF: wavefunction(s)  1S renormalized
               file O.pbe-n-kjpaw_psl.1.0.0.UPF: wavefunction(s)  2S 2P renormalized

     gamma-point specific algorithms are used

     Subspace diagonalization in iterative solution of the eigenvalue problem:
     a serial algorithm will be used


     Parallelization info
     --------------------
     sticks:   dense  smooth     PW     G-vecs:    dense   smooth      PW
     Min        2542    1016    253               231318    58504    7313
     Max        2545    1017    256               231322    58562    7318
     Sum       20349    8129   2039              1850559   468229   58523
     Tot       10175    4065   1020


     Title: 
     HMX-scf-pbe-n-kjpaw-kp242-ec-100-nofor-nostress-conv-em4                   


     bravais-lattice index     =            0
     lattice parameter (alat)  =       1.8897  a.u.
     unit-cell volume          =    3465.5049 (a.u.)^3
     number of atoms/cell      =           56
     number of atomic types    =            4
     number of electrons       =       224.00
     number of Kohn-Sham states=          112
     kinetic-energy cutoff     =     100.0000  Ry
     charge density cutoff     =    1000.0000  Ry
     convergence threshold     =      1.0E-06
     mixing beta               =       0.7000
     number of iterations used =            8  plain     mixing
     Exchange-correlation      =  SLA  PW   PBX  PBC ( 1  4  3  4 0 0)
     nstep                     =          200


     celldm(1)=   1.889726  celldm(2)=   0.000000  celldm(3)=   0.000000
     celldm(4)=   0.000000  celldm(5)=   0.000000  celldm(6)=   0.000000

     crystal axes: (cart. coord. in units of alat)
               a(1) = (   6.525400   0.000000   0.000000 )  
               a(2) = (   0.000000  10.970200   0.000000 )  
               a(3) = (  -1.601165   0.000000   7.173784 )  

     reciprocal axes: (cart. coord. in units 2 pi/alat)
               b(1) = (  0.153247 -0.000000  0.034204 )  
               b(2) = (  0.000000  0.091156 -0.000000 )  
               b(3) = (  0.000000  0.000000  0.139396 )  


     PseudoPot. # 1 for  N read from file:
     /users/majewski/.data/PSEUDOPOTENTIALS/N.pbe-n-kjpaw_psl.1.0.0.UPF
     MD5 check sum: c21df8f53e59d08c3548513d559cdda6
     Pseudo is Projector augmented-wave + core cor, Zval =  5.0
     Generated using "atomic" code by A. Dal Corso  v.5.3.0 svn rev. 11974
     Shape of augmentation charge: PSQ
     Using radial grid of 1085 points,  4 beta functions with: 
                l(1) =   0
                l(2) =   0
                l(3) =   1
                l(4) =   1
     Q(r) pseudized with 0 coefficients 


     PseudoPot. # 2 for  C read from file:
     /users/majewski/.data/PSEUDOPOTENTIALS/C.pbe-n-kjpaw_psl.1.0.0.UPF
     MD5 check sum: 2ba8448e293caca687844dde9a1b88a8
     Pseudo is Projector augmented-wave + core cor, Zval =  4.0
     Generated using "atomic" code by A. Dal Corso  v.5.3.0 svn rev. 11974
     Shape of augmentation charge: PSQ
     Using radial grid of 1073 points,  4 beta functions with: 
                l(1) =   0
                l(2) =   0
                l(3) =   1
                l(4) =   1
     Q(r) pseudized with 0 coefficients 


     PseudoPot. # 3 for  H read from file:
     /users/majewski/.data/PSEUDOPOTENTIALS/H.pbe-kjpaw_psl.1.0.0.UPF
     MD5 check sum: bc0feb48a24907a0b97fa6ee2d589a29
     Pseudo is Projector augmented-wave, Zval =  1.0
     Generated using "atomic" code by A. Dal Corso  v.5.3.0 svn rev. 11974
     Shape of augmentation charge: PSQ
     Using radial grid of  929 points,  2 beta functions with: 
                l(1) =   0
                l(2) =   0
     Q(r) pseudized with 0 coefficients 


     PseudoPot. # 4 for  O read from file:
     /users/majewski/.data/PSEUDOPOTENTIALS/O.pbe-n-kjpaw_psl.1.0.0.UPF
     MD5 check sum: 9c0ade6c043cf4a781bde3908a3a8206
     Pseudo is Projector augmented-wave + core cor, Zval =  6.0
     Generated using "atomic" code by A. Dal Corso  v.5.3.0 svn rev. 11974
     Shape of augmentation charge: PSQ
     Using radial grid of 1095 points,  4 beta functions with: 
                l(1) =   0
                l(2) =   0
                l(3) =   1
                l(4) =   1
     Q(r) pseudized with 0 coefficients 


     atomic species   valence    mass     pseudopotential
        N              5.00    14.00670      N( 1.00)
        C              4.00    12.01100      C( 1.00)
        H              1.00     1.00790      H( 1.00)
        O              6.00    15.99940      O( 1.00)

      2 Sym. Ops., with inversion, found
          (note:  2 additional sym.ops. were found but ignored
           their fractional translations are incommensurate with FFT grid)

                                    s                        frac. trans.

      isym =  1     identity                                     

 cryst.   s( 1) = (     1          0          0      )
                  (     0          1          0      )
                  (     0          0          1      )

 cart.    s( 1) = (  1.0000000  0.0000000  0.0000000 )
                  (  0.0000000  1.0000000  0.0000000 )
                  (  0.0000000  0.0000000  1.0000000 )


      isym =  2     inversion                                    

 cryst.   s( 2) = (    -1          0          0      )
                  (     0         -1          0      )
                  (     0          0         -1      )

 cart.    s( 2) = ( -1.0000000  0.0000000  0.0000000 )
                  (  0.0000000 -1.0000000  0.0000000 )
                  (  0.0000000  0.0000000 -1.0000000 )


   Cartesian axes

     site n.     atom                  positions (alat units)
         1           N   tau(   1) = (  -0.8600534   6.8323503   3.3057516  )
         2           O   tau(   2) = (   1.0740307   7.8956917   3.1284874  )
         3           N   tau(   3) = (   0.0641502   7.7134767   3.8085621  )
         4           N   tau(   4) = (  -2.0611165   5.7640722   5.0625396  )
         5           O   tau(   5) = (  -3.2546734   4.7030344   6.6181748  )
         6           N   tau(   6) = (  -3.2420076   5.5007874   5.6931153  )
         7           O   tau(   7) = (  -0.1744868   8.2015409   4.9011295  )
         8           C   tau(   8) = (  -2.1308106   6.7490864   3.9685375  )
         9           H   tau(   9) = (  -2.8209601   6.4811942   3.3272012  )
        10           H   tau(  10) = (  -2.3726867   7.6275801   4.3300962  )
        11           O   tau(  11) = (  -4.2139476   6.1474807   5.2942529  )
        12           C   tau(  12) = (  -0.5939543   6.2077071   2.0208551  )
        13           H   tau(  13) = (  -1.4110814   5.7834894   1.7145345  )
        14           H   tau(  14) = (  -0.3209154   6.8519869   1.3501062  )
        15           H   tau(  15) = (   2.1412023  -1.3668869   4.9369984  )
        16           H   tau(  16) = (   1.0510363  -0.2983894   5.3014266  )
        17           C   tau(  17) = (   1.8681633  -0.7226071   5.6077472  )
        18           O   tau(  18) = (  -1.7518299  -0.6623807   8.8811450  )
        19           H   tau(  19) = (   0.0894310  -2.1424801   7.9169884  )
        20           H   tau(  20) = (  -0.3588424  -0.9960942   6.9140934  )
        21           C   tau(  21) = (   0.3313071  -1.2639864   7.5554297  )
        22           O   tau(  22) = (   2.2876309  -2.7164409   8.4880216  )
        23           N   tau(  23) = (  -0.7798899  -0.0156874   9.2800074  )
        24           O   tau(  24) = (  -0.7925557   0.7820656  10.2050669  )
        25           N   tau(  25) = (   0.4010012  -0.2789722   8.6494318  )
        26           N   tau(  26) = (   2.5262679  -2.2283767   7.3954543  )
        27           O   tau(  27) = (   3.5361484  -2.4105917   6.7153795  )
        28           N   tau(  28) = (   1.6020643  -1.3472503   6.8926437  )
        29           H   tau(  29) = (  -1.2802493   4.1182131   5.8236781  )
        30           H   tau(  30) = (  -0.1900832   5.1867106   5.4592499  )
        31           C   tau(  31) = (  -1.0072103   4.7624929   5.1529293  )
        32           O   tau(  32) = (   2.6127830   4.8227193   1.8795315  )
        33           H   tau(  33) = (   0.7715220   3.3426199   2.8436881  )
        34           H   tau(  34) = (   1.2197954   4.4890058   3.8465832  )
        35           C   tau(  35) = (   0.5296460   4.2211136   3.2052468  )
        36           O   tau(  36) = (  -1.4266778   2.7686591   2.2726549  )
        37           N   tau(  37) = (   1.6408430   5.4694126   1.4806691  )
        38           O   tau(  38) = (   1.6535088   6.2671656   0.5556096  )
        39           N   tau(  39) = (   0.4599518   5.2061278   2.1112447  )
        40           N   tau(  40) = (  -1.6653149   3.2567233   3.3652222  )
        41           O   tau(  41) = (  -2.6751954   3.0745083   4.0452970  )
        42           N   tau(  42) = (  -0.7411112   4.1378497   3.8680328  )
        43           H   tau(  43) = (   1.1818684   1.3668869   9.4105703  )
        44           H   tau(  44) = (   2.2720344   0.2983894   9.0461421  )
        45           C   tau(  45) = (   1.4549074   0.7226071   8.7398215  )
        46           O   tau(  46) = (   5.0749007   0.6623807   5.4664237  )
        47           H   tau(  47) = (   3.2336397   2.1424801   6.4305803  )
        48           H   tau(  48) = (   3.6819131   0.9960942   7.4334753  )
        49           C   tau(  49) = (   2.9917636   1.2639864   6.7921390  )
        50           O   tau(  50) = (   1.0354399   2.7164409   5.8595471  )
        51           N   tau(  51) = (   4.1029606   0.0156874   5.0675613  )
        52           O   tau(  52) = (   4.1156264  -0.7820656   4.1425018  )
        53           N   tau(  53) = (   2.9220695   0.2789722   5.6981369  )
        54           N   tau(  54) = (   0.7968028   2.2283767   6.9521144  )
        55           O   tau(  55) = (  -0.2130777   2.4105917   7.6321892  )
        56           N   tau(  56) = (   1.7210065   1.3472503   7.4549250  )

   Crystallographic axes

     site n.     atom                  positions (cryst. coord.)
         1           N   tau(   1) = ( -0.0187300  0.6228100  0.4608100  )
         2           O   tau(   2) = (  0.2716000  0.7197400  0.4361000  )
         3           N   tau(   3) = (  0.1401000  0.7031300  0.5309000  )
         4           N   tau(   4) = ( -0.1427000  0.5254300  0.7057000  )
         5           O   tau(   5) = ( -0.2724000  0.4287100  0.9225500  )
         6           N   tau(   6) = ( -0.3021000  0.5014300  0.7936000  )
         7           O   tau(   7) = (  0.1409000  0.7476200  0.6832000  )
         8           C   tau(   8) = ( -0.1908000  0.6152200  0.5532000  )
         9           H   tau(   9) = ( -0.3185000  0.5908000  0.4638000  )
        10           H   tau(  10) = ( -0.2155000  0.6953000  0.6036000  )
        11           O   tau(  11) = ( -0.4646900  0.5603800  0.7380000  )
        12           C   tau(  12) = ( -0.0219000  0.5658700  0.2817000  )
        13           H   tau(  13) = ( -0.1576000  0.5272000  0.2390000  )
        14           H   tau(  14) = ( -0.0030000  0.6246000  0.1882000  )
        15           H   tau(  15) = (  0.4970000 -0.1246000  0.6882000  )
        16           H   tau(  16) = (  0.3424000 -0.0272000  0.7390000  )
        17           C   tau(  17) = (  0.4781000 -0.0658700  0.7817000  )
        18           O   tau(  18) = (  0.0353100 -0.0603800  1.2380000  )
        19           H   tau(  19) = (  0.2845000 -0.1953000  1.1036000  )
        20           H   tau(  20) = (  0.1815000 -0.0908000  0.9638000  )
        21           C   tau(  21) = (  0.3092000 -0.1152200  1.0532000  )
        22           O   tau(  22) = (  0.6409000 -0.2476200  1.1832000  )
        23           N   tau(  23) = (  0.1979000 -0.0014300  1.2936000  )
        24           O   tau(  24) = (  0.2276000  0.0712900  1.4225500  )
        25           N   tau(  25) = (  0.3573000 -0.0254300  1.2057000  )
        26           N   tau(  26) = (  0.6401000 -0.2031300  1.0309000  )
        27           O   tau(  27) = (  0.7716000 -0.2197400  0.9361000  )
        28           N   tau(  28) = (  0.4812700 -0.1228100  0.9608100  )
        29           H   tau(  29) = (  0.0030000  0.3754000  0.8118000  )
        30           H   tau(  30) = (  0.1576000  0.4728000  0.7610000  )
        31           C   tau(  31) = (  0.0219000  0.4341300  0.7183000  )
        32           O   tau(  32) = (  0.4646900  0.4396200  0.2620000  )
        33           H   tau(  33) = (  0.2155000  0.3047000  0.3964000  )
        34           H   tau(  34) = (  0.3185000  0.4092000  0.5362000  )
        35           C   tau(  35) = (  0.1908000  0.3847800  0.4468000  )
        36           O   tau(  36) = ( -0.1409000  0.2523800  0.3168000  )
        37           N   tau(  37) = (  0.3021000  0.4985700  0.2064000  )
        38           O   tau(  38) = (  0.2724000  0.5712900  0.0774500  )
        39           N   tau(  39) = (  0.1427000  0.4745700  0.2943000  )
        40           N   tau(  40) = ( -0.1401000  0.2968700  0.4691000  )
        41           O   tau(  41) = ( -0.2716000  0.2802600  0.5639000  )
        42           N   tau(  42) = (  0.0187300  0.3771900  0.5391900  )
        43           H   tau(  43) = (  0.5030000  0.1246000  1.3118000  )
        44           H   tau(  44) = (  0.6576000  0.0272000  1.2610000  )
        45           C   tau(  45) = (  0.5219000  0.0658700  1.2183000  )
        46           O   tau(  46) = (  0.9646900  0.0603800  0.7620000  )
        47           H   tau(  47) = (  0.7155000  0.1953000  0.8964000  )
        48           H   tau(  48) = (  0.8185000  0.0908000  1.0362000  )
        49           C   tau(  49) = (  0.6908000  0.1152200  0.9468000  )
        50           O   tau(  50) = (  0.3591000  0.2476200  0.8168000  )
        51           N   tau(  51) = (  0.8021000  0.0014300  0.7064000  )
        52           O   tau(  52) = (  0.7724000 -0.0712900  0.5774500  )
        53           N   tau(  53) = (  0.6427000  0.0254300  0.7943000  )
        54           N   tau(  54) = (  0.3599000  0.2031300  0.9691000  )
        55           O   tau(  55) = (  0.2284000  0.2197400  1.0639000  )
        56           N   tau(  56) = (  0.5187300  0.1228100  1.0391900  )

     number of k points=     1
                       cart. coord. in units 2pi/alat
        k(    1) = (   0.0000000   0.0000000   0.0000000), wk =   2.0000000

                       cryst. coord.
        k(    1) = (   0.0000000   0.0000000   0.0000000), wk =   2.0000000

     Dense  grid:   925280 G-vectors     FFT dimensions: ( 125, 216, 144)

     Smooth grid:   234115 G-vectors     FFT dimensions: (  80, 135,  90)

     Largest allocated arrays     est. size (Mb)     dimensions
        Kohn-Sham Wavefunctions         6.25 Mb     (    3657,  112)
        NL pseudopotentials            19.64 Mb     (    3657,  352)
        Each V/rho on FFT grid          7.42 Mb     (  486000)
        Each G-vector array             0.88 Mb     (  115659)
        G-vector shells                 0.85 Mb     (  111945)
     Largest temporary arrays     est. size (Mb)     dimensions
        Auxiliary wavefunctions        12.50 Mb     (    3657,  448)
        Each subspace H/S matrix        1.53 Mb     (     448,  448)
        Each <psi_i|beta_j> matrix      0.30 Mb     (     352,  112)
        Arrays for rho mixing          59.33 Mb     (  486000,    8)

     Initial potential from superposition of free atoms

     starting charge  223.99937, renormalised to  224.00000
     Starting wfc are  176 randomized atomic wfcs
     Checking if some PAW data can be deallocated... 
       node    0, deallocated PAW data for type:  2
       node    0, deallocated PAW data for type:  3
       node    1, deallocated PAW data for type:  1
       node    2, deallocated PAW data for type:  1
       node    3, deallocated PAW data for type:  2
       node    3, deallocated PAW data for type:  3
       node    4, deallocated PAW data for type:  1
       node    5, deallocated PAW data for type:  2
       node    5, deallocated PAW data for type:  3
       node    6, deallocated PAW data for type:  1
       node    7, deallocated PAW data for type:  2
       node    7, deallocated PAW data for type:  3

     total cpu time spent up to now is       72.9 secs

     per-process dynamical memory:   140.3 Mb

     Self-consistent Calculation

     iteration #  1     ecut=   100.00 Ry     beta=0.70
     Davidson diagonalization with overlap
     ethr =  1.00E-02,  avg # of iterations =  3.0

     total cpu time spent up to now is      107.6 secs

     total energy              =   -1279.63196220 Ry
     Harris-Foulkes estimate   =   -1283.97156545 Ry
     estimated scf accuracy    <       6.68559929 Ry

     iteration #  2     ecut=   100.00 Ry     beta=0.70
     Davidson diagonalization with overlap
     ethr =  2.98E-03,  avg # of iterations =  4.0

     total cpu time spent up to now is      146.8 secs

     total energy              =   -1280.30562496 Ry
     Harris-Foulkes estimate   =   -1283.80652848 Ry
     estimated scf accuracy    <       7.06498938 Ry

     iteration #  3     ecut=   100.00 Ry     beta=0.70
     Davidson diagonalization with overlap
     ethr =  2.98E-03,  avg # of iterations =  4.0

     total cpu time spent up to now is      180.7 secs

     total energy              =   -1281.82510850 Ry
     Harris-Foulkes estimate   =   -1282.06528195 Ry
     estimated scf accuracy    <       0.44972079 Ry

     iteration #  4     ecut=   100.00 Ry     beta=0.70
     Davidson diagonalization with overlap
     ethr =  2.01E-04,  avg # of iterations =  5.0

     total cpu time spent up to now is      216.5 secs

     total energy              =   -1281.96628585 Ry
     Harris-Foulkes estimate   =   -1282.05769550 Ry
     estimated scf accuracy    <       0.20330851 Ry

     iteration #  5     ecut=   100.00 Ry     beta=0.70
     Davidson diagonalization with overlap
     ethr =  9.08E-05,  avg # of iterations =  4.0

     total cpu time spent up to now is      249.2 secs

     total energy              =   -1282.00788110 Ry
     Harris-Foulkes estimate   =   -1282.01571643 Ry
     estimated scf accuracy    <       0.01879960 Ry

     iteration #  6     ecut=   100.00 Ry     beta=0.70
     Davidson diagonalization with overlap
     ethr =  8.39E-06,  avg # of iterations =  6.0

     total cpu time spent up to now is      287.5 secs

     total energy              =   -1282.01110564 Ry
     Harris-Foulkes estimate   =   -1282.01284501 Ry
     estimated scf accuracy    <       0.00394496 Ry

     iteration #  7     ecut=   100.00 Ry     beta=0.70
     Davidson diagonalization with overlap
     ethr =  1.76E-06,  avg # of iterations =  5.0

     total cpu time spent up to now is      322.3 secs

     total energy              =   -1282.01234800 Ry
     Harris-Foulkes estimate   =   -1282.01251524 Ry
     estimated scf accuracy    <       0.00039697 Ry

     iteration #  8     ecut=   100.00 Ry     beta=0.70
     Davidson diagonalization with overlap
     ethr =  1.77E-07,  avg # of iterations =  5.0

     total cpu time spent up to now is      358.0 secs

     total energy              =   -1282.01243976 Ry
     Harris-Foulkes estimate   =   -1282.01251096 Ry
     estimated scf accuracy    <       0.00017266 Ry

     iteration #  9     ecut=   100.00 Ry     beta=0.70
     Davidson diagonalization with overlap
     ethr =  7.71E-08,  avg # of iterations =  7.0

     total cpu time spent up to now is      389.4 secs

     total energy              =   -1282.01246550 Ry
     Harris-Foulkes estimate   =   -1282.01247122 Ry
     estimated scf accuracy    <       0.00001463 Ry

     iteration # 10     ecut=   100.00 Ry     beta=0.70
     Davidson diagonalization with overlap
     ethr =  6.53E-09,  avg # of iterations =  5.0

     total cpu time spent up to now is      429.6 secs

     total energy              =   -1282.01247744 Ry
     Harris-Foulkes estimate   =   -1282.01248350 Ry
     estimated scf accuracy    <       0.00002214 Ry

     iteration # 11     ecut=   100.00 Ry     beta=0.70
     Davidson diagonalization with overlap
     ethr =  6.53E-09,  avg # of iterations =  1.0

     total cpu time spent up to now is      458.3 secs

     total energy              =   -1282.01247154 Ry
     Harris-Foulkes estimate   =   -1282.01247786 Ry
     estimated scf accuracy    <       0.00001223 Ry

     iteration # 12     ecut=   100.00 Ry     beta=0.70
     Davidson diagonalization with overlap
     ethr =  5.46E-09,  avg # of iterations =  5.0

     total cpu time spent up to now is      495.9 secs

     total energy              =   -1282.01247898 Ry
     Harris-Foulkes estimate   =   -1282.01248613 Ry
     estimated scf accuracy    <       0.00003752 Ry

     iteration # 13     ecut=   100.00 Ry     beta=0.70
     Davidson diagonalization with overlap
     ethr =  5.46E-09,  avg # of iterations =  1.0

     total cpu time spent up to now is      523.8 secs

     total energy              =   -1282.01247162 Ry
     Harris-Foulkes estimate   =   -1282.01247920 Ry
     estimated scf accuracy    <       0.00002593 Ry

     iteration # 14     ecut=   100.00 Ry     beta=0.70
     Davidson diagonalization with overlap
     ethr =  5.46E-09,  avg # of iterations =  5.0

     total cpu time spent up to now is      557.6 secs

     total energy              =   -1282.01247859 Ry
     Harris-Foulkes estimate   =   -1282.01247983 Ry
     estimated scf accuracy    <       0.00000333 Ry

     iteration # 15     ecut=   100.00 Ry     beta=0.70
     Davidson diagonalization with overlap
     ethr =  1.49E-09,  avg # of iterations =  1.0

     total cpu time spent up to now is      598.9 secs

     total energy              =   -1282.01247768 Ry
     Harris-Foulkes estimate   =   -1282.01247869 Ry
     estimated scf accuracy    <       0.00000138 Ry

     iteration # 16     ecut=   100.00 Ry     beta=0.70
     Davidson diagonalization with overlap
     ethr =  6.16E-10,  avg # of iterations =  5.0

     total cpu time spent up to now is      638.6 secs

     total energy              =   -1282.01247935 Ry
     Harris-Foulkes estimate   =   -1282.01248162 Ry
     estimated scf accuracy    <       0.00001316 Ry

     iteration # 17     ecut=   100.00 Ry     beta=0.70
     Davidson diagonalization with overlap
     ethr =  6.16E-10,  avg # of iterations =  6.0

     total cpu time spent up to now is      671.7 secs

     total energy              =   -1282.01247914 Ry
     Harris-Foulkes estimate   =   -1282.01247979 Ry
     estimated scf accuracy    <       0.00000373 Ry

     iteration # 18     ecut=   100.00 Ry     beta=0.70
     Davidson diagonalization with overlap
     ethr =  6.16E-10,  avg # of iterations =  3.0

     total cpu time spent up to now is      702.4 secs

     total energy              =   -1282.01247885 Ry
     Harris-Foulkes estimate   =   -1282.01247925 Ry
     estimated scf accuracy    <       0.00000203 Ry

     iteration # 19     ecut=   100.00 Ry     beta=0.70
     Davidson diagonalization with overlap
     ethr =  6.16E-10,  avg # of iterations =  5.0

     total cpu time spent up to now is      733.9 secs

     End of self-consistent calculation

          k = 0.0000 0.0000 0.0000 ( 29262 PWs)   bands (ev):

   -23.9468 -23.9164 -23.9113 -23.8959 -23.6534 -23.6409 -23.6407 -23.6392
   -19.1691 -19.1625 -19.1575 -19.1432 -18.8542 -18.8537 -18.8480 -18.8469
   -18.2479 -18.2090 -17.2364 -17.1609 -17.0571 -17.0553 -16.0424 -16.0210
   -12.1073 -12.0986 -12.0909 -11.9439 -11.9250 -11.8205 -11.7718 -11.7451
    -8.8961  -8.8106  -8.2822  -8.2388  -7.5650  -7.5272  -7.4677  -7.4114
    -6.8320  -6.7319  -6.6171  -6.5140  -6.5081  -6.3986  -6.3711  -6.2484
    -6.1323  -6.0740  -6.0405  -6.0069  -5.9603  -5.8788  -5.7158  -5.6797
    -5.6134  -5.5935  -5.5922  -5.5418  -5.1150  -5.0281  -4.9470  -4.9195
    -4.4945  -4.4627  -4.4308  -4.4197  -4.2846  -4.1266  -3.8700  -3.8031
    -3.7445  -3.5621  -3.5270  -3.4758  -3.1578  -3.0965  -3.0518  -3.0393
    -0.7948  -0.7920  -0.3118  -0.3100  -0.2098  -0.1428  -0.1364  -0.0431
    -0.0345   0.0011   0.1622   0.1968   0.1969   0.2349   0.3466   0.4124
     0.4360   0.4418   0.6121   0.7135   0.7714   0.8512   0.8585   0.8906
     0.9059   1.0304   1.0597   1.1279   1.2100   1.3511   1.3691   1.4018

     occupation numbers 
     1.0000   1.0000   1.0000   1.0000   1.0000   1.0000   1.0000   1.0000
     1.0000   1.0000   1.0000   1.0000   1.0000   1.0000   1.0000   1.0000
     1.0000   1.0000   1.0000   1.0000   1.0000   1.0000   1.0000   1.0000
     1.0000   1.0000   1.0000   1.0000   1.0000   1.0000   1.0000   1.0000
     1.0000   1.0000   1.0000   1.0000   1.0000   1.0000   1.0000   1.0000
     1.0000   1.0000   1.0000   1.0000   1.0000   1.0000   1.0000   1.0000
     1.0000   1.0000   1.0000   1.0000   1.0000   1.0000   1.0000   1.0000
     1.0000   1.0000   1.0000   1.0000   1.0000   1.0000   1.0000   1.0000
     1.0000   1.0000   1.0000   1.0000   1.0000   1.0000   1.0000   1.0000
     1.0000   1.0000   1.0000   1.0000   1.0000   1.0000   1.0000   1.0000
     1.0000   1.0000   1.0000   1.0000   1.0000   1.0000   1.0000   1.0000
     1.0000   1.0000   1.0000   1.0000   1.0000   1.0000   1.0000   1.0000
     1.0000   1.0000   1.0000   1.0000   1.0000   1.0000   1.0000   1.0000
     1.0000   1.0000   1.0000   1.0000   1.0000   1.0000   1.0000   1.0000

     highest occupied level (ev):     1.4018

!    total energy              =   -1282.01247922 Ry
     Harris-Foulkes estimate   =   -1282.01247922 Ry
     estimated scf accuracy    <          8.1E-09 Ry

     total all-electron energy =     -4786.456227 Ry

     The total energy is the sum of the following terms:

     one-electron contribution =    -643.03332238 Ry
     hartree contribution      =     419.80350803 Ry
     xc contribution           =    -260.29062903 Ry
     ewald contribution        =    -468.09466675 Ry
     one-center paw contrib.   =    -330.39736909 Ry

     convergence has been achieved in  19 iterations

     Forces acting on atoms (Ry/au):

     atom    1 type  1   force =    -0.01092022   -0.00641088   -0.01533475
     atom    2 type  4   force =     0.02818430    0.00504104   -0.01937671
     atom    3 type  1   force =    -0.00029178   -0.00868139   -0.01467440
     atom    4 type  1   force =     0.01460485   -0.00112292    0.00765175
     atom    5 type  4   force =     0.00401254   -0.03631514    0.03667972
     atom    6 type  1   force =     0.00843551    0.01101512   -0.01325029
     atom    7 type  4   force =    -0.00960189    0.02126989    0.04393677
     atom    8 type  2   force =     0.17344486   -0.11190446    0.05591676
     atom    9 type  3   force =    -0.13615942   -0.06019076   -0.14114310
     atom   10 type  3   force =    -0.04494917    0.17960222    0.08168846
     atom   11 type  4   force =    -0.03848497    0.01927367   -0.01896785
     atom   12 type  2   force =     0.12031175   -0.05665650    0.21244103
     atom   13 type  3   force =    -0.19835474   -0.10189278   -0.06347121
     atom   14 type  3   force =     0.06803815    0.15613316   -0.15356841
     atom   15 type  3   force =     0.06803806   -0.15613283   -0.15356727
     atom   16 type  3   force =    -0.19835392    0.10189184   -0.06347200
     atom   17 type  2   force =     0.12031059    0.05665548    0.21244115
     atom   18 type  4   force =    -0.03848255   -0.01927645   -0.01897243
     atom   19 type  3   force =    -0.04494947   -0.17960119    0.08168741
     atom   20 type  3   force =    -0.13616024    0.06019139   -0.14114541
     atom   21 type  2   force =     0.17344757    0.11190731    0.05591264
     atom   22 type  4   force =    -0.00960131   -0.02124478    0.04389380
     atom   23 type  1   force =     0.00843777   -0.01101039   -0.01325872
     atom   24 type  4   force =     0.00401453    0.03631192    0.03668134
     atom   25 type  1   force =     0.01460430    0.00112567    0.00765093
     atom   26 type  1   force =    -0.00025114    0.00869070   -0.01473310
     atom   27 type  4   force =     0.02823919   -0.00505970   -0.01939260
     atom   28 type  1   force =    -0.01090457    0.00641796   -0.01536157
     atom   29 type  3   force =    -0.06803815   -0.15613316    0.15356841
     atom   30 type  3   force =     0.19835474    0.10189278    0.06347121
     atom   31 type  2   force =    -0.12031175    0.05665650   -0.21244103
     atom   32 type  4   force =     0.03848497   -0.01927367    0.01896785
     atom   33 type  3   force =     0.04494917   -0.17960222   -0.08168846
     atom   34 type  3   force =     0.13615942    0.06019076    0.14114310
     atom   35 type  2   force =    -0.17344486    0.11190446   -0.05591676
     atom   36 type  4   force =     0.00960189   -0.02126989   -0.04393677
     atom   37 type  1   force =    -0.00843551   -0.01101512    0.01325029
     atom   38 type  4   force =    -0.00401254    0.03631514   -0.03667972
     atom   39 type  1   force =    -0.01460485    0.00112292   -0.00765175
     atom   40 type  1   force =     0.00029178    0.00868139    0.01467440
     atom   41 type  4   force =    -0.02818430   -0.00504104    0.01937671
     atom   42 type  1   force =     0.01092022    0.00641088    0.01533475
     atom   43 type  3   force =    -0.06803806    0.15613283    0.15356727
     atom   44 type  3   force =     0.19835392   -0.10189184    0.06347200
     atom   45 type  2   force =    -0.12031059   -0.05665548   -0.21244115
     atom   46 type  4   force =     0.03848255    0.01927645    0.01897243
     atom   47 type  3   force =     0.04494947    0.17960119   -0.08168741
     atom   48 type  3   force =     0.13616024   -0.06019139    0.14114541
     atom   49 type  2   force =    -0.17344757   -0.11190731   -0.05591264
     atom   50 type  4   force =     0.00960131    0.02124478   -0.04389380
     atom   51 type  1   force =    -0.00843777    0.01101039    0.01325872
     atom   52 type  4   force =    -0.00401453   -0.03631192   -0.03668134
     atom   53 type  1   force =    -0.01460430   -0.00112567   -0.00765093
     atom   54 type  1   force =     0.00025114   -0.00869070    0.01473310
     atom   55 type  4   force =    -0.02823919    0.00505970    0.01939260
     atom   56 type  1   force =     0.01090457   -0.00641796    0.01536157
     The non-local contrib.  to forces
     atom    1 type  1   force =     0.17687897    0.37061956    0.11522731
     atom    2 type  4   force =    -2.39793301   -0.44832934    1.53230496
     atom    3 type  1   force =     0.04241947   -0.03012571    0.06128793
     atom    4 type  1   force =    -0.57596043   -0.42430495   -0.12958409
     atom    5 type  4   force =     0.16075066    1.87523877   -2.23857567
     atom    6 type  1   force =    -0.01129830    0.06184207    0.06457055
     atom    7 type  4   force =     0.54252547   -1.16842531   -2.63061421
     atom    8 type  2   force =     0.63555883   -0.43978961    0.18372621
     atom    9 type  3   force =     0.07964924    0.02734851    0.06988339
     atom   10 type  3   force =     0.02895012   -0.09888969   -0.03969222
     atom   11 type  4   force =     2.26062098   -1.46650291    0.84995148
     atom   12 type  2   force =     0.38146989   -0.17335184    0.70021740
     atom   13 type  3   force =     0.09346861    0.04824782    0.03980631
     atom   14 type  3   force =    -0.03008884   -0.07514081    0.07993090
     atom   15 type  3   force =    -0.03008874    0.07514065    0.07993069
     atom   16 type  3   force =     0.09346848   -0.04824770    0.03980610
     atom   17 type  2   force =     0.38146830    0.17336004    0.70020674
     atom   18 type  4   force =     2.26061616    1.46650517    0.84993725
     atom   19 type  3   force =     0.02895022    0.09888987   -0.03969220
     atom   20 type  3   force =     0.07964914   -0.02734839    0.06988319
     atom   21 type  2   force =     0.63557117    0.43979640    0.18372215
     atom   22 type  4   force =     0.54251112    1.16846273   -2.63067559
     atom   23 type  1   force =    -0.01129855   -0.06183995    0.06457961
     atom   24 type  4   force =     0.16074458   -1.87523913   -2.23857934
     atom   25 type  1   force =    -0.57595550    0.42430188   -0.12957913
     atom   26 type  1   force =     0.04256320    0.03016655    0.06106771
     atom   27 type  4   force =    -2.39785727    0.44830174    1.53229163
     atom   28 type  1   force =     0.17688907   -0.37061496    0.11521087
     atom   29 type  3   force =     0.03008884    0.07514081   -0.07993090
     atom   30 type  3   force =    -0.09346861   -0.04824782   -0.03980631
     atom   31 type  2   force =    -0.38146989    0.17335184   -0.70021740
     atom   32 type  4   force =    -2.26062098    1.46650291   -0.84995148
     atom   33 type  3   force =    -0.02895012    0.09888969    0.03969222
     atom   34 type  3   force =    -0.07964924   -0.02734851   -0.06988339
     atom   35 type  2   force =    -0.63555883    0.43978961   -0.18372621
     atom   36 type  4   force =    -0.54252547    1.16842531    2.63061421
     atom   37 type  1   force =     0.01129830   -0.06184207   -0.06457055
     atom   38 type  4   force =    -0.16075066   -1.87523877    2.23857567
     atom   39 type  1   force =     0.57596043    0.42430495    0.12958409
     atom   40 type  1   force =    -0.04241947    0.03012571   -0.06128793
     atom   41 type  4   force =     2.39793301    0.44832934   -1.53230496
     atom   42 type  1   force =    -0.17687897   -0.37061956   -0.11522731
     atom   43 type  3   force =     0.03008874   -0.07514065   -0.07993069
     atom   44 type  3   force =    -0.09346848    0.04824770   -0.03980610
     atom   45 type  2   force =    -0.38146830   -0.17336004   -0.70020674
     atom   46 type  4   force =    -2.26061616   -1.46650517   -0.84993725
     atom   47 type  3   force =    -0.02895022   -0.09888987    0.03969220
     atom   48 type  3   force =    -0.07964914    0.02734839   -0.06988319
     atom   49 type  2   force =    -0.63557117   -0.43979640   -0.18372215
     atom   50 type  4   force =    -0.54251112   -1.16846273    2.63067559
     atom   51 type  1   force =     0.01129855    0.06183995   -0.06457961
     atom   52 type  4   force =    -0.16074458    1.87523913    2.23857934
     atom   53 type  1   force =     0.57595550   -0.42430188    0.12957913
     atom   54 type  1   force =    -0.04256320   -0.03016655   -0.06106771
     atom   55 type  4   force =     2.39785727   -0.44830174   -1.53229163
     atom   56 type  1   force =    -0.17688907    0.37061496   -0.11521087
     The ionic contribution  to forces
     atom    1 type  1   force =    -3.02307994    0.25490075   -2.00424534
     atom    2 type  4   force =    12.23599311    4.34871800   -5.97633500
     atom    3 type  1   force =    -0.18151235    1.68156734    0.00490865
     atom    4 type  1   force =     2.74247784    2.79146135    2.02170475
     atom    5 type  4   force =    -1.34615020   -8.68134766   11.44875058
     atom    6 type  1   force =    -0.36131135    0.10811790    1.05796349
     atom    7 type  4   force =    -2.08259128    6.33961988   12.50220334
     atom    8 type  2   force =    -4.06698934    3.25596403   -1.18965378
     atom    9 type  3   force =    -2.27243742   -0.14357946   -2.01562519
     atom   10 type  3   force =    -1.25065036    2.81654237    0.74164249
     atom   11 type  4   force =   -11.17794645    6.25490585   -2.25175514
     atom   12 type  2   force =    -2.87911841    0.98772575   -4.73216499
     atom   13 type  3   force =    -2.61417532   -1.06603436   -1.60750551
     atom   14 type  3   force =     0.26429067    2.06875868   -2.53335188
     atom   15 type  3   force =     0.26429067   -2.06875868   -2.53335188
     atom   16 type  3   force =    -2.61417532    1.06603436   -1.60750551
     atom   17 type  2   force =    -2.87911841   -0.98772575   -4.73216499
     atom   18 type  4   force =   -11.17794645   -6.25490585   -2.25175514
     atom   19 type  3   force =    -1.25065036   -2.81654237    0.74164249
     atom   20 type  3   force =    -2.27243742    0.14357946   -2.01562519
     atom   21 type  2   force =    -4.06698934   -3.25596403   -1.18965378
     atom   22 type  4   force =    -2.08259128   -6.33961988   12.50220334
     atom   23 type  1   force =    -0.36131135   -0.10811790    1.05796349
     atom   24 type  4   force =    -1.34615020    8.68134766   11.44875058
     atom   25 type  1   force =     2.74247784   -2.79146135    2.02170475
     atom   26 type  1   force =    -0.18151235   -1.68156734    0.00490865
     atom   27 type  4   force =    12.23599311   -4.34871800   -5.97633500
     atom   28 type  1   force =    -3.02307994   -0.25490075   -2.00424534
     atom   29 type  3   force =    -0.26429067   -2.06875868    2.53335188
     atom   30 type  3   force =     2.61417532    1.06603436    1.60750551
     atom   31 type  2   force =     2.87911841   -0.98772575    4.73216499
     atom   32 type  4   force =    11.17794645   -6.25490585    2.25175514
     atom   33 type  3   force =     1.25065036   -2.81654237   -0.74164249
     atom   34 type  3   force =     2.27243742    0.14357946    2.01562519
     atom   35 type  2   force =     4.06698934   -3.25596403    1.18965378
     atom   36 type  4   force =     2.08259128   -6.33961988  -12.50220334
     atom   37 type  1   force =     0.36131135   -0.10811790   -1.05796349
     atom   38 type  4   force =     1.34615020    8.68134766  -11.44875058
     atom   39 type  1   force =    -2.74247784   -2.79146135   -2.02170475
     atom   40 type  1   force =     0.18151235   -1.68156734   -0.00490865
     atom   41 type  4   force =   -12.23599311   -4.34871800    5.97633500
     atom   42 type  1   force =     3.02307994   -0.25490075    2.00424534
     atom   43 type  3   force =    -0.26429067    2.06875868    2.53335188
     atom   44 type  3   force =     2.61417532   -1.06603436    1.60750551
     atom   45 type  2   force =     2.87911841    0.98772575    4.73216499
     atom   46 type  4   force =    11.17794645    6.25490585    2.25175514
     atom   47 type  3   force =     1.25065036    2.81654237   -0.74164249
     atom   48 type  3   force =     2.27243742   -0.14357946    2.01562519
     atom   49 type  2   force =     4.06698934    3.25596403    1.18965378
     atom   50 type  4   force =     2.08259128    6.33961988  -12.50220334
     atom   51 type  1   force =     0.36131135    0.10811790   -1.05796349
     atom   52 type  4   force =     1.34615020   -8.68134766  -11.44875058
     atom   53 type  1   force =    -2.74247784    2.79146135   -2.02170475
     atom   54 type  1   force =     0.18151235    1.68156734   -0.00490865
     atom   55 type  4   force =   -12.23599311    4.34871800    5.97633500
     atom   56 type  1   force =     3.02307994    0.25490075    2.00424534
     The local contribution  to forces
     atom    1 type  1   force =     2.83837948   -0.62573924    1.87559815
     atom    2 type  4   force =    -9.82859418   -3.89867353    4.43665117
     atom    3 type  1   force =     0.13848718   -1.66172585   -0.08073559
     atom    4 type  1   force =    -2.16122038   -2.37479045   -1.88621914
     atom    5 type  4   force =     1.19073088    6.78414707   -9.19082373
     atom    6 type  1   force =     0.38208102   -0.15726525   -1.13552976
     atom    7 type  4   force =     1.53462441   -5.15879636   -9.84793006
     atom    8 type  2   force =     3.61861952   -2.93801131    1.06673455
     atom    9 type  3   force =     2.05662737    0.05603684    1.80459871
     atom   10 type  3   force =     1.17675184   -2.53805113   -0.62025901
     atom   11 type  4   force =     8.89638997   -4.78050862    1.38962148
     atom   12 type  2   force =     2.62668709   -0.87475098    4.26023710
     atom   13 type  3   force =     2.32235220    0.91588887    1.50422739
     atom   14 type  3   force =    -0.16616490   -1.83748690    2.29985187
     atom   15 type  3   force =    -0.16616509    1.83748642    2.29985694
     atom   16 type  3   force =     2.32235077   -0.91589347    1.50422819
     atom   17 type  2   force =     2.62668547    0.87472773    4.26024990
     atom   18 type  4   force =     8.89639006    4.78052539    1.38962049
     atom   19 type  3   force =     1.17674845    2.53805549   -0.62026538
     atom   20 type  3   force =     2.05662534   -0.05603577    1.80459535
     atom   21 type  2   force =     3.61860003    2.93802114    1.06671734
     atom   22 type  4   force =     1.53466808    5.15880333   -9.84794618
     atom   23 type  1   force =     0.38206835    0.15727230   -1.13558071
     atom   24 type  4   force =     1.19072131   -6.78415521   -9.19086105
     atom   25 type  1   force =    -2.16123644    2.37482045   -1.88623732
     atom   26 type  1   force =     0.13846619    1.66172205   -0.08068729
     atom   27 type  4   force =    -9.82859931    3.89870107    4.43661493
     atom   28 type  1   force =     2.83838871    0.62575032    1.87556294
     atom   29 type  3   force =     0.16616324    1.83747971   -2.29984878
     atom   30 type  3   force =    -2.32235059   -0.91589446   -1.50422814
     atom   31 type  2   force =    -2.62669160    0.87473207   -4.26023438
     atom   32 type  4   force =    -8.89639742    4.78050068   -1.38962933
     atom   33 type  3   force =    -1.17675209    2.53804897    0.62025626
     atom   34 type  3   force =    -2.05662876   -0.05604110   -1.80460345
     atom   35 type  2   force =    -3.61862098    2.93800323   -1.06675319
     atom   36 type  4   force =    -1.53462397    5.15879832    9.84792160
     atom   37 type  1   force =    -0.38213242    0.15729464    1.13548695
     atom   38 type  4   force =    -1.19072618   -6.78418912    9.19087125
     atom   39 type  1   force =     2.16121516    2.37476085    1.88619999
     atom   40 type  1   force =    -0.13849123    1.66172939    0.08075773
     atom   41 type  4   force =     9.82862203    3.89867019   -4.43665333
     atom   42 type  1   force =    -2.83838649    0.62571927   -1.87559921
     atom   43 type  3   force =     0.16616301   -1.83748139   -2.29985620
     atom   44 type  3   force =    -2.32235164    0.91589975   -1.50422908
     atom   45 type  2   force =    -2.62669247   -0.87471345   -4.26025295
     atom   46 type  4   force =    -8.89639832   -4.78051696   -1.38961851
     atom   47 type  3   force =    -1.17674628   -2.53805231    0.62026556
     atom   48 type  3   force =    -2.05662387    0.05604088   -1.80459522
     atom   49 type  2   force =    -3.61859092   -2.93801066   -1.06672924
     atom   50 type  4   force =    -1.53467447   -5.15881140    9.84795333
     atom   51 type  1   force =    -0.38213450   -0.15733316    1.13549856
     atom   52 type  4   force =    -1.19072885    6.78418462    9.19087653
     atom   53 type  1   force =     2.16122860   -2.37479693    1.88621491
     atom   54 type  1   force =    -0.13843977   -1.66172735    0.08068782
     atom   55 type  4   force =     9.82858668   -3.89869901   -4.43659298
     atom   56 type  1   force =    -2.83840275   -0.62573441   -1.87555130
     The core correction contribution to forces
     atom    1 type  1   force =    -0.00309680   -0.00618885   -0.00189562
     atom    2 type  4   force =     0.01870736    0.00333222   -0.01196661
     atom    3 type  1   force =     0.00029153    0.00161773   -0.00008325
     atom    4 type  1   force =     0.00929594    0.00651247    0.00174410
     atom    5 type  4   force =    -0.00131352   -0.01436043    0.01734726
     atom    6 type  1   force =    -0.00106879   -0.00163057   -0.00029696
     atom    7 type  4   force =    -0.00416902    0.00887680    0.02028003
     atom    8 type  2   force =    -0.01374678    0.00993242   -0.00488683
     atom    9 type  3   force =     0.00000000    0.00000000    0.00000000
     atom   10 type  3   force =     0.00000000    0.00000000    0.00000000
     atom   11 type  4   force =    -0.01754414    0.01138762   -0.00678986
     atom   12 type  2   force =    -0.00872801    0.00370619   -0.01584932
     atom   13 type  3   force =     0.00000000    0.00000000    0.00000000
     atom   14 type  3   force =     0.00000000    0.00000000    0.00000000
     atom   15 type  3   force =     0.00000000    0.00000000    0.00000000
     atom   16 type  3   force =     0.00000000    0.00000000    0.00000000
     atom   17 type  2   force =    -0.00872609   -0.00370638   -0.01584860
     atom   18 type  4   force =    -0.01754420   -0.01138778   -0.00678970
     atom   19 type  3   force =     0.00000000    0.00000000    0.00000000
     atom   20 type  3   force =     0.00000000    0.00000000    0.00000000
     atom   21 type  2   force =    -0.01374280   -0.00993269   -0.00488582
     atom   22 type  4   force =    -0.00416881   -0.00887724    0.02028080
     atom   23 type  1   force =    -0.00106937    0.00162956   -0.00029817
     atom   24 type  4   force =    -0.00131345    0.01436030    0.01734722
     atom   25 type  1   force =     0.00929568   -0.00651248    0.00174394
     atom   26 type  1   force =     0.00028855   -0.00161903   -0.00007770
     atom   27 type  4   force =     0.01870639   -0.00333189   -0.01196644
     atom   28 type  1   force =    -0.00309677    0.00618882   -0.00189564
     atom   29 type  3   force =     0.00000000    0.00000000    0.00000000
     atom   30 type  3   force =     0.00000000    0.00000000    0.00000000
     atom   31 type  2   force =     0.00872801   -0.00370569    0.01584933
     atom   32 type  4   force =     0.01754362   -0.01138715    0.00678972
     atom   33 type  3   force =     0.00000000    0.00000000    0.00000000
     atom   34 type  3   force =     0.00000000    0.00000000    0.00000000
     atom   35 type  2   force =     0.01374667   -0.00993194    0.00488693
     atom   36 type  4   force =     0.00416890   -0.00887686   -0.02028008
     atom   37 type  1   force =     0.00106683    0.00163363    0.00029411
     atom   38 type  4   force =     0.00131373    0.01436084   -0.01734770
     atom   39 type  1   force =    -0.00929616   -0.00651232   -0.00174451
     atom   40 type  1   force =    -0.00029208   -0.00161758    0.00008443
     atom   41 type  4   force =    -0.01870744   -0.00333223    0.01196678
     atom   42 type  1   force =     0.00309667    0.00618909    0.00189624
     atom   43 type  3   force =     0.00000000    0.00000000    0.00000000
     atom   44 type  3   force =     0.00000000    0.00000000    0.00000000
     atom   45 type  2   force =     0.00872609    0.00370575    0.01584846
     atom   46 type  4   force =     0.01754349    0.01138715    0.00678954
     atom   47 type  3   force =     0.00000000    0.00000000    0.00000000
     atom   48 type  3   force =     0.00000000    0.00000000    0.00000000
     atom   49 type  2   force =     0.01374290    0.00993232    0.00488559
     atom   50 type  4   force =     0.00416876    0.00887743   -0.02028112
     atom   51 type  1   force =     0.00106634   -0.00163442    0.00029372
     atom   52 type  4   force =     0.00131357   -0.01436092   -0.01734790
     atom   53 type  1   force =    -0.00929601    0.00651229   -0.00174434
     atom   54 type  1   force =    -0.00028640    0.00161873    0.00007638
     atom   55 type  4   force =    -0.01870615    0.00333180    0.01196641
     atom   56 type  1   force =     0.00309680   -0.00618899    0.00189582
     The Hubbard contrib.    to forces
     atom    1 type  1   force =     0.00000000    0.00000000    0.00000000
     atom    2 type  4   force =     0.00000000    0.00000000    0.00000000
     atom    3 type  1   force =     0.00000000    0.00000000    0.00000000
     atom    4 type  1   force =     0.00000000    0.00000000    0.00000000
     atom    5 type  4   force =     0.00000000    0.00000000    0.00000000
     atom    6 type  1   force =     0.00000000    0.00000000    0.00000000
     atom    7 type  4   force =     0.00000000    0.00000000    0.00000000
     atom    8 type  2   force =     0.00000000    0.00000000    0.00000000
     atom    9 type  3   force =     0.00000000    0.00000000    0.00000000
     atom   10 type  3   force =     0.00000000    0.00000000    0.00000000
     atom   11 type  4   force =     0.00000000    0.00000000    0.00000000
     atom   12 type  2   force =     0.00000000    0.00000000    0.00000000
     atom   13 type  3   force =     0.00000000    0.00000000    0.00000000
     atom   14 type  3   force =     0.00000000    0.00000000    0.00000000
     atom   15 type  3   force =     0.00000000    0.00000000    0.00000000
     atom   16 type  3   force =     0.00000000    0.00000000    0.00000000
     atom   17 type  2   force =     0.00000000    0.00000000    0.00000000
     atom   18 type  4   force =     0.00000000    0.00000000    0.00000000
     atom   19 type  3   force =     0.00000000    0.00000000    0.00000000
     atom   20 type  3   force =     0.00000000    0.00000000    0.00000000
     atom   21 type  2   force =     0.00000000    0.00000000    0.00000000
     atom   22 type  4   force =     0.00000000    0.00000000    0.00000000
     atom   23 type  1   force =     0.00000000    0.00000000    0.00000000
     atom   24 type  4   force =     0.00000000    0.00000000    0.00000000
     atom   25 type  1   force =     0.00000000    0.00000000    0.00000000
     atom   26 type  1   force =     0.00000000    0.00000000    0.00000000
     atom   27 type  4   force =     0.00000000    0.00000000    0.00000000
     atom   28 type  1   force =     0.00000000    0.00000000    0.00000000
     atom   29 type  3   force =     0.00000000    0.00000000    0.00000000
     atom   30 type  3   force =     0.00000000    0.00000000    0.00000000
     atom   31 type  2   force =     0.00000000    0.00000000    0.00000000
     atom   32 type  4   force =     0.00000000    0.00000000    0.00000000
     atom   33 type  3   force =     0.00000000    0.00000000    0.00000000
     atom   34 type  3   force =     0.00000000    0.00000000    0.00000000
     atom   35 type  2   force =     0.00000000    0.00000000    0.00000000
     atom   36 type  4   force =     0.00000000    0.00000000    0.00000000
     atom   37 type  1   force =     0.00000000    0.00000000    0.00000000
     atom   38 type  4   force =     0.00000000    0.00000000    0.00000000
     atom   39 type  1   force =     0.00000000    0.00000000    0.00000000
     atom   40 type  1   force =     0.00000000    0.00000000    0.00000000
     atom   41 type  4   force =     0.00000000    0.00000000    0.00000000
     atom   42 type  1   force =     0.00000000    0.00000000    0.00000000
     atom   43 type  3   force =     0.00000000    0.00000000    0.00000000
     atom   44 type  3   force =     0.00000000    0.00000000    0.00000000
     atom   45 type  2   force =     0.00000000    0.00000000    0.00000000
     atom   46 type  4   force =     0.00000000    0.00000000    0.00000000
     atom   47 type  3   force =     0.00000000    0.00000000    0.00000000
     atom   48 type  3   force =     0.00000000    0.00000000    0.00000000
     atom   49 type  2   force =     0.00000000    0.00000000    0.00000000
     atom   50 type  4   force =     0.00000000    0.00000000    0.00000000
     atom   51 type  1   force =     0.00000000    0.00000000    0.00000000
     atom   52 type  4   force =     0.00000000    0.00000000    0.00000000
     atom   53 type  1   force =     0.00000000    0.00000000    0.00000000
     atom   54 type  1   force =     0.00000000    0.00000000    0.00000000
     atom   55 type  4   force =     0.00000000    0.00000000    0.00000000
     atom   56 type  1   force =     0.00000000    0.00000000    0.00000000
     The SCF correction term to forces
     atom    1 type  1   force =    -0.00000534   -0.00000188   -0.00000997
     atom    2 type  4   force =     0.00001680   -0.00000359   -0.00002817
     atom    3 type  1   force =     0.00001685   -0.00000911   -0.00003483
     atom    4 type  1   force =     0.00000951   -0.00000471    0.00000015
     atom    5 type  4   force =    -0.00000413    0.00001029   -0.00001689
     atom    6 type  1   force =     0.00001031   -0.00001367    0.00000859
     atom    7 type  4   force =     0.00000559   -0.00000622   -0.00000450
     atom    8 type  2   force =     0.00000228    0.00000067   -0.00000412
     atom    9 type  3   force =     0.00000085    0.00000248   -0.00000065
     atom   10 type  3   force =    -0.00000052    0.00000028   -0.00000266
     atom   11 type  4   force =    -0.00000667   -0.00000136    0.00000158
     atom   12 type  2   force =    -0.00000120    0.00001531    0.00000238
     atom   13 type  3   force =    -0.00000003    0.00000407    0.00000033
     atom   14 type  3   force =     0.00000122    0.00000110    0.00000085
     atom   15 type  3   force =     0.00000098   -0.00000047   -0.00000255
     atom   16 type  3   force =     0.00000177   -0.00000030   -0.00000101
     atom   17 type  2   force =    -0.00000129   -0.00000227   -0.00000377
     atom   18 type  4   force =    -0.00000131   -0.00002461    0.00001311
     atom   19 type  3   force =     0.00000239   -0.00000366    0.00000239
     atom   20 type  3   force =     0.00000258   -0.00000334    0.00000121
     atom   21 type  2   force =     0.00001055   -0.00001400    0.00000842
     atom   22 type  4   force =    -0.00001987   -0.00001394    0.00002774
     atom   23 type  1   force =     0.00001302   -0.00000938    0.00002485
     atom   24 type  4   force =     0.00000776   -0.00000829    0.00002176
     atom   25 type  1   force =     0.00001795   -0.00002183    0.00001121
     atom   26 type  1   force =    -0.00002985   -0.00001549    0.00003807
     atom   27 type  4   force =    -0.00000211   -0.00001503    0.00000470
     atom   28 type  1   force =    -0.00000832   -0.00000656    0.00000856
     atom   29 type  3   force =     0.00000043    0.00000389   -0.00000362
     atom   30 type  3   force =    -0.00000117   -0.00000013   -0.00000013
     atom   31 type  2   force =     0.00000093    0.00000494   -0.00000203
     atom   32 type  4   force =     0.00001198    0.00002265    0.00000117
     atom   33 type  3   force =     0.00000126    0.00000110    0.00000571
     atom   34 type  3   force =    -0.00000054    0.00000004    0.00000410
     atom   35 type  2   force =    -0.00000142    0.00000826    0.00002119
     atom   36 type  4   force =    -0.00001180    0.00000213    0.00000869
     atom   37 type  1   force =    -0.00000220    0.00005193   -0.00003055
     atom   38 type  4   force =     0.00000151    0.00003773   -0.00002652
     atom   39 type  1   force =    -0.00000880    0.00002742    0.00000744
     atom   40 type  1   force =    -0.00002332    0.00001700    0.00004614
     atom   41 type  4   force =    -0.00003299    0.00001237    0.00003627
     atom   42 type  1   force =     0.00000567    0.00002404    0.00002898
     atom   43 type  3   force =     0.00000060   -0.00000306    0.00000276
     atom   44 type  3   force =    -0.00000165   -0.00000391    0.00000144
     atom   45 type  2   force =     0.00000308   -0.00001560    0.00000323
     atom   46 type  4   force =     0.00000389   -0.00000564   -0.00001807
     atom   47 type  3   force =    -0.00000422    0.00000152   -0.00000279
     atom   48 type  3   force =    -0.00000430   -0.00000061   -0.00000141
     atom   49 type  2   force =    -0.00001568    0.00000293   -0.00000495
     atom   50 type  4   force =     0.00002741    0.00002136   -0.00004195
     atom   51 type  1   force =    -0.00001517   -0.00003484   -0.00004266
     atom   52 type  4   force =    -0.00000940   -0.00003367   -0.00004090
     atom   53 type  1   force =    -0.00001931    0.00000051   -0.00000335
     atom   54 type  1   force =     0.00005504    0.00001318   -0.00007220
     atom   55 type  4   force =     0.00001773    0.00000823   -0.00002179
     atom   56 type  1   force =     0.00001696   -0.00001136   -0.00001446

     Total force =     1.109629     Total SCF correction =     0.000218


     entering subroutine stress ...

          total   stress  (Ry/bohr**3)                   (kbar)     P=  143.84
   0.00102996   0.00000002   0.00012772        151.51      0.00     18.79
   0.00000002   0.00097314  -0.00000004          0.00    143.15     -0.01
   0.00012772  -0.00000004   0.00093023         18.79     -0.01    136.84

     kinetic stress (kbar)  15210.35     -0.00    338.48
                               -0.00  15620.27      0.00
                              338.48      0.00  15163.77

     local   stress (kbar) -15786.23      0.00   7951.18
                                0.00  -8848.17     -0.02
                             7951.18     -0.02 -11925.25

     nonloc. stress (kbar)   1030.10      0.00     11.02
                                0.00   1041.28     -0.00
                               11.02     -0.00   1001.20

     hartree stress (kbar)   7118.22     -0.00  -2905.87
                               -0.00   5065.97      0.01
                            -2905.87      0.01   5635.78

     exc-cor stress (kbar)  -2193.49     -0.00    -11.01
                               -0.00  -2213.60      0.00
                              -11.01      0.00  -2199.10

     corecor stress (kbar)  -1139.18      0.00     -2.86
                                0.00  -1141.44     -0.00
                               -2.86     -0.00  -1139.11

     ewald   stress (kbar)  -4088.25      0.00  -5362.14
                                0.00  -9381.16     -0.00
                            -5362.14     -0.00  -6400.45

     hubbard stress (kbar)      0.00      0.00      0.00
                                0.00      0.00      0.00
                                0.00      0.00      0.00

     london  stress (kbar)      0.00      0.00      0.00
                                0.00      0.00      0.00
                                0.00      0.00      0.00

     XDM     stress (kbar)      0.00      0.00      0.00
                                0.00      0.00      0.00
                                0.00      0.00      0.00

     dft-nl  stress (kbar)      0.00      0.00      0.00
                                0.00      0.00      0.00
                                0.00      0.00      0.00

     TS-vdW  stress (kbar)      0.00      0.00      0.00
                                0.00      0.00      0.00
                                0.00      0.00      0.00



     BFGS Geometry Optimization

     number of scf cycles    =   1
     number of bfgs steps    =   0

     energy   new            =   -1282.0124792171 Ry

     new trust radius        =       0.2506313335 bohr
     new conv_thr            =       0.0000010000 Ry


ATOMIC_POSITIONS (crystal)
N       -0.019893136   0.622500754   0.459678826
O        0.273534884   0.719983168   0.434670669
N        0.139810729   0.702711230   0.529817536
N       -0.141377122   0.525375833   0.706264435
O       -0.271410695   0.426958241   0.925255695
N       -0.301655754   0.501961344   0.792622587
O        0.140916596   0.748646011   0.686441014
C       -0.175722390   0.609821986   0.557324724
H       -0.332096555   0.587896536   0.453388520
H       -0.217666581   0.703963598   0.609625784
O       -0.468154259   0.561309717   0.736600828
C       -0.008298110   0.563137021   0.297370802
H       -0.174834413   0.522284927   0.234318019
H       -0.000262055   0.632131505   0.176871961
H        0.499737959  -0.132131489   0.676872045
H        0.325165640  -0.022284971   0.734317961
C        0.491701799  -0.063137070   0.797370811
O        0.031845855  -0.061309852   1.236600491
H        0.282333376  -0.203963549   1.109625706
H        0.167903337  -0.087896506   0.953388349
C        0.324277755  -0.109821849   1.057324419
O        0.640915865  -0.248644799   1.186437844
N        0.198344276  -0.001961116   1.292621965
O        0.228589496   0.073041604   1.425255815
N        0.358622818  -0.025375700   1.206264374
N        0.639812963  -0.202710781   1.029813207
O        0.773539049  -0.219984068   0.934669497
N        0.480107647  -0.122500412   0.959676847
H        0.000262055   0.367868495   0.823128039
H        0.174834413   0.477715073   0.765681981
C        0.008298110   0.436862979   0.702629198
O        0.468154259   0.438690283   0.263399172
H        0.217666581   0.296036402   0.390374216
H        0.332096555   0.412103464   0.546611480
C        0.175722390   0.390178014   0.442675276
O       -0.140916596   0.251353989   0.313558986
N        0.301655754   0.498038656   0.207377413
O        0.271410695   0.573041759   0.074744305
N        0.141377122   0.474624167   0.293735565
N       -0.139810729   0.297288770   0.470182464
O       -0.273534884   0.280016832   0.565329331
N        0.019893136   0.377499246   0.540321174
H        0.500262041   0.132131489   1.323127955
H        0.674834360   0.022284971   1.265682039
C        0.508298201   0.063137070   1.202629189
O        0.968154145   0.061309852   0.763399509
H        0.717666624   0.203963549   0.890374294
H        0.832096663   0.087896506   1.046611651
C        0.675722245   0.109821849   0.942675581
O        0.359084135   0.248644799   0.813562156
N        0.801655724   0.001961116   0.707378035
O        0.771410504  -0.073041604   0.574744185
N        0.641377182   0.025375700   0.793735626
N        0.360187037   0.202710781   0.970186793
O        0.226460951   0.219984068   1.065330503
N        0.519892353   0.122500412   1.040323153



     Writing output data file scf.pbe-ec-100-kp444.HMX--nofor.nostress.save
     NEW-OLD atomic charge density approx. for the potential

     total cpu time spent up to now is      983.6 secs

     per-process dynamical memory:   156.5 Mb

     Self-consistent Calculation

     iteration #  1     ecut=   100.00 Ry     beta=0.70
     Davidson diagonalization with overlap
     ethr =  1.00E-06,  avg # of iterations = 10.0

     total cpu time spent up to now is     1038.4 secs

     total energy              =   -1282.09090445 Ry
     Harris-Foulkes estimate   =   -1282.22654573 Ry
     estimated scf accuracy    <       0.22839844 Ry

     iteration #  2     ecut=   100.00 Ry     beta=0.70
     Davidson diagonalization with overlap
     ethr =  1.02E-04,  avg # of iterations =  4.0

     total cpu time spent up to now is     1069.3 secs

     total energy              =   -1282.11519184 Ry
     Harris-Foulkes estimate   =   -1282.13892645 Ry
     estimated scf accuracy    <       0.03976895 Ry

     iteration #  3     ecut=   100.00 Ry     beta=0.70
     Davidson diagonalization with overlap
     ethr =  1.78E-05,  avg # of iterations =  5.0

     total cpu time spent up to now is     1105.8 secs

     total energy              =   -1282.12325061 Ry
     Harris-Foulkes estimate   =   -1282.13710033 Ry
     estimated scf accuracy    <       0.02930660 Ry

     iteration #  4     ecut=   100.00 Ry     beta=0.70
     Davidson diagonalization with overlap
     ethr =  1.31E-05,  avg # of iterations =  5.0

     total cpu time spent up to now is     1139.7 secs

     total energy              =   -1282.13013427 Ry
     Harris-Foulkes estimate   =   -1282.13237873 Ry
     estimated scf accuracy    <       0.00601051 Ry

     iteration #  5     ecut=   100.00 Ry     beta=0.70
     Davidson diagonalization with overlap
     ethr =  2.68E-06,  avg # of iterations =  5.0

     total cpu time spent up to now is     1171.3 secs

     total energy              =   -1282.13103970 Ry
     Harris-Foulkes estimate   =   -1282.13115544 Ry
     estimated scf accuracy    <       0.00024211 Ry

     iteration #  6     ecut=   100.00 Ry     beta=0.70
     Davidson diagonalization with overlap
     ethr =  1.08E-07,  avg # of iterations =  5.0

     total cpu time spent up to now is     1209.1 secs

     total energy              =   -1282.13123557 Ry
     Harris-Foulkes estimate   =   -1282.13138867 Ry
     estimated scf accuracy    <       0.00048602 Ry

     iteration #  7     ecut=   100.00 Ry     beta=0.70
     Davidson diagonalization with overlap
     ethr =  1.08E-07,  avg # of iterations =  6.0

     total cpu time spent up to now is     1243.7 secs

     total energy              =   -1282.13126582 Ry
     Harris-Foulkes estimate   =   -1282.13128428 Ry
     estimated scf accuracy    <       0.00006181 Ry

     iteration #  8     ecut=   100.00 Ry     beta=0.70
     Davidson diagonalization with overlap
     ethr =  2.76E-08,  avg # of iterations =  5.0

     total cpu time spent up to now is     1278.4 secs

     total energy              =   -1282.13128254 Ry
     Harris-Foulkes estimate   =   -1282.13128571 Ry
     estimated scf accuracy    <       0.00000855 Ry

     iteration #  9     ecut=   100.00 Ry     beta=0.70
     Davidson diagonalization with overlap
     ethr =  3.82E-09,  avg # of iterations =  5.0

     total cpu time spent up to now is     1310.7 secs

     total energy              =   -1282.13128471 Ry
     Harris-Foulkes estimate   =   -1282.13128515 Ry
     estimated scf accuracy    <       0.00000106 Ry

     iteration # 10     ecut=   100.00 Ry     beta=0.70
     Davidson diagonalization with overlap
     ethr =  4.73E-10,  avg # of iterations =  5.0

     total cpu time spent up to now is     1347.2 secs

     End of self-consistent calculation

          k = 0.0000 0.0000 0.0000 ( 29262 PWs)   bands (ev):

   -23.5055 -23.4684 -23.4406 -23.4233 -23.1597 -23.1529 -23.1526 -23.1403
   -18.8405 -18.8193 -18.7609 -18.7543 -18.7318 -18.7003 -18.4010 -18.3990
   -18.3988 -18.3978 -17.6755 -17.6041 -17.5855 -17.5845 -16.5126 -16.4876
   -12.0571 -12.0460 -12.0346 -11.9649 -11.7984 -11.7904 -11.7461 -11.5807
    -9.6444  -9.5525  -8.6199  -8.5892  -8.0550  -8.0435  -7.0967  -7.0894
    -6.9410  -6.7699  -6.7337  -6.6729  -6.4035  -6.3548  -6.2677  -6.1305
    -6.0752  -6.0406  -6.0194  -6.0038  -5.9586  -5.8296  -5.4969  -5.4766
    -5.1336  -5.0579  -5.0466  -4.9181  -4.8974  -4.7136  -4.7068  -4.6563
    -4.3968  -4.3918  -4.1761  -4.0943  -3.9684  -3.8299  -3.1936  -3.1474
    -2.9709  -2.7927  -2.5232  -2.4073  -1.9332  -1.8900  -1.7651  -1.7394
    -0.8089  -0.7895  -0.2572  -0.2535  -0.1079  -0.0808  -0.0715   0.0795
     0.0908   0.1001   0.2190   0.2391   0.2544   0.2569   0.3812   0.4320
     0.4517   0.4928   0.6883   0.7279   0.8757   0.9345   0.9865   0.9974
     1.0743   1.0926   1.1522   1.1895   1.2824   1.4601   1.5245   1.5269

     occupation numbers 
     1.0000   1.0000   1.0000   1.0000   1.0000   1.0000   1.0000   1.0000
     1.0000   1.0000   1.0000   1.0000   1.0000   1.0000   1.0000   1.0000
     1.0000   1.0000   1.0000   1.0000   1.0000   1.0000   1.0000   1.0000
     1.0000   1.0000   1.0000   1.0000   1.0000   1.0000   1.0000   1.0000
     1.0000   1.0000   1.0000   1.0000   1.0000   1.0000   1.0000   1.0000
     1.0000   1.0000   1.0000   1.0000   1.0000   1.0000   1.0000   1.0000
     1.0000   1.0000   1.0000   1.0000   1.0000   1.0000   1.0000   1.0000
     1.0000   1.0000   1.0000   1.0000   1.0000   1.0000   1.0000   1.0000
     1.0000   1.0000   1.0000   1.0000   1.0000   1.0000   1.0000   1.0000
     1.0000   1.0000   1.0000   1.0000   1.0000   1.0000   1.0000   1.0000
     1.0000   1.0000   1.0000   1.0000   1.0000   1.0000   1.0000   1.0000
     1.0000   1.0000   1.0000   1.0000   1.0000   1.0000   1.0000   1.0000
     1.0000   1.0000   1.0000   1.0000   1.0000   1.0000   1.0000   1.0000
     1.0000   1.0000   1.0000   1.0000   1.0000   1.0000   1.0000   1.0000

     highest occupied level (ev):     1.5269

!    total energy              =   -1282.13128469 Ry
     Harris-Foulkes estimate   =   -1282.13128510 Ry
     estimated scf accuracy    <       0.00000048 Ry

     total all-electron energy =     -4786.575032 Ry

     The total energy is the sum of the following terms:

     one-electron contribution =    -631.56882453 Ry
     hartree contribution      =     414.27186360 Ry
     xc contribution           =    -258.46495763 Ry
     ewald contribution        =    -476.01352285 Ry
     one-center paw contrib.   =    -330.35584327 Ry

     convergence has been achieved in  10 iterations

     Forces acting on atoms (Ry/au):

     atom    1 type  1   force =     0.06082521    0.01953505    0.04502408
     atom    2 type  4   force =    -0.01081053   -0.00262104    0.00591522
     atom    3 type  1   force =     0.02877800    0.04200005    0.05133417
     atom    4 type  1   force =    -0.00662673    0.01209801    0.00157933
     atom    5 type  4   force =     0.00501920    0.02309749   -0.02915225
     atom    6 type  1   force =    -0.05083712   -0.01706142    0.03205861
     atom    7 type  4   force =     0.00854839   -0.01356914   -0.03474934
     atom    8 type  2   force =    -0.20218285    0.11338672   -0.03747076
     atom    9 type  3   force =     0.05098761    0.00179717    0.03064743
     atom   10 type  3   force =     0.02847072   -0.05201469   -0.01135400
     atom   11 type  4   force =     0.01724262   -0.01265594   -0.00027918
     atom   12 type  2   force =    -0.12525805    0.05503075   -0.23850396
     atom   13 type  3   force =     0.04920456    0.02019801    0.03579323
     atom   14 type  3   force =    -0.00732462   -0.04283670    0.05916671
     atom   15 type  3   force =    -0.00732377    0.04283679    0.05916452
     atom   16 type  3   force =     0.04920463   -0.02019730    0.03579169
     atom   17 type  2   force =    -0.12525555   -0.05502067   -0.23852326
     atom   18 type  4   force =     0.01723745    0.01265522   -0.00028286
     atom   19 type  3   force =     0.02847304    0.05201676   -0.01135579
     atom   20 type  3   force =     0.05098933   -0.00179681    0.03064729
     atom   21 type  2   force =    -0.20216713   -0.11339010   -0.03747487
     atom   22 type  4   force =     0.00855048    0.01355444   -0.03472487
     atom   23 type  1   force =    -0.05083864    0.01706279    0.03206630
     atom   24 type  4   force =     0.00501779   -0.02310635   -0.02916551
     atom   25 type  1   force =    -0.00662522   -0.01210304    0.00157494
     atom   26 type  1   force =     0.02876669   -0.04200425    0.05135124
     atom   27 type  4   force =    -0.01084420    0.00263204    0.00592821
     atom   28 type  1   force =     0.06081348   -0.01954458    0.04504636
     atom   29 type  3   force =     0.00732462    0.04283670   -0.05916671
     atom   30 type  3   force =    -0.04920456   -0.02019801   -0.03579323
     atom   31 type  2   force =     0.12525805   -0.05503075    0.23850396
     atom   32 type  4   force =    -0.01724262    0.01265594    0.00027918
     atom   33 type  3   force =    -0.02847072    0.05201469    0.01135400
     atom   34 type  3   force =    -0.05098761   -0.00179717   -0.03064743
     atom   35 type  2   force =     0.20218285   -0.11338672    0.03747076
     atom   36 type  4   force =    -0.00854839    0.01356914    0.03474934
     atom   37 type  1   force =     0.05083712    0.01706142   -0.03205861
     atom   38 type  4   force =    -0.00501920   -0.02309749    0.02915225
     atom   39 type  1   force =     0.00662673   -0.01209801   -0.00157933
     atom   40 type  1   force =    -0.02877800   -0.04200005   -0.05133417
     atom   41 type  4   force =     0.01081053    0.00262104   -0.00591522
     atom   42 type  1   force =    -0.06082521   -0.01953505   -0.04502408
     atom   43 type  3   force =     0.00732377   -0.04283679   -0.05916452
     atom   44 type  3   force =    -0.04920463    0.02019730   -0.03579169
     atom   45 type  2   force =     0.12525555    0.05502067    0.23852326
     atom   46 type  4   force =    -0.01723745   -0.01265522    0.00028286
     atom   47 type  3   force =    -0.02847304   -0.05201676    0.01135579
     atom   48 type  3   force =    -0.05098933    0.00179681   -0.03064729
     atom   49 type  2   force =     0.20216713    0.11339010    0.03747487
     atom   50 type  4   force =    -0.00855048   -0.01355444    0.03472487
     atom   51 type  1   force =     0.05083864   -0.01706279   -0.03206630
     atom   52 type  4   force =    -0.00501779    0.02310635    0.02916551
     atom   53 type  1   force =     0.00662522    0.01210304   -0.00157494
     atom   54 type  1   force =    -0.02876669    0.04200425   -0.05135124
     atom   55 type  4   force =     0.01084420   -0.00263204   -0.00592821
     atom   56 type  1   force =    -0.06081348    0.01954458   -0.04504636
     The non-local contrib.  to forces
     atom    1 type  1   force =     0.31808740    0.12723488    0.28213580
     atom    2 type  4   force =    -2.38740383   -0.44410936    1.49356548
     atom    3 type  1   force =     0.07222913   -0.02002506    0.04266488
     atom    4 type  1   force =    -0.57919529   -0.46612579   -0.30063540
     atom    5 type  4   force =     0.18065898    1.80711515   -2.16603971
     atom    6 type  1   force =     0.03212578    0.10187824    0.05034392
     atom    7 type  4   force =     0.51125212   -1.13035375   -2.54781267
     atom    8 type  2   force =     0.30241786   -0.22160309    0.08499991
     atom    9 type  3   force =     0.05116714    0.01109928    0.04165677
     atom   10 type  3   force =     0.02284565   -0.06121839   -0.02136004
     atom   11 type  4   force =     2.23613108   -1.41168206    0.84399460
     atom   12 type  2   force =     0.14603378   -0.06753839    0.28690861
     atom   13 type  3   force =     0.05308421    0.02342419    0.02862355
     atom   14 type  3   force =    -0.01170091   -0.04141332    0.04885366
     atom   15 type  3   force =    -0.01170090    0.04141340    0.04885383
     atom   16 type  3   force =     0.05308436   -0.02342428    0.02862360
     atom   17 type  2   force =     0.14603611    0.06754850    0.28688649
     atom   18 type  4   force =     2.23611924    1.41168571    0.84397740
     atom   19 type  3   force =     0.02284555    0.06121805   -0.02136007
     atom   20 type  3   force =     0.05116734   -0.01109917    0.04165669
     atom   21 type  2   force =     0.30243807    0.22160110    0.08499548
     atom   22 type  4   force =     0.51129454    1.13029293   -2.54774900
     atom   23 type  1   force =     0.03213187   -0.10189256    0.05034242
     atom   24 type  4   force =     0.18065676   -1.80710676   -2.16605759
     atom   25 type  1   force =    -0.57920155    0.46611945   -0.30064466
     atom   26 type  1   force =     0.07221697    0.02002049    0.04268694
     atom   27 type  4   force =    -2.38748454    0.44415883    1.49353849
     atom   28 type  1   force =     0.31810060   -0.12723239    0.28211959
     atom   29 type  3   force =     0.01170091    0.04141332   -0.04885366
     atom   30 type  3   force =    -0.05308421   -0.02342419   -0.02862355
     atom   31 type  2   force =    -0.14603378    0.06753839   -0.28690861
     atom   32 type  4   force =    -2.23613108    1.41168206   -0.84399460
     atom   33 type  3   force =    -0.02284565    0.06121839    0.02136004
     atom   34 type  3   force =    -0.05116714   -0.01109928   -0.04165677
     atom   35 type  2   force =    -0.30241786    0.22160309   -0.08499991
     atom   36 type  4   force =    -0.51125212    1.13035375    2.54781267
     atom   37 type  1   force =    -0.03212578   -0.10187824   -0.05034392
     atom   38 type  4   force =    -0.18065898   -1.80711515    2.16603971
     atom   39 type  1   force =     0.57919529    0.46612579    0.30063540
     atom   40 type  1   force =    -0.07222913    0.02002506   -0.04266488
     atom   41 type  4   force =     2.38740383    0.44410936   -1.49356548
     atom   42 type  1   force =    -0.31808740   -0.12723488   -0.28213580
     atom   43 type  3   force =     0.01170090   -0.04141340   -0.04885383
     atom   44 type  3   force =    -0.05308436    0.02342428   -0.02862360
     atom   45 type  2   force =    -0.14603611   -0.06754850   -0.28688649
     atom   46 type  4   force =    -2.23611924   -1.41168571   -0.84397740
     atom   47 type  3   force =    -0.02284555   -0.06121805    0.02136007
     atom   48 type  3   force =    -0.05116734    0.01109917   -0.04165669
     atom   49 type  2   force =    -0.30243807   -0.22160110   -0.08499548
     atom   50 type  4   force =    -0.51129454   -1.13029293    2.54774900
     atom   51 type  1   force =    -0.03213187    0.10189256   -0.05034242
     atom   52 type  4   force =    -0.18065676    1.80710676    2.16605759
     atom   53 type  1   force =     0.57920155   -0.46611945    0.30064466
     atom   54 type  1   force =    -0.07221697   -0.02002049   -0.04268694
     atom   55 type  4   force =     2.38748454   -0.44415883   -1.49353849
     atom   56 type  1   force =    -0.31810060    0.12723239   -0.28211959
     The ionic contribution  to forces
     atom    1 type  1   force =    -3.16227533    1.28316239   -2.18478724
     atom    2 type  4   force =    11.93873110    4.48426324   -5.63938326
     atom    3 type  1   force =    -0.03973818    2.21070273    0.41041256
     atom    4 type  1   force =     2.05923297    3.02058125    2.96289161
     atom    5 type  4   force =    -1.31702515   -7.99623109   10.79318274
     atom    6 type  1   force =    -0.76883316    0.04798973    1.51589098
     atom    7 type  4   force =    -1.83260526    6.16005708   11.75652307
     atom    8 type  2   force =    -4.94667489    3.76551716   -1.15738516
     atom    9 type  3   force =    -1.71458593    0.16742027   -1.44544828
     atom   10 type  3   force =    -1.11627370    2.05570301    0.38569558
     atom   11 type  4   force =   -10.55421099    5.93497314   -1.95826073
     atom   12 type  2   force =    -3.25378371    1.30807377   -5.77781516
     atom   13 type  3   force =    -1.83417620   -0.58142419   -1.41616427
     atom   14 type  3   force =    -0.04492278    1.45459481   -1.95161461
     atom   15 type  3   force =    -0.04492028   -1.45460038   -1.95164652
     atom   16 type  3   force =    -1.83417531    0.58144465   -1.41617652
     atom   17 type  2   force =    -3.25376898   -1.30794430   -5.77796160
     atom   18 type  4   force =   -10.55417016   -5.93505081   -1.95816723
     atom   19 type  3   force =    -1.11624977   -2.05570168    0.38572297
     atom   20 type  3   force =    -1.71457100   -0.16741629   -1.44543048
     atom   21 type  2   force =    -4.94652539   -3.76557412   -1.15734229
     atom   22 type  4   force =    -1.83272832   -6.16004508   11.75655284
     atom   23 type  1   force =    -0.76887602   -0.04798908    1.51590979
[...]
     atom   21 type  2   force =    -0.00943480   -0.00685826   -0.00341849
     atom   22 type  4   force =    -0.00309271   -0.00828693    0.02105156
     atom   23 type  1   force =    -0.00026058    0.00186735   -0.00101452
     atom   24 type  4   force =    -0.00073903    0.01446393    0.01766517
     atom   25 type  1   force =     0.00952482   -0.00863502    0.00421048
     atom   26 type  1   force =     0.00006481   -0.00123404   -0.00006780
     atom   27 type  4   force =     0.01831253   -0.00369874   -0.01270763
     atom   28 type  1   force =    -0.00437355    0.00483936   -0.00324551
     atom   29 type  3   force =     0.00000000    0.00000000    0.00000000
     atom   30 type  3   force =     0.00000000    0.00000000    0.00000000
     atom   31 type  2   force =     0.00579529   -0.00140746    0.01011602
     atom   32 type  4   force =     0.01800373   -0.00939171    0.00861693
     atom   33 type  3   force =     0.00000000    0.00000000    0.00000000
     atom   34 type  3   force =     0.00000000    0.00000000    0.00000000
     atom   35 type  2   force =     0.00943807   -0.00685611    0.00342050
     atom   36 type  4   force =     0.00309397   -0.00828914   -0.02105169
     atom   37 type  1   force =     0.00026053    0.00186774    0.00101568
     atom   38 type  4   force =     0.00073865    0.01446398   -0.01766560
     atom   39 type  1   force =    -0.00952638   -0.00863746   -0.00421300
     atom   40 type  1   force =    -0.00006657   -0.00123220    0.00006696
     atom   41 type  4   force =    -0.01831315   -0.00370159    0.01270726
     atom   42 type  1   force =     0.00437743    0.00483605    0.00324684
     atom   43 type  3   force =     0.00000000    0.00000000    0.00000000
     atom   44 type  3   force =     0.00000000    0.00000000    0.00000000
     atom   45 type  2   force =     0.00579577    0.00140519    0.01011374
     atom   46 type  4   force =     0.01800147    0.00939255    0.00861929
     atom   47 type  3   force =     0.00000000    0.00000000    0.00000000
     atom   48 type  3   force =     0.00000000    0.00000000    0.00000000
     atom   49 type  2   force =     0.00943479    0.00685825    0.00341850
     atom   50 type  4   force =     0.00309272    0.00828693   -0.02105157
     atom   51 type  1   force =     0.00026060   -0.00186733    0.00101453
     atom   52 type  4   force =     0.00073902   -0.01446393   -0.01766517
     atom   53 type  1   force =    -0.00952484    0.00863503   -0.00421048
     atom   54 type  1   force =    -0.00006480    0.00123405    0.00006782
     atom   55 type  4   force =    -0.01831253    0.00369874    0.01270763
     atom   56 type  1   force =     0.00437354   -0.00483936    0.00324551
     The Hubbard contrib.    to forces
     atom    1 type  1   force =     0.00000000    0.00000000    0.00000000
     atom    2 type  4   force =     0.00000000    0.00000000    0.00000000
     atom    3 type  1   force =     0.00000000    0.00000000    0.00000000
     atom    4 type  1   force =     0.00000000    0.00000000    0.00000000
     atom    5 type  4   force =     0.00000000    0.00000000    0.00000000
     atom    6 type  1   force =     0.00000000    0.00000000    0.00000000
     atom    7 type  4   force =     0.00000000    0.00000000    0.00000000
     atom    8 type  2   force =     0.00000000    0.00000000    0.00000000
     atom    9 type  3   force =     0.00000000    0.00000000    0.00000000
     atom   10 type  3   force =     0.00000000    0.00000000    0.00000000
     atom   11 type  4   force =     0.00000000    0.00000000    0.00000000
     atom   12 type  2   force =     0.00000000    0.00000000    0.00000000
     atom   13 type  3   force =     0.00000000    0.00000000    0.00000000
     atom   14 type  3   force =     0.00000000    0.00000000    0.00000000
     atom   15 type  3   force =     0.00000000    0.00000000    0.00000000
     atom   16 type  3   force =     0.00000000    0.00000000    0.00000000
     atom   17 type  2   force =     0.00000000    0.00000000    0.00000000
     atom   18 type  4   force =     0.00000000    0.00000000    0.00000000
     atom   19 type  3   force =     0.00000000    0.00000000    0.00000000
     atom   20 type  3   force =     0.00000000    0.00000000    0.00000000
     atom   21 type  2   force =     0.00000000    0.00000000    0.00000000
     atom   22 type  4   force =     0.00000000    0.00000000    0.00000000
     atom   23 type  1   force =     0.00000000    0.00000000    0.00000000
     atom   24 type  4   force =     0.00000000    0.00000000    0.00000000
     atom   25 type  1   force =     0.00000000    0.00000000    0.00000000
     atom   26 type  1   force =     0.00000000    0.00000000    0.00000000
     atom   27 type  4   force =     0.00000000    0.00000000    0.00000000
     atom   28 type  1   force =     0.00000000    0.00000000    0.00000000
     atom   29 type  3   force =     0.00000000    0.00000000    0.00000000
     atom   30 type  3   force =     0.00000000    0.00000000    0.00000000
     atom   31 type  2   force =     0.00000000    0.00000000    0.00000000
     atom   32 type  4   force =     0.00000000    0.00000000    0.00000000
     atom   33 type  3   force =     0.00000000    0.00000000    0.00000000
     atom   34 type  3   force =     0.00000000    0.00000000    0.00000000
     atom   35 type  2   force =     0.00000000    0.00000000    0.00000000
     atom   36 type  4   force =     0.00000000    0.00000000    0.00000000
     atom   37 type  1   force =     0.00000000    0.00000000    0.00000000
     atom   38 type  4   force =     0.00000000    0.00000000    0.00000000
     atom   39 type  1   force =     0.00000000    0.00000000    0.00000000
     atom   40 type  1   force =     0.00000000    0.00000000    0.00000000
     atom   41 type  4   force =     0.00000000    0.00000000    0.00000000
     atom   42 type  1   force =     0.00000000    0.00000000    0.00000000
     atom   43 type  3   force =     0.00000000    0.00000000    0.00000000
     atom   44 type  3   force =     0.00000000    0.00000000    0.00000000
     atom   45 type  2   force =     0.00000000    0.00000000    0.00000000
     atom   46 type  4   force =     0.00000000    0.00000000    0.00000000
     atom   47 type  3   force =     0.00000000    0.00000000    0.00000000
     atom   48 type  3   force =     0.00000000    0.00000000    0.00000000
     atom   49 type  2   force =     0.00000000    0.00000000    0.00000000
     atom   50 type  4   force =     0.00000000    0.00000000    0.00000000
     atom   51 type  1   force =     0.00000000    0.00000000    0.00000000
     atom   52 type  4   force =     0.00000000    0.00000000    0.00000000
     atom   53 type  1   force =     0.00000000    0.00000000    0.00000000
     atom   54 type  1   force =     0.00000000    0.00000000    0.00000000
     atom   55 type  4   force =     0.00000000    0.00000000    0.00000000
     atom   56 type  1   force =     0.00000000    0.00000000    0.00000000
     The SCF correction term to forces
     atom    1 type  1   force =     0.00000510    0.00000760    0.00000127
     atom    2 type  4   force =     0.00000146    0.00000319    0.00000220
     atom    3 type  1   force =     0.00000997    0.00000742   -0.00000024
     atom    4 type  1   force =    -0.00000634   -0.00000218    0.00000685
     atom    5 type  4   force =    -0.00000054   -0.00000220    0.00000175
     atom    6 type  1   force =    -0.00000302   -0.00000753    0.00001037
     atom    7 type  4   force =     0.00000374    0.00000150   -0.00000183
     atom    8 type  2   force =    -0.00000418    0.00000334    0.00000256
     atom    9 type  3   force =    -0.00000125    0.00000007   -0.00000014
     atom   10 type  3   force =    -0.00000068    0.00000142    0.00000113
     atom   11 type  4   force =     0.00000205   -0.00000015    0.00000681
     atom   12 type  2   force =     0.00000126    0.00000154   -0.00000699
     atom   13 type  3   force =    -0.00000076   -0.00000062   -0.00000165
     atom   14 type  3   force =     0.00000091    0.00000048   -0.00000144
     atom   15 type  3   force =     0.00000070   -0.00000002   -0.00000028
     atom   16 type  3   force =     0.00000041   -0.00000031   -0.00000068
     atom   17 type  2   force =     0.00000385   -0.00000103   -0.00000319
     atom   18 type  4   force =     0.00001194    0.00001081    0.00000824
     atom   19 type  3   force =    -0.00000034   -0.00000056   -0.00000001
     atom   20 type  3   force =     0.00000004   -0.00000057    0.00000013
     atom   21 type  2   force =    -0.00000212   -0.00000024    0.00000146
     atom   22 type  4   force =    -0.00000008    0.00000362   -0.00001361
     atom   23 type  1   force =     0.00001393    0.00001286    0.00001106
     atom   24 type  4   force =     0.00000819   -0.00000984   -0.00001413
     atom   25 type  1   force =    -0.00000673    0.00000577    0.00000676
     atom   26 type  1   force =     0.00000832   -0.00000029   -0.00001479
     atom   27 type  4   force =    -0.00000204    0.00000215   -0.00000226
     atom   28 type  1   force =     0.00000453   -0.00000492   -0.00000213
     atom   29 type  3   force =    -0.00000090   -0.00000055    0.00000144
     atom   30 type  3   force =     0.00000072    0.00000061    0.00000169
     atom   31 type  2   force =    -0.00000150   -0.00000147    0.00000731
     atom   32 type  4   force =    -0.00000157   -0.00000043   -0.00000712
     atom   33 type  3   force =     0.00000078   -0.00000159   -0.00000114
     atom   34 type  3   force =     0.00000136   -0.00000013    0.00000021
     atom   35 type  2   force =     0.00000459   -0.00000367   -0.00000252
     atom   36 type  4   force =    -0.00000402   -0.00000198    0.00000168
     atom   37 type  1   force =     0.00000353    0.00000750   -0.00001099
     atom   38 type  4   force =     0.00000060    0.00000198   -0.00000220
     atom   39 type  1   force =     0.00000633    0.00000217   -0.00000711
     atom   40 type  1   force =    -0.00001111   -0.00000774    0.00000154
     atom   41 type  4   force =    -0.00000187   -0.00000349   -0.00000168
     atom   42 type  1   force =    -0.00000541   -0.00000809   -0.00000048
     atom   43 type  3   force =    -0.00000080    0.00000006    0.00000031
     atom   44 type  3   force =    -0.00000054    0.00000042    0.00000069
     atom   45 type  2   force =    -0.00000431    0.00000121    0.00000334
     atom   46 type  4   force =    -0.00001130   -0.00000942   -0.00000834
     atom   47 type  3   force =     0.00000039    0.00000056   -0.00000010
     atom   48 type  3   force =     0.00000002    0.00000070   -0.00000027
     atom   49 type  2   force =     0.00000246    0.00000064   -0.00000190
     atom   50 type  4   force =    -0.00000018   -0.00000414    0.00001386
     atom   51 type  1   force =    -0.00001253   -0.00001085   -0.00001027
     atom   52 type  4   force =    -0.00000709    0.00001119    0.00001483
     atom   53 type  1   force =     0.00000730   -0.00000491   -0.00000702
     atom   54 type  1   force =    -0.00000894    0.00000044    0.00001431
     atom   55 type  4   force =     0.00000209   -0.00000235    0.00000177
     atom   56 type  1   force =    -0.00000512    0.00000539    0.00000198

     Total force =     0.004487     Total SCF correction =     0.000072


     entering subroutine stress ...

          total   stress  (Ry/bohr**3)                   (kbar)     P=   16.22
   0.00009547   0.00000005   0.00002858         14.04      0.01      4.20
   0.00000005   0.00012354  -0.00000015          0.01     18.17     -0.02
   0.00002858  -0.00000015   0.00011167          4.20     -0.02     16.43

     kinetic stress (kbar)  15002.62     -0.03    282.39
                               -0.03  15476.28      0.00
                              282.39      0.00  14940.31

     local   stress (kbar) -15823.96     -0.13   6583.93
                               -0.13  -7525.43      0.01
                             6583.93      0.01 -11746.29

     nonloc. stress (kbar)   1047.31     -0.00      3.58
                               -0.00   1061.21      0.00
                                3.58      0.00   1012.46

     hartree stress (kbar)   7141.73      0.01  -2420.69
                                0.01   4542.99      0.05
                            -2420.69      0.05   5512.79

     exc-cor stress (kbar)  -2167.02      0.00     -8.71
                                0.00  -2188.76     -0.00
                               -8.71     -0.00  -2171.81

     corecor stress (kbar)  -1134.59     -0.00     -2.30
                               -0.00  -1137.35      0.00
                               -2.30      0.00  -1135.18

     ewald   stress (kbar)  -4052.04      0.16  -4433.99
                                0.16 -10210.77     -0.08
                            -4433.99     -0.08  -6395.85

     hubbard stress (kbar)      0.00      0.00      0.00
                                0.00      0.00      0.00
                                0.00      0.00      0.00

     london  stress (kbar)      0.00      0.00      0.00
                                0.00      0.00      0.00
                                0.00      0.00      0.00

     XDM     stress (kbar)      0.00      0.00      0.00
                                0.00      0.00      0.00
                                0.00      0.00      0.00

     dft-nl  stress (kbar)      0.00      0.00      0.00
                                0.00      0.00      0.00
                                0.00      0.00      0.00

     TS-vdW  stress (kbar)      0.00      0.00      0.00
                                0.00      0.00      0.00
                                0.00      0.00      0.00



     bfgs converged in  34 scf cycles and  33 bfgs steps
     (criteria: energy <  1.0E-04, force <  1.0E-03)

     End of BFGS Geometry Optimization

     Final energy   =   -1282.3943542487 Ry
Begin final coordinates

ATOMIC_POSITIONS (crystal)
N       -0.025333961   0.623276269   0.455312749
O        0.266768369   0.720633513   0.423352395
N        0.139719511   0.701726813   0.524137882
N       -0.137528111   0.526148286   0.712226496
O       -0.272356033   0.418472673   0.920731728
N       -0.305797483   0.491234412   0.788999866
O        0.149870262   0.743419054   0.682348160
C       -0.190099258   0.615702089   0.557536447
H       -0.333051593   0.587618001   0.459311175
H       -0.212813387   0.704965085   0.616290474
O       -0.478060633   0.540616048   0.721984000
C       -0.032552002   0.560653494   0.278012307
H       -0.184648310   0.512776968   0.242912963
H       -0.023971711   0.625249856   0.166542259
H        0.476026700  -0.125251032   0.666542851
H        0.315356460  -0.012779688   0.742913261
C        0.467447761  -0.060652477   0.778016734
O        0.021947049  -0.040616028   1.221980989
H        0.287187705  -0.204965078   1.116294126
H        0.166945949  -0.087618240   0.959314061
C        0.309899496  -0.115704929   1.057542614
O        0.649866650  -0.243414144   1.182335808
N        0.194207104   0.008770549   1.289009898
O        0.227642454   0.081527078   1.420731308
N        0.362471086  -0.026143932   1.212226698
N        0.639709887  -0.201735439   1.024149806
O        0.766769010  -0.220636495   0.923351016
N        0.474668222  -0.123272099   0.955312335
H        0.023971711   0.374750144   0.833457741
H        0.184648310   0.487223032   0.757087037
C        0.032552002   0.439346506   0.721987693
O        0.478060633   0.459383952   0.278016000
H        0.212813387   0.295034915   0.383709526
H        0.333051593   0.412381999   0.540688825
C        0.190099258   0.384297911   0.442463553
O       -0.149870262   0.256580946   0.317651840
N        0.305797483   0.508765588   0.211000134
O        0.272356033   0.581527327   0.079268272
N        0.137528111   0.473851714   0.287773504
N       -0.139719511   0.298273187   0.475862118
O       -0.266768369   0.279366487   0.576647605
N        0.025333961   0.376723731   0.544687251
H        0.523973300   0.125251032   1.333457149
H        0.684643540   0.012779688   1.257086739
C        0.532552239   0.060652477   1.221983266
O        0.978052951   0.040616028   0.778019011
H        0.712812295   0.204965078   0.883705874
H        0.833054051   0.087618240   1.040685939
C        0.690100504   0.115704929   0.942457386
O        0.350133350   0.243414144   0.817664192
N        0.805792896  -0.008770549   0.710990102
O        0.772357546  -0.081527078   0.579268692
N        0.637528914   0.026143932   0.787773302
N        0.360290113   0.201735439   0.975850194
O        0.233230990   0.220636495   1.076648984
N        0.525331778   0.123272099   1.044687665
End final coordinates



     Writing output data file scf.pbe-ec-100-kp444.HMX--nofor.nostress.save

     init_run     :     66.74s CPU     71.13s WALL (       1 calls)
     electrons    :  13589.03s CPU  19910.56s WALL (      34 calls)
     update_pot   :   1858.36s CPU   2281.30s WALL (      33 calls)
     forces       :   1803.93s CPU   1996.35s WALL (      34 calls)
     stress       :   3902.90s CPU   4492.17s WALL (      34 calls)

     Called by init_run:
     wfcinit      :      5.23s CPU      5.68s WALL (       1 calls)
     potinit      :     21.18s CPU     21.75s WALL (       1 calls)

     Called by electrons:
     c_bands      :   5570.25s CPU   8240.26s WALL (     495 calls)
     sum_band     :   4653.89s CPU   7274.84s WALL (     495 calls)
     v_of_rho     :   1046.96s CPU   1281.21s WALL (     522 calls)
     v_h          :     94.56s CPU    117.06s WALL (     522 calls)
     v_xc         :   1076.08s CPU   1309.08s WALL (     590 calls)
     newd         :   1844.00s CPU   2364.30s WALL (     522 calls)
     PAW_pot      :    371.18s CPU    435.69s WALL (     555 calls)
     mix_rho      :    194.67s CPU    262.78s WALL (     495 calls)

     Called by c_bands:
     init_us_2    :     37.95s CPU     45.15s WALL (    1024 calls)
     regterg      :   5513.69s CPU   8143.10s WALL (     495 calls)

     Called by sum_band:
     sum_band:bec :      0.26s CPU      0.24s WALL (     528 calls)
     addusdens    :   3449.25s CPU   5590.36s WALL (     495 calls)

     Called by *egterg:
     h_psi        :   3592.98s CPU   5518.17s WALL (    2414 calls)
     s_psi        :    402.94s CPU    445.46s WALL (    2414 calls)
     g_psi        :      6.80s CPU      8.94s WALL (    1918 calls)
     rdiaghg      :    220.87s CPU    397.29s WALL (    2373 calls)
     regterg:over :    486.88s CPU    727.32s WALL (    1918 calls)
     regterg:upda :    279.50s CPU    308.88s WALL (    1918 calls)
     regterg:last :    158.43s CPU    179.39s WALL (     537 calls)

     Called by h_psi:
     h_psi:vloc   :   2632.36s CPU   4289.04s WALL (    2414 calls)
     h_psi:vnl    :    939.72s CPU   1205.80s WALL (    2414 calls)
     add_vuspsi   :    405.47s CPU    463.62s WALL (    2414 calls)

     General routines
     calbec       :    801.79s CPU   1099.26s WALL (    3112 calls)
     fft          :   1324.05s CPU   1945.52s WALL (    9127 calls)
     ffts         :     24.11s CPU     46.02s WALL (    1017 calls)
     fftw         :   1980.64s CPU   3868.53s WALL (  185136 calls)
     interpolate  :    234.85s CPU    320.22s WALL (    1017 calls)
     davcio       :      0.81s CPU     18.78s WALL (      34 calls)

     Parallel routines
     fft_scatter  :   1836.54s CPU   4205.33s WALL (  195280 calls)

     PAW routines
     PAW_pot      :    371.18s CPU    435.69s WALL (     555 calls)
     PAW_symme    :      1.87s CPU      7.96s WALL (    1050 calls)

     PWSCF        :     5h56m CPU        8h 8m WALL


   This run was terminated on:  14:58:44  24May2016            

=------------------------------------------------------------------------------=
   JOB DONE.
=------------------------------------------------------------------------------=
