
     Program PWSCF v.5.3.0 (svn rev. 11974) starts on 25Feb2016 at  4:41:51 

     This program is part of the open-source Quantum ESPRESSO suite
     for quantum simulation of materials; please cite
         "P. Giannozzi et al., J. Phys.:Condens. Matter 21 395502 (2009);
          URL http://www.quantum-espresso.org", 
     in publications or presentations arising from this work. More details at
     http://www.quantum-espresso.org/quote

     Parallel version (MPI), running on    32 processors
     R & G space division:  proc/nbgrp/npool/nimage =      32
     Waiting for input...
     Reading input from standard input
Warning: card     &CELL ignored
Warning: card CELL_DYNAMICS	= 'BFGS' ignored
Warning: card / ignored

     Current dimensions of program PWSCF are:
     Max number of different atomic species (ntypx) = 10
     Max number of k-points (npk) =  40000
     Max angular momentum in pseudopotentials (lmaxx) =  3

     gamma-point specific algorithms are used

     Subspace diagonalization in iterative solution of the eigenvalue problem:
     a serial algorithm will be used

     Found symmetry operation: I + ( -0.5000  0.0000  0.5000)
     This is a supercell, fractional translations are disabled

     Parallelization info
     --------------------
     sticks:   dense  smooth     PW     G-vecs:    dense   smooth      PW
     Min         372     186     46                81948    28934    3614
     Max         374     188     48                81966    29018    3640
     Sum       11925    5965   1485              2622595   927433  115937
     Tot        5963    2983    743



     bravais-lattice index     =            0
     lattice parameter (alat)  =       1.8897  a.u.
     unit-cell volume          =    6863.9152 (a.u.)^3
     number of atoms/cell      =           84
     number of atomic types    =            5
     number of electrons       =       292.00
     number of Kohn-Sham states=          175
     kinetic-energy cutoff     =     100.0000  Ry
     charge density cutoff     =     800.0000  Ry
     convergence threshold     =      1.0E-07
     mixing beta               =       0.7000
     number of iterations used =            8  plain     mixing
     Exchange-correlation      =  SLA  PW   PBX  PBC ( 1  4  3  4 0 0)
     nstep                     =          200


     celldm(1)=   1.889726  celldm(2)=   0.000000  celldm(3)=   0.000000
     celldm(4)=   0.000000  celldm(5)=   0.000000  celldm(6)=   0.000000

     crystal axes: (cart. coord. in units of alat)
               a(1) = (   7.209000   0.000000   0.000000 )  
               a(2) = (   0.000000   7.272000   0.000000 )  
               a(3) = (   0.000000   0.000000  19.402000 )  

     reciprocal axes: (cart. coord. in units 2 pi/alat)
               b(1) = (  0.138715  0.000000  0.000000 )  
               b(2) = (  0.000000  0.137514  0.000000 )  
               b(3) = (  0.000000  0.000000  0.051541 )  


     PseudoPot. # 1 for Cl read from file:
     ../mn-pseudo/Cl.pbe-tm-gipaw.UPF
     MD5 check sum: 6263502ce953d769893a136fffc16e2a
     Pseudo is Norm-conserving, Zval =  7.0
     Generated by new atomic code, or converted to UPF format
     Using radial grid of 1157 points,  2 beta functions with: 
                l(1) =   0
                l(2) =   1

     PseudoPot. # 2 for C  read from file:
     ../mn-pseudo/C.pbe-tm-gipaw.UPF
     MD5 check sum: 6e4a9b9bc4429ee737bc22471ffa2923
     Pseudo is Norm-conserving, Zval =  4.0
     Generated by new atomic code, or converted to UPF format
     Using radial grid of 1073 points,  1 beta functions with: 
                l(1) =   0

     PseudoPot. # 3 for Mn read from file:
     ../mn-pseudo/Mn.pbe-sp-van_mit-gipaw.UPF
     MD5 check sum: 9a859f16f1d963084cd6d127f9f8fa99
     Pseudo is Ultrasoft, Zval = 15.0
     Generated by new atomic code, or converted to UPF format
     Using radial grid of  859 points,  6 beta functions with: 
                l(1) =   0
                l(2) =   0
                l(3) =   1
                l(4) =   1
                l(5) =   2
                l(6) =   2
     Q(r) pseudized with  8 coefficients,  rinner =    1.500   1.500   1.500
                                                       1.500   1.500

     PseudoPot. # 4 for H  read from file:
     ../mn-pseudo/H.pbe-tm-gipaw.UPF
     MD5 check sum: 39a9a69d8410949353303b9fcad9eee2
     Pseudo is Norm-conserving, Zval =  1.0
     Generated by new atomic code, or converted to UPF format
     Using radial grid of  929 points,  0 beta functions with: 

     PseudoPot. # 5 for N  read from file:
     ../mn-pseudo/N.pbe-tm-gipaw.UPF
     MD5 check sum: df8943e789315a92e2ce8ab49e62f5cb
     Pseudo is Norm-conserving, Zval =  5.0
     Generated by new atomic code, or converted to UPF format
     Using radial grid of 1085 points,  1 beta functions with: 
                l(1) =   0

     atomic species   valence    mass     pseudopotential
        Cl             7.00    35.45270     Cl( 1.00)
        C              4.00    12.01100     C ( 1.00)
        Mn            15.00    54.93800     Mn( 1.00)
        H              1.00     1.00790     H ( 1.00)
        N              5.00    14.00670     N ( 1.00)

      4 Sym. Ops., with inversion, found



   Cartesian axes

     site n.     atom                  positions (alat units)
         1           Cl  tau(   1) = (   1.8022500   1.8180000   0.1994526  )
         2           Cl  tau(   2) = (   0.0000000   7.0218432   2.4739490  )
         3           N   tau(   3) = (   3.6045000  -0.1228968   2.2448114  )
         4           C   tau(   4) = (   3.6045000   0.2399760   3.6378750  )
         5           H   tau(   5) = (   3.6045000  -0.9744480   2.0178080  )
         6           H   tau(   6) = (   4.0442490   0.2327040   1.9596020  )
         7           H   tau(   7) = (   3.6045000   0.9380880   3.8998020  )
         8           H   tau(   8) = (   3.0133620  -0.2617920   4.0550180  )
         9           Mn  tau(   9) = (   0.0000000   0.0000000   0.0000000  )
        10           Mn  tau(  10) = (   3.6045000   3.6360000   0.0000000  )
        11           H   tau(  11) = (   3.1647510   0.2327040   1.9596020  )
        12           H   tau(  12) = (   4.1956380  -0.2617920   4.0550180  )
        13           Cl  tau(  13) = (   5.4067500   1.8180000   0.1994526  )
        14           Cl  tau(  14) = (   5.4067500   5.4540000  19.2025474  )
        15           Cl  tau(  15) = (   1.8022500   5.4540000  19.2025474  )
        16           Cl  tau(  16) = (   0.0000000   0.2501568  16.9280510  )
        17           H   tau(  17) = (   3.0133620   3.3742080   5.6459820  )
        18           H   tau(  18) = (   4.0442490   3.8687040   7.7413980  )
        19           H   tau(  19) = (   4.1956380   3.3742080   5.6459820  )
        20           H   tau(  20) = (   3.6045000   4.5740880   5.8011980  )
        21           H   tau(  21) = (   3.1647510   3.8687040   7.7413980  )
        22           H   tau(  22) = (   3.6045000   2.6615520   7.6831920  )
        23           C   tau(  23) = (   3.6045000   3.8759760   6.0631250  )
        24           N   tau(  24) = (   3.6045000   3.5131032   7.4561886  )
        25           H   tau(  25) = (  -0.5911380   3.3742080  15.3469820  )
        26           H   tau(  26) = (   0.4397490   3.8687040  17.4423980  )
        27           H   tau(  27) = (   0.5911380   3.3742080  15.3469820  )
        28           H   tau(  28) = (   0.0000000   4.5740880  15.5021980  )
        29           H   tau(  29) = (  -0.4397490   3.8687040  17.4423980  )
        30           H   tau(  30) = (   0.0000000   2.6615520  17.3841920  )
        31           C   tau(  31) = (   0.0000000   3.8759760  15.7641250  )
        32           N   tau(  32) = (   0.0000000   3.5131032  17.1571886  )
        33           H   tau(  33) = (  -0.5911380   7.5337920   5.6459820  )
        34           H   tau(  34) = (   0.4397490   7.0392960   7.7413980  )
        35           H   tau(  35) = (   0.5911380   7.5337920   5.6459820  )
        36           H   tau(  36) = (   0.0000000   6.3339120   5.8011980  )
        37           H   tau(  37) = (  -0.4397490   7.0392960   7.7413980  )
        38           H   tau(  38) = (   0.0000000   8.2464480   7.6831920  )
        39           C   tau(  39) = (   0.0000000   7.0320240   6.0631250  )
        40           N   tau(  40) = (   0.0000000   7.3948968   7.4561886  )
        41           H   tau(  41) = (   3.0133620   7.5337920  15.3469820  )
        42           H   tau(  42) = (   4.0442490   7.0392960  17.4423980  )
        43           H   tau(  43) = (   4.1956380   7.5337920  15.3469820  )
        44           H   tau(  44) = (   3.6045000   6.3339120  15.5021980  )
        45           H   tau(  45) = (   3.1647510   7.0392960  17.4423980  )
        46           H   tau(  46) = (   3.6045000   8.2464480  17.3841920  )
        47           C   tau(  47) = (   3.6045000   7.0320240  15.7641250  )
        48           N   tau(  48) = (   3.6045000   7.3948968  17.1571886  )
        49           Cl  tau(  49) = (   0.0000000   3.3858432   7.2270510  )
        50           H   tau(  50) = (   4.1956380   3.8977920  13.7560180  )
        51           H   tau(  51) = (   3.1647510   3.4032960  11.6606020  )
        52           H   tau(  52) = (   3.0133620   3.8977920  13.7560180  )
        53           H   tau(  53) = (   3.6045000   2.6979120  13.6008020  )
        54           H   tau(  54) = (   4.0442490   3.4032960  11.6606020  )
        55           H   tau(  55) = (   3.6045000   4.6104480  11.7188080  )
        56           C   tau(  56) = (   3.6045000   3.3960240  13.3388750  )
        57           N   tau(  57) = (   3.6045000   3.7588968  11.9458114  )
        58           Cl  tau(  58) = (   0.0000000   3.8861568  12.1749490  )
        59           Cl  tau(  59) = (   3.6045000   3.3858432  16.9280510  )
        60           H   tau(  60) = (   0.5911380   3.8977920   4.0550180  )
        61           H   tau(  61) = (  -0.4397490   3.4032960   1.9596020  )
        62           H   tau(  62) = (  -0.5911380   3.8977920   4.0550180  )
        63           H   tau(  63) = (   0.0000000   2.6979120   3.8998020  )
        64           H   tau(  64) = (   0.4397490   3.4032960   1.9596020  )
        65           H   tau(  65) = (   0.0000000   4.6104480   2.0178080  )
        66           C   tau(  66) = (   0.0000000   3.3960240   3.6378750  )
        67           N   tau(  67) = (   0.0000000   3.7588968   2.2448114  )
        68           Cl  tau(  68) = (   3.6045000   3.8861568   2.4739490  )
        69           Cl  tau(  69) = (   3.6045000   0.2501568   7.2270510  )
        70           Cl  tau(  70) = (   5.4067500   5.4540000   9.5015474  )
        71           Cl  tau(  71) = (   1.8022500   5.4540000   9.5015474  )
        72           Cl  tau(  72) = (   1.8022500   1.8180000   9.9004526  )
        73           H   tau(  73) = (   0.5911380  -0.2617920  13.7560180  )
        74           H   tau(  74) = (  -0.4397490   0.2327040  11.6606020  )
        75           Mn  tau(  75) = (   0.0000000   3.6360000   9.7010000  )
        76           Mn  tau(  76) = (   3.6045000   0.0000000   9.7010000  )
        77           H   tau(  77) = (  -0.5911380  -0.2617920  13.7560180  )
        78           H   tau(  78) = (   0.0000000   0.9380880  13.6008020  )
        79           H   tau(  79) = (   0.4397490   0.2327040  11.6606020  )
        80           H   tau(  80) = (   0.0000000  -0.9744480  11.7188080  )
        81           C   tau(  81) = (   0.0000000   0.2399760  13.3388750  )
        82           N   tau(  82) = (   0.0000000  -0.1228968  11.9458114  )
        83           Cl  tau(  83) = (   3.6045000   7.0218432  12.1749490  )
        84           Cl  tau(  84) = (   5.4067500   1.8180000   9.9004526  )

     number of k points=     1  Fermi-Dirac smearing, width (Ry)=  0.0037
                       cart. coord. in units 2pi/alat
        k(    1) = (   0.0000000   0.0000000   0.0000000), wk =   2.0000000

     Dense  grid:  1311298 G-vectors     FFT dimensions: ( 125, 125, 360)

     Smooth grid:   463717 G-vectors     FFT dimensions: (  90,  90, 240)

     Largest allocated arrays     est. size (Mb)     dimensions
        Kohn-Sham Wavefunctions         4.83 Mb     (    1809,  175)
        NL pseudopotentials             4.20 Mb     (    1809,  152)
        Each V/rho on FFT grid          2.86 Mb     (  187500)
        Each G-vector array             0.31 Mb     (   40976)
        G-vector shells                 0.16 Mb     (   20492)
     Largest temporary arrays     est. size (Mb)     dimensions
        Auxiliary wavefunctions         9.66 Mb     (    1809,  700)
        Each subspace H/S matrix        3.74 Mb     (     700,  700)
        Each <psi_i|beta_j> matrix      0.20 Mb     (     152,  175)
        Arrays for rho mixing          22.89 Mb     (  187500,    8)

     Initial potential from superposition of free atoms

     starting charge  232.21525, renormalised to  292.00000
     Starting wfc are  308 randomized atomic wfcs

     total cpu time spent up to now is       36.7 secs

     per-process dynamical memory:    61.5 Mb

     Self-consistent Calculation

     iteration #  1     ecut=   100.00 Ry     beta=0.70
     Davidson diagonalization with overlap
     ethr =  1.00E-02,  avg # of iterations =  6.0

     total cpu time spent up to now is       72.2 secs

     total energy              =     201.42833177 Ry
     Harris-Foulkes estimate   =   -1937.12705999 Ry
     estimated scf accuracy    <    2437.99521246 Ry

     iteration #  2     ecut=   100.00 Ry     beta=0.70
     Davidson diagonalization with overlap
     WARNING:     1 eigenvalues not converged in regterg
     c_bands:  1 eigenvalues not converged
     ethr =  1.00E-02,  avg # of iterations = 20.0

     total cpu time spent up to now is      142.2 secs

     total energy              =   -1506.81230210 Ry
     Harris-Foulkes estimate   =   -4432.88692455 Ry
     estimated scf accuracy    <    6698.64465025 Ry

     iteration #  3     ecut=   100.00 Ry     beta=0.70
     Davidson diagonalization with overlap
     ethr =  1.00E-02,  avg # of iterations =  9.0

     total cpu time spent up to now is      194.1 secs

     total energy              =   -1741.85600132 Ry
     Harris-Foulkes estimate   =   -2028.97242881 Ry
     estimated scf accuracy    <    1171.69917077 Ry

     iteration #  4     ecut=   100.00 Ry     beta=0.70
     Davidson diagonalization with overlap
     ethr =  1.00E-02,  avg # of iterations =  5.0

     total cpu time spent up to now is      219.7 secs

     total energy              =   -1671.87233757 Ry
     Harris-Foulkes estimate   =   -1768.73374720 Ry
     estimated scf accuracy    <     640.46568737 Ry

     iteration #  5     ecut=   100.00 Ry     beta=0.70
     Davidson diagonalization with overlap
     ethr =  1.00E-02,  avg # of iterations =  5.0

     total cpu time spent up to now is      246.4 secs

     total energy              =   -1627.45452061 Ry
     Harris-Foulkes estimate   =   -1678.76339766 Ry
     estimated scf accuracy    <     415.80944580 Ry

     iteration #  6     ecut=   100.00 Ry     beta=0.70
     Davidson diagonalization with overlap
     ethr =  1.00E-02,  avg # of iterations =  6.0

     total cpu time spent up to now is      272.5 secs

     total energy              =   -1629.51850274 Ry
     Harris-Foulkes estimate   =   -1656.95056871 Ry
     estimated scf accuracy    <     252.54881947 Ry

     iteration #  7     ecut=   100.00 Ry     beta=0.70
     Davidson diagonalization with overlap
     ethr =  1.00E-02,  avg # of iterations =  5.0

     total cpu time spent up to now is      295.6 secs

     total energy              =   -1637.67393493 Ry
     Harris-Foulkes estimate   =   -1646.89215925 Ry
     estimated scf accuracy    <     136.27725250 Ry

     iteration #  8     ecut=   100.00 Ry     beta=0.70
     Davidson diagonalization with overlap
     ethr =  1.00E-02,  avg # of iterations =  3.0

     total cpu time spent up to now is      314.6 secs

     total energy              =   -1640.03787387 Ry
     Harris-Foulkes estimate   =   -1643.31185493 Ry
     estimated scf accuracy    <      90.65186574 Ry

     iteration #  9     ecut=   100.00 Ry     beta=0.70
     Davidson diagonalization with overlap
     ethr =  1.00E-02,  avg # of iterations =  1.0

     total cpu time spent up to now is      332.5 secs

     total energy              =   -1639.71355972 Ry
     Harris-Foulkes estimate   =   -1641.63976248 Ry
     estimated scf accuracy    <      69.59063888 Ry

     iteration # 10     ecut=   100.00 Ry     beta=0.70
     Davidson diagonalization with overlap
     ethr =  1.00E-02,  avg # of iterations =  1.0

     negative rho (up, down):  2.901E-02 0.000E+00

     total cpu time spent up to now is      351.0 secs

     total energy              =   -1606.90901476 Ry
     Harris-Foulkes estimate   =   -1640.09397871 Ry
     estimated scf accuracy    <      59.96390487 Ry

     iteration # 11     ecut=   100.00 Ry     beta=0.70
     Davidson diagonalization with overlap
     ethr =  1.00E-02,  avg # of iterations =  5.0

     negative rho (up, down):  7.989E-02 0.000E+00

     total cpu time spent up to now is      380.1 secs

     total energy              =   -1610.03331959 Ry
     Harris-Foulkes estimate   =   -1654.20187367 Ry
     estimated scf accuracy    <     232.35178853 Ry

     iteration # 12     ecut=   100.00 Ry     beta=0.70
     Davidson diagonalization with overlap
     ethr =  1.00E-02,  avg # of iterations =  5.0

     negative rho (up, down):  1.235E-01 0.000E+00

     total cpu time spent up to now is      404.9 secs

     total energy              =   -1619.16256800 Ry
     Harris-Foulkes estimate   =   -1640.45381536 Ry
     estimated scf accuracy    <     158.97823858 Ry

     iteration # 13     ecut=   100.00 Ry     beta=0.70
     Davidson diagonalization with overlap
     ethr =  1.00E-02,  avg # of iterations =  5.0

     negative rho (up, down):  1.354E-01 0.000E+00

     total cpu time spent up to now is      430.1 secs

     total energy              =   -1628.32578504 Ry
     Harris-Foulkes estimate   =   -1630.14290452 Ry
     estimated scf accuracy    <      27.32393945 Ry

     iteration # 14     ecut=   100.00 Ry     beta=0.70
     Davidson diagonalization with overlap
     ethr =  9.36E-03,  avg # of iterations =  2.0

     total cpu time spent up to now is      451.6 secs

     total energy              =   -1624.48458280 Ry
     Harris-Foulkes estimate   =   -1630.57074692 Ry
     estimated scf accuracy    <      34.85159457 Ry

     iteration # 15     ecut=   100.00 Ry     beta=0.70
     Davidson diagonalization with overlap
     ethr =  9.36E-03,  avg # of iterations =  3.0

     total cpu time spent up to now is      475.6 secs

     total energy              =   -1624.41379057 Ry
     Harris-Foulkes estimate   =   -1635.39384630 Ry
     estimated scf accuracy    <      82.07110359 Ry

     iteration # 16     ecut=   100.00 Ry     beta=0.70
     Davidson diagonalization with overlap
     ethr =  9.36E-03,  avg # of iterations =  3.0

     total cpu time spent up to now is      495.9 secs

     total energy              =   -1623.21650746 Ry
     Harris-Foulkes estimate   =   -1629.92700028 Ry
     estimated scf accuracy    <      50.46649521 Ry

     iteration # 17     ecut=   100.00 Ry     beta=0.70
     Davidson diagonalization with overlap
     ethr =  9.36E-03,  avg # of iterations =  2.0

     total cpu time spent up to now is      516.0 secs

     total energy              =   -1626.54579028 Ry
     Harris-Foulkes estimate   =   -1631.21885087 Ry
     estimated scf accuracy    <      97.70057892 Ry

     iteration # 18     ecut=   100.00 Ry     beta=0.70
     Davidson diagonalization with overlap
     ethr =  9.36E-03,  avg # of iterations =  2.0

     total cpu time spent up to now is      536.2 secs

     total energy              =   -1627.77016657 Ry
     Harris-Foulkes estimate   =   -1628.75701202 Ry
     estimated scf accuracy    <      32.20734255 Ry

     iteration # 19     ecut=   100.00 Ry     beta=0.70
     Davidson diagonalization with overlap
     ethr =  9.36E-03,  avg # of iterations =  1.0

     total cpu time spent up to now is      554.4 secs

     total energy              =   -1627.31680190 Ry
     Harris-Foulkes estimate   =   -1628.12047667 Ry
     estimated scf accuracy    <      25.88314143 Ry

     iteration # 20     ecut=   100.00 Ry     beta=0.70
     Davidson diagonalization with overlap
     ethr =  8.86E-03,  avg # of iterations =  1.0

     negative rho (up, down):  1.427E-03 0.000E+00

     total cpu time spent up to now is      573.1 secs

     total energy              =   -1627.42962067 Ry
     Harris-Foulkes estimate   =   -1627.71433532 Ry
     estimated scf accuracy    <       6.87327860 Ry

     iteration # 21     ecut=   100.00 Ry     beta=0.70
     Davidson diagonalization with overlap
     ethr =  2.35E-03,  avg # of iterations =  1.0

     total cpu time spent up to now is      591.9 secs

     total energy              =   -1627.20549170 Ry
     Harris-Foulkes estimate   =   -1627.95477663 Ry
     estimated scf accuracy    <      22.47705584 Ry

     iteration # 22     ecut=   100.00 Ry     beta=0.70
     Davidson diagonalization with overlap
     ethr =  2.35E-03,  avg # of iterations =  6.0

     total cpu time spent up to now is      619.1 secs

     total energy              =   -1627.35676407 Ry
     Harris-Foulkes estimate   =   -1627.74616265 Ry
     estimated scf accuracy    <      12.52327023 Ry

     iteration # 23     ecut=   100.00 Ry     beta=0.70
     Davidson diagonalization with overlap
     ethr =  2.35E-03,  avg # of iterations =  1.0

     total cpu time spent up to now is      636.9 secs

     total energy              =   -1627.51583686 Ry
     Harris-Foulkes estimate   =   -1627.59992679 Ry
     estimated scf accuracy    <       4.54695633 Ry

     iteration # 24     ecut=   100.00 Ry     beta=0.70
     Davidson diagonalization with overlap
     ethr =  1.56E-03,  avg # of iterations =  1.0

     total cpu time spent up to now is      655.2 secs

     total energy              =   -1627.56163772 Ry
     Harris-Foulkes estimate   =   -1627.60276340 Ry
     estimated scf accuracy    <       4.35832421 Ry

     iteration # 25     ecut=   100.00 Ry     beta=0.70
     Davidson diagonalization with overlap
     ethr =  1.49E-03,  avg # of iterations =  1.0

     total cpu time spent up to now is      674.2 secs

     total energy              =   -1627.53420667 Ry
     Harris-Foulkes estimate   =   -1627.57880023 Ry
     estimated scf accuracy    <       0.54977180 Ry

     iteration # 26     ecut=   100.00 Ry     beta=0.70
     Davidson diagonalization with overlap
     ethr =  1.88E-04,  avg # of iterations =  8.0

     total cpu time spent up to now is      697.0 secs

     total energy              =   -1627.54124883 Ry
     Harris-Foulkes estimate   =   -1627.58952296 Ry
     estimated scf accuracy    <       1.30902711 Ry

     iteration # 27     ecut=   100.00 Ry     beta=0.70
     Davidson diagonalization with overlap
     ethr =  1.88E-04,  avg # of iterations =  3.0

     total cpu time spent up to now is      718.7 secs

     total energy              =   -1627.56449859 Ry
     Harris-Foulkes estimate   =   -1627.56747587 Ry
     estimated scf accuracy    <       0.17634633 Ry

     iteration # 28     ecut=   100.00 Ry     beta=0.70
     Davidson diagonalization with overlap
     ethr =  6.04E-05,  avg # of iterations =  7.0

     total cpu time spent up to now is      746.7 secs

     total energy              =   -1627.56564384 Ry
     Harris-Foulkes estimate   =   -1627.56666277 Ry
     estimated scf accuracy    <       0.05628725 Ry

     iteration # 29     ecut=   100.00 Ry     beta=0.70
     Davidson diagonalization with overlap
     ethr =  1.93E-05,  avg # of iterations =  4.0

     total cpu time spent up to now is      767.5 secs

     total energy              =   -1627.56576757 Ry
     Harris-Foulkes estimate   =   -1627.56666110 Ry
     estimated scf accuracy    <       0.04976513 Ry

     iteration # 30     ecut=   100.00 Ry     beta=0.70
     Davidson diagonalization with overlap
     ethr =  1.70E-05,  avg # of iterations =  1.0

     total cpu time spent up to now is      785.2 secs

     total energy              =   -1627.56619788 Ry
     Harris-Foulkes estimate   =   -1627.56631236 Ry
     estimated scf accuracy    <       0.00212663 Ry

     iteration # 31     ecut=   100.00 Ry     beta=0.70
     Davidson diagonalization with overlap
     ethr =  7.28E-07,  avg # of iterations =  7.0

     total cpu time spent up to now is      808.0 secs

     total energy              =   -1627.56624892 Ry
     Harris-Foulkes estimate   =   -1627.56628876 Ry
     estimated scf accuracy    <       0.00228973 Ry

     iteration # 32     ecut=   100.00 Ry     beta=0.70
     Davidson diagonalization with overlap
     ethr =  7.28E-07,  avg # of iterations =  1.0

     total cpu time spent up to now is      825.3 secs

     total energy              =   -1627.56624051 Ry
     Harris-Foulkes estimate   =   -1627.56628201 Ry
     estimated scf accuracy    <       0.00189366 Ry

     iteration # 33     ecut=   100.00 Ry     beta=0.70
     Davidson diagonalization with overlap
     ethr =  6.49E-07,  avg # of iterations =  1.0

     total cpu time spent up to now is      843.2 secs

     total energy              =   -1627.56624915 Ry
     Harris-Foulkes estimate   =   -1627.56629104 Ry
     estimated scf accuracy    <       0.00335394 Ry

     iteration # 34     ecut=   100.00 Ry     beta=0.70
     Davidson diagonalization with overlap
     ethr =  6.49E-07,  avg # of iterations =  1.0

     total cpu time spent up to now is      861.3 secs

     total energy              =   -1627.56626751 Ry
     Harris-Foulkes estimate   =   -1627.56627413 Ry
     estimated scf accuracy    <       0.00031596 Ry

     iteration # 35     ecut=   100.00 Ry     beta=0.70
     Davidson diagonalization with overlap
     ethr =  1.08E-07,  avg # of iterations =  1.0

     total cpu time spent up to now is      882.6 secs

     total energy              =   -1627.56626879 Ry
     Harris-Foulkes estimate   =   -1627.56627289 Ry
     estimated scf accuracy    <       0.00032094 Ry

     iteration # 36     ecut=   100.00 Ry     beta=0.70
     Davidson diagonalization with overlap
     ethr =  1.08E-07,  avg # of iterations =  1.0

     total cpu time spent up to now is      900.8 secs

     total energy              =   -1627.56627070 Ry
     Harris-Foulkes estimate   =   -1627.56627181 Ry
     estimated scf accuracy    <       0.00003235 Ry

     iteration # 37     ecut=   100.00 Ry     beta=0.70
     Davidson diagonalization with overlap
     ethr =  1.11E-08,  avg # of iterations =  1.0

     total cpu time spent up to now is      919.4 secs

     total energy              =   -1627.56627111 Ry
     Harris-Foulkes estimate   =   -1627.56627159 Ry
     estimated scf accuracy    <       0.00002127 Ry

     iteration # 38     ecut=   100.00 Ry     beta=0.70
     Davidson diagonalization with overlap
     ethr =  7.29E-09,  avg # of iterations =  1.0

     total cpu time spent up to now is      937.3 secs

     total energy              =   -1627.56627134 Ry
     Harris-Foulkes estimate   =   -1627.56627143 Ry
     estimated scf accuracy    <       0.00000468 Ry

     iteration # 39     ecut=   100.00 Ry     beta=0.70
     Davidson diagonalization with overlap
     ethr =  1.60E-09,  avg # of iterations =  1.0

     total cpu time spent up to now is      956.4 secs

     total energy              =   -1627.56627140 Ry
     Harris-Foulkes estimate   =   -1627.56627142 Ry
     estimated scf accuracy    <       0.00000052 Ry

     iteration # 40     ecut=   100.00 Ry     beta=0.70
     Davidson diagonalization with overlap
     ethr =  1.79E-10,  avg # of iterations =  3.0

     total cpu time spent up to now is      976.2 secs

     total energy              =   -1627.56627141 Ry
     Harris-Foulkes estimate   =   -1627.56627144 Ry
     estimated scf accuracy    <       0.00000078 Ry

     iteration # 41     ecut=   100.00 Ry     beta=0.70
     Davidson diagonalization with overlap
     ethr =  1.79E-10,  avg # of iterations =  1.0

     total cpu time spent up to now is      994.9 secs

     total energy              =   -1627.56627142 Ry
     Harris-Foulkes estimate   =   -1627.56627144 Ry
     estimated scf accuracy    <       0.00000134 Ry

     iteration # 42     ecut=   100.00 Ry     beta=0.70
     Davidson diagonalization with overlap
     ethr =  1.79E-10,  avg # of iterations =  1.0

     total cpu time spent up to now is     1012.7 secs

     total energy              =   -1627.56627142 Ry
     Harris-Foulkes estimate   =   -1627.56627144 Ry
     estimated scf accuracy    <       0.00000036 Ry

     iteration # 43     ecut=   100.00 Ry     beta=0.70
     Davidson diagonalization with overlap
     ethr =  1.25E-10,  avg # of iterations =  1.0

     total cpu time spent up to now is     1036.6 secs

     total energy              =   -1627.56627143 Ry
     Harris-Foulkes estimate   =   -1627.56627143 Ry
     estimated scf accuracy    <       0.00000020 Ry

     iteration # 44     ecut=   100.00 Ry     beta=0.70
     Davidson diagonalization with overlap
     ethr =  7.02E-11,  avg # of iterations =  1.0

     total cpu time spent up to now is     1054.2 secs

     End of self-consistent calculation

          k = 0.0000 0.0000 0.0000 ( 57969 PWs)   bands (ev):

   -75.9777 -75.9777 -75.9777 -75.9777 -44.8641 -44.8640 -44.8640 -44.8640
   -44.7417 -44.7417 -44.7416 -44.7416 -44.7029 -44.7028 -44.7027 -44.7027
   -23.5840 -23.5837 -23.5818 -23.5817 -23.5812 -23.5809 -23.5793 -23.5793
   -14.6158 -14.6131 -14.5664 -14.5648 -14.5632 -14.5616 -14.5387 -14.5356
   -12.6742 -12.6725 -12.3678 -12.3666 -12.3204 -12.3204 -12.1479 -12.1479
   -11.9738 -11.9572 -11.9540 -11.9318 -11.9268 -11.9086 -11.9065 -11.8795
   -11.3569 -11.3569 -11.3530 -11.3422 -11.3404 -11.3341 -11.3046 -11.2869
   -10.5680 -10.5636 -10.5615 -10.5585 -10.5556 -10.5526 -10.5343 -10.5299
    -8.0473  -8.0447  -8.0376  -8.0360  -8.0194  -8.0180  -8.0097  -8.0096
    -6.8401  -6.8383  -6.8247  -6.8245  -6.7219  -6.7200  -6.6940  -6.6937
    -3.9387  -3.9378  -3.8341  -3.8300  -3.6220  -3.6205  -3.6148  -3.6098
    -2.9323  -2.9318  -1.7759  -1.7749  -1.6818  -1.6799  -1.5946  -1.5936
    -1.3053  -1.2811  -1.2477  -1.2397  -1.2397  -1.2331  -1.1285  -1.1240
    -1.0992  -1.0970  -0.8386  -0.8360  -0.6212  -0.6197  -0.2323  -0.2290
    -0.2227  -0.2181  -0.1979  -0.1875  -0.0954  -0.0951  -0.0932  -0.0846
    -0.0502  -0.0362   0.0321   0.0376   0.0895   0.0921   0.2466   0.2520
     0.3613   0.3702   0.4377   0.4448   0.4838   0.4844   0.5487   0.5637
     2.5111   2.5113   2.7150   2.7170   2.7253   2.7272   2.8302   2.8303
     2.9467   2.9484   2.9776   2.9784   3.1436   3.1439   3.2674   3.2772
     4.0954   4.0972   4.5761   4.5761   5.4419   5.9226   5.9399   6.8080
     7.0680   7.1392   7.1999   7.3748   7.6200   7.6393   7.6908   7.7640
     7.7686   8.0331   8.1017   8.1096   8.2204   8.2295   8.2469

     the Fermi energy is     2.9673 ev

!    total energy              =   -1627.56627135 Ry
     Harris-Foulkes estimate   =   -1627.56627143 Ry
     estimated scf accuracy    <       0.00000008 Ry

     The total energy is the sum of the following terms:

     one-electron contribution =   -1557.85258138 Ry
     hartree contribution      =     853.15617120 Ry
     xc contribution           =    -302.64902106 Ry
     ewald contribution        =    -620.19405166 Ry
     smearing contrib. (-TS)   =      -0.02678845 Ry

     convergence has been achieved in  44 iterations

     Forces acting on atoms (Ry/au):

     atom    1 type  1   force =    -0.00000499   -0.00000488    0.00598635
     atom    2 type  1   force =     0.00000000    0.00018899   -0.02178476
     atom    3 type  5   force =     0.00000000   -2.11363287    2.08517779
     atom    4 type  2   force =     0.00000000   -0.76444746   -0.64946755
     atom    5 type  4   force =     0.00000000   -0.35551286   -0.07638175
     atom    6 type  4   force =     1.85148738    1.25878994   -1.05235915
     atom    7 type  4   force =    -0.00000000    1.16659118    0.35788065
     atom    8 type  4   force =    -0.39903508   -0.22518134    0.18971969
     atom    9 type  3   force =     0.00000000    0.00000000    0.00000000
     atom   10 type  3   force =     0.00000000    0.00000000    0.00000000
     atom   11 type  4   force =    -1.85148738    1.25878994   -1.05235915
     atom   12 type  4   force =     0.39903508   -0.22518134    0.18971969
     atom   13 type  1   force =     0.00000499   -0.00000488    0.00598635
     atom   14 type  1   force =     0.00000499    0.00000488   -0.00598635
     atom   15 type  1   force =    -0.00000499    0.00000488   -0.00598635
     atom   16 type  1   force =     0.00000000   -0.00018899    0.02178476
     atom   17 type  4   force =    -0.39903475   -0.22518097   -0.18969062
     atom   18 type  4   force =     1.85148992    1.25879163    1.05238334
     atom   19 type  4   force =     0.39903475   -0.22518097   -0.18969062
     atom   20 type  4   force =     0.00000000    1.16658859   -0.35785150
     atom   21 type  4   force =    -1.85148992    1.25879163    1.05238334
     atom   22 type  4   force =     0.00000000   -0.35551561    0.07640582
     atom   23 type  2   force =     0.00000000   -0.76443779    0.64946629
     atom   24 type  5   force =     0.00000000   -2.11356455   -2.08518142
     atom   25 type  4   force =    -0.39903469   -0.22518173   -0.18972061
     atom   26 type  4   force =     1.85148975    1.25879559    1.05236222
     atom   27 type  4   force =     0.39903469   -0.22518173   -0.18972061
     atom   28 type  4   force =     0.00000000    1.16658907   -0.35787912
     atom   29 type  4   force =    -1.85148975    1.25879559    1.05236222
     atom   30 type  4   force =     0.00000000   -0.35551631    0.07638258
     atom   31 type  2   force =     0.00000000   -0.76444939    0.64946562
     atom   32 type  5   force =     0.00000000   -2.11361454   -2.08520330
     atom   33 type  4   force =    -0.39903483    0.22518171   -0.18969138
     atom   34 type  4   force =     1.85149238   -1.25879623    1.05238593
     atom   35 type  4   force =     0.39903483    0.22518171   -0.18969138
     atom   36 type  4   force =     0.00000000   -1.16659377   -0.35785340
     atom   37 type  4   force =    -1.85149238   -1.25879623    1.05238593
     atom   38 type  4   force =     0.00000000    0.35551928    0.07640604
     atom   39 type  2   force =     0.00000000    0.76441405    0.64946085
     atom   40 type  5   force =     0.00000000    2.11356231   -2.08520921
     atom   41 type  4   force =    -0.39903508    0.22518134   -0.18971969
     atom   42 type  4   force =     1.85148738   -1.25878994    1.05235915
     atom   43 type  4   force =     0.39903508    0.22518134   -0.18971969
     atom   44 type  4   force =    -0.00000000   -1.16659118   -0.35788065
     atom   45 type  4   force =    -1.85148738   -1.25878994    1.05235915
     atom   46 type  4   force =     0.00000000    0.35551286    0.07638175
     atom   47 type  2   force =     0.00000000    0.76444746    0.64946755
     atom   48 type  5   force =     0.00000000    2.11363287   -2.08517779
     atom   49 type  1   force =     0.00000000    0.00018511    0.02180424
     atom   50 type  4   force =     0.39903475    0.22518097    0.18969062
     atom   51 type  4   force =    -1.85148992   -1.25879163   -1.05238334
     atom   52 type  4   force =    -0.39903475    0.22518097    0.18969062
     atom   53 type  4   force =     0.00000000   -1.16658859    0.35785150
     atom   54 type  4   force =     1.85148992   -1.25879163   -1.05238334
     atom   55 type  4   force =     0.00000000    0.35551561   -0.07640582
     atom   56 type  2   force =     0.00000000    0.76443779   -0.64946629
     atom   57 type  5   force =     0.00000000    2.11356455    2.08518142
     atom   58 type  1   force =     0.00000000   -0.00018511   -0.02180424
     atom   59 type  1   force =     0.00000000    0.00019107    0.02177949
     atom   60 type  4   force =     0.39903469    0.22518173    0.18972061
     atom   61 type  4   force =    -1.85148975   -1.25879559   -1.05236222
     atom   62 type  4   force =    -0.39903469    0.22518173    0.18972061
     atom   63 type  4   force =     0.00000000   -1.16658907    0.35787912
     atom   64 type  4   force =     1.85148975   -1.25879559   -1.05236222
     atom   65 type  4   force =     0.00000000    0.35551631   -0.07638258
     atom   66 type  2   force =     0.00000000    0.76444939   -0.64946562
     atom   67 type  5   force =     0.00000000    2.11361454    2.08520330
     atom   68 type  1   force =     0.00000000   -0.00019107   -0.02177949
     atom   69 type  1   force =     0.00000000   -0.00018365    0.02180387
     atom   70 type  1   force =     0.00000429   -0.00000654   -0.00598085
     atom   71 type  1   force =    -0.00000429   -0.00000654   -0.00598085
     atom   72 type  1   force =    -0.00000429    0.00000654    0.00598085
     atom   73 type  4   force =     0.39903483   -0.22518171    0.18969138
     atom   74 type  4   force =    -1.85149238    1.25879623   -1.05238593
     atom   75 type  3   force =     0.00000000    0.00000000    0.00000000
     atom   76 type  3   force =     0.00000000    0.00000000    0.00000000
     atom   77 type  4   force =    -0.39903483   -0.22518171    0.18969138
     atom   78 type  4   force =    -0.00000000    1.16659377    0.35785340
     atom   79 type  4   force =     1.85149238    1.25879623   -1.05238593
     atom   80 type  4   force =     0.00000000   -0.35551928   -0.07640604
     atom   81 type  2   force =     0.00000000   -0.76441405   -0.64946085
     atom   82 type  5   force =     0.00000000   -2.11356231    2.08520921
     atom   83 type  1   force =     0.00000000    0.00018365   -0.02180387
     atom   84 type  1   force =     0.00000429    0.00000654    0.00598085

     Total force =    13.906888     Total SCF correction =     0.000506


     entering subroutine stress ...

          total   stress  (Ry/bohr**3)                   (kbar)     P=  548.48
   0.00447700   0.00000000   0.00000000        658.59      0.00      0.00
   0.00000000   0.00470900   0.00000000          0.00    692.72      0.00
   0.00000000   0.00000000   0.00199938          0.00      0.00    294.12


     BFGS Geometry Optimization

     number of scf cycles    =   1
     number of bfgs steps    =   0

     energy   new            =   -1627.5662713523 Ry

     new trust radius        =       0.5000000000 bohr
     new conv_thr            =       0.0000001000 Ry


ATOMIC_POSITIONS (crystal)
Cl       0.249999938   0.249999940   0.010307496
Cl       0.000000000   0.965602316   0.127409941
N        0.500000000  -0.042801497   0.125277359
C        0.500000000   0.023632085   0.184516953
H        0.500000000  -0.138356630   0.103649174
H        0.583887319   0.047425831   0.096166445
H        0.500000000   0.143295982   0.202643769
H        0.413067294  -0.038759483   0.209871395
Mn       0.000000000   0.000000000   0.000000000
Mn       0.500000000   0.500000000   0.000000000
H        0.416112681   0.047425831   0.096166445
H        0.586932706  -0.038759483   0.209871395
Cl       0.750000062   0.249999940   0.010307496
Cl       0.750000062   0.750000060   0.989692504
Cl       0.249999938   0.750000060   0.989692504
Cl       0.000000000   0.034397684   0.872590059
H        0.413067298   0.461240522   0.290128738
H        0.583887350   0.547425852   0.403833666
H        0.586932702   0.461240522   0.290128738
H        0.500000000   0.643295951   0.297356364
H        0.416112650   0.547425852   0.403833666
H        0.500000000   0.361643337   0.396350937
C        0.500000000   0.523632203   0.315483042
N        0.500000000   0.457199340   0.374722624
H       -0.086932701   0.461240512   0.790128601
H        0.083887348   0.547425901   0.903833569
H        0.086932701   0.461240512   0.790128601
H        0.000000000   0.643295957   0.797356238
H       -0.083887348   0.547425901   0.903833569
H        0.000000000   0.361643328   0.896350830
C        0.000000000   0.523632061   0.815483038
N        0.000000000   0.457198727   0.874722524
H       -0.086932703   1.038759488   0.290128735
H        0.083887381   0.952574091   0.403833678
H        0.086932703   1.038759488   0.290128735
H        0.000000000   0.856703986   0.297356356
H       -0.083887381   0.952574091   0.403833678
H        0.000000000   1.138356708   0.396350938
C        0.000000000   0.976367506   0.315483017
N        0.000000000   1.042800633   0.374722496
H        0.413067294   1.038759483   0.790128605
H        0.583887319   0.952574169   0.903833555
H        0.586932706   1.038759483   0.790128605
H        0.500000000   0.856704018   0.797356231
H        0.416112681   0.952574169   0.903833555
H        0.500000000   1.138356630   0.896350826
C        0.500000000   0.976367915   0.815483047
N        0.500000000   1.042801497   0.874722641
Cl       0.000000000   0.465602268   0.372590148
H        0.586932702   0.538759478   0.709871262
H        0.416112650   0.452574148   0.596166334
H        0.413067298   0.538759478   0.709871262
H        0.500000000   0.356704049   0.702643636
H        0.583887350   0.452574148   0.596166334
H        0.500000000   0.638356663   0.603649063
C        0.500000000   0.476367797   0.684516958
N        0.500000000   0.542800660   0.625277376
Cl       0.000000000   0.534397732   0.627409852
Cl       0.500000000   0.465602342   0.872590035
H        0.086932701   0.538759488   0.209871399
H       -0.083887348   0.452574099   0.096166431
H       -0.086932701   0.538759488   0.209871399
H        0.000000000   0.356704043   0.202643762
H        0.083887348   0.452574099   0.096166431
H        0.000000000   0.638356672   0.103649170
C        0.000000000   0.476367939   0.184516962
N        0.000000000   0.542801273   0.125277476
Cl       0.500000000   0.534397658   0.127409965
Cl       0.500000000   0.034397750   0.372590147
Cl       0.750000053   0.749999920   0.489692530
Cl       0.249999947   0.749999920   0.489692530
Cl       0.249999947   0.250000080   0.510307470
H        0.086932703  -0.038759488   0.709871265
H       -0.083887381   0.047425909   0.596166322
Mn       0.000000000   0.500000000   0.500000000
Mn       0.500000000   0.000000000   0.500000000
H       -0.086932703  -0.038759488   0.709871265
H       -0.000000000   0.143296014   0.702643644
H        0.083887381   0.047425909   0.596166322
H        0.000000000  -0.138356708   0.603649062
C        0.000000000   0.023632494   0.684516983
N        0.000000000  -0.042800633   0.625277504
Cl       0.500000000   0.965602250   0.627409853
Cl       0.750000053   0.250000080   0.510307470



     Writing output data file ecut100-relax.save
     NEW-OLD atomic charge density approx. for the potential

     total cpu time spent up to now is     1129.4 secs

     per-process dynamical memory:    86.5 Mb

     Self-consistent Calculation

     iteration #  1     ecut=   100.00 Ry     beta=0.70
     Davidson diagonalization with overlap
     ethr =  1.00E-06,  avg # of iterations = 14.0

     total cpu time spent up to now is     1180.1 secs

     total energy              =   -1634.98159379 Ry
     Harris-Foulkes estimate   =   -1640.72059387 Ry
     estimated scf accuracy    <       8.75426056 Ry

     iteration #  2     ecut=   100.00 Ry     beta=0.70
     Davidson diagonalization with overlap
     ethr =  3.00E-03,  avg # of iterations =  3.0

     total cpu time spent up to now is     1204.7 secs

     total energy              =   -1627.76301331 Ry
     Harris-Foulkes estimate   =   -1638.32683825 Ry
     estimated scf accuracy    <      38.37083740 Ry

     iteration #  3     ecut=   100.00 Ry     beta=0.70
     Davidson diagonalization with overlap
     ethr =  3.00E-03,  avg # of iterations =  6.0

     total cpu time spent up to now is     1233.5 secs

     total energy              =   -1617.17295595 Ry
     Harris-Foulkes estimate   =   -1660.40425507 Ry
     estimated scf accuracy    <     737.92588801 Ry

     iteration #  4     ecut=   100.00 Ry     beta=0.70
     Davidson diagonalization with overlap
     ethr =  3.00E-03,  avg # of iterations =  8.0

     total cpu time spent up to now is     1260.5 secs

     total energy              =   -1637.03532706 Ry
     Harris-Foulkes estimate   =   -1644.48219618 Ry
     estimated scf accuracy    <      75.81554710 Ry

     iteration #  5     ecut=   100.00 Ry     beta=0.70
     Davidson diagonalization with overlap
     ethr =  3.00E-03,  avg # of iterations =  4.0

     total cpu time spent up to now is     1283.9 secs

     total energy              =   -1637.30949561 Ry
     Harris-Foulkes estimate   =   -1638.49916951 Ry
     estimated scf accuracy    <      44.94095702 Ry

     iteration #  6     ecut=   100.00 Ry     beta=0.70
     Davidson diagonalization with overlap
     ethr =  3.00E-03,  avg # of iterations =  2.0

     total cpu time spent up to now is     1303.4 secs

     total energy              =   -1636.63963052 Ry
     Harris-Foulkes estimate   =   -1639.00709576 Ry
     estimated scf accuracy    <      46.75909626 Ry

     iteration #  7     ecut=   100.00 Ry     beta=0.70
     Davidson diagonalization with overlap
     ethr =  3.00E-03,  avg # of iterations =  2.0

     total cpu time spent up to now is     1321.7 secs

     total energy              =   -1636.58821044 Ry
     Harris-Foulkes estimate   =   -1638.82520477 Ry
     estimated scf accuracy    <      50.27741048 Ry

     iteration #  8     ecut=   100.00 Ry     beta=0.70
     Davidson diagonalization with overlap
     ethr =  3.00E-03,  avg # of iterations =  2.0

     total cpu time spent up to now is     1341.2 secs

     total energy              =   -1637.02916511 Ry
     Harris-Foulkes estimate   =   -1637.41556614 Ry
     estimated scf accuracy    <       6.31943067 Ry

     iteration #  9     ecut=   100.00 Ry     beta=0.70
     Davidson diagonalization with overlap
     ethr =  2.16E-03,  avg # of iterations =  1.0

     total cpu time spent up to now is     1360.1 secs

     total energy              =   -1637.10856124 Ry
     Harris-Foulkes estimate   =   -1637.45476029 Ry
     estimated scf accuracy    <      16.58475680 Ry

     iteration # 10     ecut=   100.00 Ry     beta=0.70
     Davidson diagonalization with overlap
     ethr =  2.16E-03,  avg # of iterations =  1.0

     total cpu time spent up to now is     1379.0 secs

     total energy              =   -1637.24778765 Ry
     Harris-Foulkes estimate   =   -1637.33236842 Ry
     estimated scf accuracy    <       7.27596734 Ry

     iteration # 11     ecut=   100.00 Ry     beta=0.70
     Davidson diagonalization with overlap
     ethr =  2.16E-03,  avg # of iterations =  1.0

     total cpu time spent up to now is     1398.2 secs

     total energy              =   -1637.24135227 Ry
     Harris-Foulkes estimate   =   -1637.30594058 Ry
     estimated scf accuracy    <       3.52055126 Ry

     iteration # 12     ecut=   100.00 Ry     beta=0.70
     Davidson diagonalization with overlap
     ethr =  1.21E-03,  avg # of iterations =  1.0

     total cpu time spent up to now is     1417.8 secs

     total energy              =   -1637.21957066 Ry
     Harris-Foulkes estimate   =   -1637.39751885 Ry
     estimated scf accuracy    <      17.02262951 Ry

     iteration # 13     ecut=   100.00 Ry     beta=0.70
     Davidson diagonalization with overlap
     ethr =  1.21E-03,  avg # of iterations =  1.0

     total cpu time spent up to now is     1435.3 secs

     total energy              =   -1637.30130223 Ry
     Harris-Foulkes estimate   =   -1637.30685071 Ry
     estimated scf accuracy    <       2.99722219 Ry

     iteration # 14     ecut=   100.00 Ry     beta=0.70
     Davidson diagonalization with overlap
     ethr =  1.03E-03,  avg # of iterations =  4.0

     total cpu time spent up to now is     1455.8 secs

     total energy              =   -1637.29686645 Ry
     Harris-Foulkes estimate   =   -1637.30495882 Ry
     estimated scf accuracy    <       2.23088722 Ry

     iteration # 15     ecut=   100.00 Ry     beta=0.70
     Davidson diagonalization with overlap
     ethr =  7.64E-04,  avg # of iterations =  1.0

     total cpu time spent up to now is     1474.2 secs

     total energy              =   -1637.29343891 Ry
     Harris-Foulkes estimate   =   -1637.29902923 Ry
     estimated scf accuracy    <       0.93465225 Ry

     iteration # 16     ecut=   100.00 Ry     beta=0.70
     Davidson diagonalization with overlap
     ethr =  3.20E-04,  avg # of iterations =  5.0

     total cpu time spent up to now is     1494.3 secs

     total energy              =   -1637.29358702 Ry
     Harris-Foulkes estimate   =   -1637.29508791 Ry
     estimated scf accuracy    <       0.31309585 Ry

     iteration # 17     ecut=   100.00 Ry     beta=0.70
     Davidson diagonalization with overlap
     ethr =  1.07E-04,  avg # of iterations =  2.0

     total cpu time spent up to now is     1514.2 secs

     total energy              =   -1637.29326746 Ry
     Harris-Foulkes estimate   =   -1637.29407106 Ry
     estimated scf accuracy    <       0.14309759 Ry

     iteration # 18     ecut=   100.00 Ry     beta=0.70
     Davidson diagonalization with overlap
     ethr =  4.90E-05,  avg # of iterations =  1.0

     total cpu time spent up to now is     1534.6 secs

     total energy              =   -1637.29296139 Ry
     Harris-Foulkes estimate   =   -1637.29365049 Ry
     estimated scf accuracy    <       0.08818877 Ry

     iteration # 19     ecut=   100.00 Ry     beta=0.70
     Davidson diagonalization with overlap
     ethr =  3.02E-05,  avg # of iterations =  1.0

     total cpu time spent up to now is     1552.4 secs

     total energy              =   -1637.29293939 Ry
     Harris-Foulkes estimate   =   -1637.29339505 Ry
     estimated scf accuracy    <       0.04392760 Ry

     iteration # 20     ecut=   100.00 Ry     beta=0.70
     Davidson diagonalization with overlap
     ethr =  1.50E-05,  avg # of iterations = 15.0

     total cpu time spent up to now is     1582.8 secs

     total energy              =   -1637.29305864 Ry
     Harris-Foulkes estimate   =   -1637.29322785 Ry
     estimated scf accuracy    <       0.01699933 Ry

     iteration # 21     ecut=   100.00 Ry     beta=0.70
     Davidson diagonalization with overlap
     ethr =  5.82E-06,  avg # of iterations =  1.0

     total cpu time spent up to now is     1602.6 secs

     total energy              =   -1637.29312896 Ry
     Harris-Foulkes estimate   =   -1637.29318157 Ry
     estimated scf accuracy    <       0.00033326 Ry

     iteration # 22     ecut=   100.00 Ry     beta=0.70
     Davidson diagonalization with overlap
     ethr =  1.14E-07,  avg # of iterations =  2.0

     total cpu time spent up to now is     1622.8 secs

     total energy              =   -1637.29312772 Ry
     Harris-Foulkes estimate   =   -1637.29318783 Ry
     estimated scf accuracy    <       0.00231924 Ry

     iteration # 23     ecut=   100.00 Ry     beta=0.70
     Davidson diagonalization with overlap
     ethr =  1.14E-07,  avg # of iterations =  2.0

     total cpu time spent up to now is     1642.4 secs

     total energy              =   -1637.29315126 Ry
     Harris-Foulkes estimate   =   -1637.29317288 Ry
     estimated scf accuracy    <       0.00044908 Ry

     iteration # 24     ecut=   100.00 Ry     beta=0.70
     Davidson diagonalization with overlap
     ethr =  1.14E-07,  avg # of iterations =  1.0

     total cpu time spent up to now is     1660.7 secs

     total energy              =   -1637.29316133 Ry
     Harris-Foulkes estimate   =   -1637.29316250 Ry
     estimated scf accuracy    <       0.00001573 Ry

     iteration # 25     ecut=   100.00 Ry     beta=0.70
     Davidson diagonalization with overlap
     ethr =  5.39E-09,  avg # of iterations =  3.0

     total cpu time spent up to now is     1681.5 secs

     total energy              =   -1637.29316175 Ry
     Harris-Foulkes estimate   =   -1637.29316313 Ry
     estimated scf accuracy    <       0.00009412 Ry

     iteration # 26     ecut=   100.00 Ry     beta=0.70
     Davidson diagonalization with overlap
     ethr =  5.39E-09,  avg # of iterations =  1.0

     total cpu time spent up to now is     1700.8 secs

     total energy              =   -1637.29316233 Ry
     Harris-Foulkes estimate   =   -1637.29316255 Ry
     estimated scf accuracy    <       0.00000281 Ry

     iteration # 27     ecut=   100.00 Ry     beta=0.70
     Davidson diagonalization with overlap
     ethr =  9.64E-10,  avg # of iterations =  1.0

     total cpu time spent up to now is     1719.4 secs

     total energy              =   -1637.29316233 Ry
     Harris-Foulkes estimate   =   -1637.29316253 Ry
     estimated scf accuracy    <       0.00001641 Ry

     iteration # 28     ecut=   100.00 Ry     beta=0.70
     Davidson diagonalization with overlap
     ethr =  9.64E-10,  avg # of iterations =  1.0

     total cpu time spent up to now is     1738.2 secs

     total energy              =   -1637.29316239 Ry
     Harris-Foulkes estimate   =   -1637.29316252 Ry
     estimated scf accuracy    <       0.00000710 Ry

     iteration # 29     ecut=   100.00 Ry     beta=0.70
     Davidson diagonalization with overlap
     ethr =  9.64E-10,  avg # of iterations =  1.0

     total cpu time spent up to now is     1757.9 secs

     total energy              =   -1637.29316243 Ry
     Harris-Foulkes estimate   =   -1637.29316248 Ry
     estimated scf accuracy    <       0.00000206 Ry

     iteration # 30     ecut=   100.00 Ry     beta=0.70
     Davidson diagonalization with overlap
     ethr =  7.06E-10,  avg # of iterations =  1.0

     total cpu time spent up to now is     1776.6 secs

     total energy              =   -1637.29316242 Ry
     Harris-Foulkes estimate   =   -1637.29316249 Ry
     estimated scf accuracy    <       0.00000509 Ry

     iteration # 31     ecut=   100.00 Ry     beta=0.70
     Davidson diagonalization with overlap
     ethr =  7.06E-10,  avg # of iterations =  1.0

     total cpu time spent up to now is     1796.7 secs

     total energy              =   -1637.29316245 Ry
     Harris-Foulkes estimate   =   -1637.29316247 Ry
     estimated scf accuracy    <       0.00000184 Ry

     iteration # 32     ecut=   100.00 Ry     beta=0.70
     Davidson diagonalization with overlap
     ethr =  6.31E-10,  avg # of iterations =  1.0

     total cpu time spent up to now is     1816.5 secs

     End of self-consistent calculation

          k = 0.0000 0.0000 0.0000 ( 57969 PWs)   bands (ev):

   -76.0605 -76.0604 -76.0604 -76.0604 -44.9499 -44.9499 -44.9499 -44.9499
   -44.8230 -44.8230 -44.8229 -44.8228 -44.7849 -44.7848 -44.7848 -44.7847
   -20.4645 -20.4617 -20.4615 -20.4586 -20.4568 -20.4567 -20.4547 -20.4546
   -13.6657 -13.6223 -13.6222 -13.5971 -13.5917 -13.5906 -13.5853 -13.5719
   -12.8400 -12.8270 -12.5903 -12.5900 -12.5493 -12.5492 -12.3904 -12.3903
   -11.8510 -11.8304 -11.8110 -11.7975 -11.7960 -11.7863 -11.7782 -11.7761
   -10.2937 -10.2917 -10.2914 -10.2871 -10.2645 -10.2628 -10.2619 -10.2611
    -8.3898  -8.3828  -8.3603  -8.3551  -8.3414  -8.3364  -8.3303  -8.3195
    -7.1995  -7.1680  -7.1440  -7.1431  -7.1293  -7.1113  -7.1043  -7.0900
    -4.3707  -4.3631  -4.3617  -4.3388  -4.1751  -4.1739  -4.1599  -4.1485
    -3.0831  -3.0821  -2.3163  -2.2659  -2.2212  -2.0978  -2.0462  -2.0271
    -1.9510  -1.9453  -1.8272  -1.8049  -1.7931  -1.7871  -1.6104  -1.4925
    -1.4187  -1.4153  -1.3966  -1.3612  -1.2929  -1.2763  -1.1123  -1.0961
    -0.9990  -0.8833  -0.8092  -0.8025  -0.5616  -0.5551  -0.4695  -0.4689
    -0.3059  -0.2892  -0.1305  -0.1291  -0.1037  -0.0929  -0.0415  -0.0279
    -0.0245  -0.0022   0.0398   0.0587   0.0647   0.0903   0.2212   0.2272
     0.3164   0.3271   0.4226   0.4289   0.4372   0.4379   0.5314   0.5538
     2.4156   2.4159   2.6534   2.6543   2.6643   2.6673   2.7367   2.7376
     2.8659   2.8697   2.8957   2.9002   3.0397   3.0399   3.1796   3.1899
     4.0508   4.0555   4.4563   4.4563   5.3620   5.5905   5.9855   6.4461
     6.6595   6.8417   6.8675   6.9098   6.9141   7.0182   7.1732   7.2922
     7.3245   7.3397   7.4405   7.5034   7.5773   7.6473   8.1883

     the Fermi energy is     2.8854 ev

!    total energy              =   -1637.29316240 Ry
     Harris-Foulkes estimate   =   -1637.29316246 Ry
     estimated scf accuracy    <       0.00000007 Ry

     The total energy is the sum of the following terms:

     one-electron contribution =   -1487.06761221 Ry
     hartree contribution      =     820.21985902 Ry
     xc contribution           =    -295.59995994 Ry
     ewald contribution        =    -674.81786526 Ry
     smearing contrib. (-TS)   =      -0.02758400 Ry

     convergence has been achieved in  32 iterations

     Forces acting on atoms (Ry/au):

     atom    1 type  1   force =     0.00001066    0.00001081    0.01504956
     atom    2 type  1   force =     0.00000000    0.00981813   -0.02638140
     atom    3 type  5   force =     0.00000000    0.67809855   -0.29609423
     atom    4 type  2   force =     0.00000000    0.01204017    0.17065049
     atom    5 type  4   force =     0.00000000   -0.61626689   -0.26492127
     atom    6 type  4   force =     0.10580570   -0.03899933   -0.01618016
     atom    7 type  4   force =     0.00000000    0.29982456    0.02811880
     atom    8 type  4   force =    -0.30860749   -0.14023817    0.18959471
     atom    9 type  3   force =     0.00000000    0.00000000    0.00000000
     atom   10 type  3   force =     0.00000000    0.00000000    0.00000000
     atom   11 type  4   force =    -0.10580570   -0.03899933   -0.01618016
     atom   12 type  4   force =     0.30860749   -0.14023817    0.18959471
     atom   13 type  1   force =    -0.00001066    0.00001081    0.01504956
     atom   14 type  1   force =    -0.00001066   -0.00001081   -0.01504956
     atom   15 type  1   force =     0.00001066   -0.00001081   -0.01504956
     atom   16 type  1   force =     0.00000000   -0.00981813    0.02638140
     atom   17 type  4   force =    -0.30860976   -0.14023979   -0.18960946
     atom   18 type  4   force =     0.10580689   -0.03899889    0.01617014
     atom   19 type  4   force =     0.30860976   -0.14023979   -0.18960946
     atom   20 type  4   force =     0.00000000    0.29982756   -0.02813510
     atom   21 type  4   force =    -0.10580689   -0.03899889    0.01617014
     atom   22 type  4   force =     0.00000000   -0.61623357    0.26489146
     atom   23 type  2   force =     0.00000000    0.01204456   -0.17065419
     atom   24 type  5   force =    -0.00000000    0.67808556    0.29612105
     atom   25 type  4   force =    -0.30860966   -0.14023805   -0.18959449
     atom   26 type  4   force =     0.10581195   -0.03900310    0.01618011
     atom   27 type  4   force =     0.30860966   -0.14023805   -0.18959449
     atom   28 type  4   force =     0.00000000    0.29982175   -0.02811909
     atom   29 type  4   force =    -0.10581195   -0.03900310    0.01618011
     atom   30 type  4   force =     0.00000000   -0.61624533    0.26491194
     atom   31 type  2   force =     0.00000000    0.01203257   -0.17065325
     atom   32 type  5   force =     0.00000000    0.67806984    0.29612076
     atom   33 type  4   force =    -0.30860918    0.14023843   -0.18960722
     atom   34 type  4   force =     0.10581008    0.03900120    0.01616939
     atom   35 type  4   force =     0.30860918    0.14023843   -0.18960722
     atom   36 type  4   force =     0.00000000   -0.29983186   -0.02813697
     atom   37 type  4   force =    -0.10581008    0.03900120    0.01616939
     atom   38 type  4   force =     0.00000000    0.61622019    0.26488559
     atom   39 type  2   force =    -0.00000000   -0.01205734   -0.17063795
     atom   40 type  5   force =    -0.00000000   -0.67811961    0.29612393
     atom   41 type  4   force =    -0.30860749    0.14023817   -0.18959471
     atom   42 type  4   force =     0.10580570    0.03899933    0.01618016
     atom   43 type  4   force =     0.30860749    0.14023817   -0.18959471
     atom   44 type  4   force =     0.00000000   -0.29982456   -0.02811880
     atom   45 type  4   force =    -0.10580570    0.03899933    0.01618016
     atom   46 type  4   force =     0.00000000    0.61626689    0.26492127
     atom   47 type  2   force =     0.00000000   -0.01204017   -0.17065049
     atom   48 type  5   force =     0.00000000   -0.67809855    0.29609423
     atom   49 type  1   force =     0.00000000    0.00981590    0.02636805
     atom   50 type  4   force =     0.30860976    0.14023979    0.18960946
     atom   51 type  4   force =    -0.10580689    0.03899889   -0.01617014
     atom   52 type  4   force =    -0.30860976    0.14023979    0.18960946
     atom   53 type  4   force =     0.00000000   -0.29982756    0.02813510
     atom   54 type  4   force =     0.10580689    0.03899889   -0.01617014
     atom   55 type  4   force =     0.00000000    0.61623357   -0.26489146
     atom   56 type  2   force =     0.00000000   -0.01204456    0.17065419
     atom   57 type  5   force =    -0.00000000   -0.67808556   -0.29612105
     atom   58 type  1   force =     0.00000000   -0.00981590   -0.02636805
     atom   59 type  1   force =     0.00000000    0.00982482    0.02639937
     atom   60 type  4   force =     0.30860966    0.14023805    0.18959449
     atom   61 type  4   force =    -0.10581195    0.03900310   -0.01618011
     atom   62 type  4   force =    -0.30860966    0.14023805    0.18959449
     atom   63 type  4   force =     0.00000000   -0.29982175    0.02811909
     atom   64 type  4   force =     0.10581195    0.03900310   -0.01618011
     atom   65 type  4   force =     0.00000000    0.61624533   -0.26491194
     atom   66 type  2   force =     0.00000000   -0.01203257    0.17065325
     atom   67 type  5   force =     0.00000000   -0.67806984   -0.29612076
     atom   68 type  1   force =     0.00000000   -0.00982482   -0.02639937
     atom   69 type  1   force =     0.00000000   -0.00981373    0.02638307
     atom   70 type  1   force =    -0.00000684    0.00000564   -0.01504762
     atom   71 type  1   force =     0.00000684    0.00000564   -0.01504762
     atom   72 type  1   force =     0.00000684   -0.00000564    0.01504762
     atom   73 type  4   force =     0.30860918   -0.14023843    0.18960722
     atom   74 type  4   force =    -0.10581008   -0.03900120   -0.01616939
     atom   75 type  3   force =     0.00000000    0.00000000    0.00000000
     atom   76 type  3   force =     0.00000000    0.00000000    0.00000000
     atom   77 type  4   force =    -0.30860918   -0.14023843    0.18960722
     atom   78 type  4   force =     0.00000000    0.29983186    0.02813697
     atom   79 type  4   force =     0.10581008   -0.03900120   -0.01616939
     atom   80 type  4   force =     0.00000000   -0.61622019   -0.26488559
     atom   81 type  2   force =     0.00000000    0.01205734    0.17063795
     atom   82 type  5   force =     0.00000000    0.67811961   -0.29612393
     atom   83 type  1   force =     0.00000000    0.00981373   -0.02638307
     atom   84 type  1   force =    -0.00000684   -0.00000564    0.01504762

     Total force =     3.401247     Total SCF correction =     0.000418


     entering subroutine stress ...

          total   stress  (Ry/bohr**3)                   (kbar)     P=  222.45
   0.00100157   0.00000000   0.00000000        147.34      0.00      0.00
   0.00000000   0.00157798   0.00000000          0.00    232.13      0.00
   0.00000000   0.00000000   0.00195699          0.00      0.00    287.88


     number of scf cycles    =   2
     number of bfgs steps    =   1

     energy   old            =   -1627.5662713523 Ry
     energy   new            =   -1637.2931623987 Ry

     CASE: energy  _new < energy  _old

     new trust radius        =       0.2000000000 bohr
     new conv_thr            =       0.0000001000 Ry


ATOMIC_POSITIONS (crystal)
Cl       0.250000152   0.250000156   0.010428521
Cl       0.000000000   0.965806328   0.127190222
N        0.500000000  -0.032513060   0.124372299
C        0.500000000   0.022515261   0.185408636
H        0.500000000  -0.151776451   0.101538165
H        0.589440216   0.048867126   0.095335520
H        0.500000000   0.151601256   0.203102194
H        0.405889791  -0.042071237   0.211472662
Mn       0.000000000   0.000000000   0.000000000
Mn       0.500000000   0.500000000   0.000000000
H        0.410559784   0.048867126   0.095335520
H        0.594110209  -0.042071237   0.211472662
Cl       0.749999848   0.250000156   0.010428521
Cl       0.749999848   0.749999844   0.989571479
Cl       0.250000152   0.749999844   0.989571479
Cl       0.000000000   0.034193672   0.872809778
H        0.405889748   0.457928735   0.288527377
H        0.589440277   0.548867159   0.404664530
H        0.594110252   0.457928735   0.288527377
H        0.500000000   0.651601282   0.296897833
H        0.410559723   0.548867159   0.404664530
H        0.500000000   0.348224202   0.398461730
C        0.500000000   0.522515487   0.314591329
N        0.500000000   0.467487630   0.375627891
H       -0.094110249   0.457928761   0.788527335
H        0.089440381   0.548867127   0.904664496
H        0.094110249   0.457928761   0.788527335
H        0.000000000   0.651601168   0.796897812
H       -0.089440381   0.548867127   0.904664496
H        0.000000000   0.348223948   0.898461767
C        0.000000000   0.522515076   0.814591332
N        0.000000000   0.467486602   0.875627773
H       -0.094110241   1.042071247   0.288527390
H        0.089440378   0.951132825   0.404664537
H        0.094110241   1.042071247   0.288527390
H        0.000000000   0.848398556   0.296897808
H       -0.089440378   0.951132825   0.404664537
H        0.000000000   1.151775572   0.398461686
C       -0.000000000   0.977483914   0.314591426
N        0.000000000   1.032511632   0.375627767
H        0.405889791   1.042071237   0.788527338
H        0.589440216   0.951132874   0.904664480
H        0.594110209   1.042071237   0.788527338
H        0.500000000   0.848398744   0.796897806
H        0.410559784   0.951132874   0.904664480
H        0.500000000   1.151776451   0.898461835
C        0.500000000   0.977484739   0.814591364
N        0.500000000   1.032513060   0.875627701
Cl       0.000000000   0.465806227   0.372809776
H        0.594110252   0.542071265   0.711472623
H        0.410559723   0.451132841   0.595335470
H        0.405889748   0.542071265   0.711472623
H        0.500000000   0.348398718   0.703102167
H        0.589440277   0.451132841   0.595335470
H        0.500000000   0.651775798   0.601538270
C        0.500000000   0.477484513   0.685408671
N        0.500000000   0.532512370   0.624372109
Cl       0.000000000   0.534193773   0.627190224
Cl       0.500000000   0.465806496   0.872809889
H        0.094110249   0.542071239   0.211472665
H       -0.089440381   0.451132873   0.095335504
H       -0.094110249   0.542071239   0.211472665
H        0.000000000   0.348398832   0.203102188
H        0.089440381   0.451132873   0.095335504
H        0.000000000   0.651776052   0.101538233
C        0.000000000   0.477484924   0.185408668
N        0.000000000   0.532513398   0.124372227
Cl       0.500000000   0.534193504   0.127190111
Cl       0.500000000   0.034193838   0.372809891
Cl       0.749999918   0.750000025   0.489571523
Cl       0.250000082   0.750000025   0.489571523
Cl       0.250000082   0.249999975   0.510428477
H        0.094110241  -0.042071247   0.711472610
H       -0.089440378   0.048867175   0.595335463
Mn       0.000000000   0.500000000   0.500000000
Mn       0.500000000   0.000000000   0.500000000
H       -0.094110241  -0.042071247   0.711472610
H       -0.000000000   0.151601444   0.703102192
H        0.089440378   0.048867175   0.595335463
H        0.000000000  -0.151775572   0.601538314
C        0.000000000   0.022516086   0.685408574
N        0.000000000  -0.032511632   0.624372233
Cl       0.500000000   0.965806162   0.627190109
Cl       0.749999918   0.249999975   0.510428477



     Writing output data file ecut100-relax.save
     NEW-OLD atomic charge density approx. for the potential

     total cpu time spent up to now is     1892.2 secs

     per-process dynamical memory:    86.5 Mb

     Self-consistent Calculation

     iteration #  1     ecut=   100.00 Ry     beta=0.70
     Davidson diagonalization with overlap
     ethr =  1.00E-06,  avg # of iterations = 14.0

     total cpu time spent up to now is     1935.7 secs

     total energy              =   -1638.88357270 Ry
     Harris-Foulkes estimate   =   -1639.90100025 Ry
     estimated scf accuracy    <       1.48693522 Ry

     iteration #  2     ecut=   100.00 Ry     beta=0.70
     Davidson diagonalization with overlap
     ethr =  5.09E-04,  avg # of iterations =  5.0

     total cpu time spent up to now is     1957.6 secs

     total energy              =   -1636.73123509 Ry
     Harris-Foulkes estimate   =   -1639.86852493 Ry
     estimated scf accuracy    <      31.12459308 Ry

     iteration #  3     ecut=   100.00 Ry     beta=0.70
     Davidson diagonalization with overlap
     ethr =  5.09E-04,  avg # of iterations =  7.0

     total cpu time spent up to now is     1983.7 secs

     total energy              =   -1638.55030740 Ry
     Harris-Foulkes estimate   =   -1643.81108604 Ry
     estimated scf accuracy    <     105.96721016 Ry

     iteration #  4     ecut=   100.00 Ry     beta=0.70
     Davidson diagonalization with overlap
     ethr =  5.09E-04,  avg # of iterations =  6.0

     total cpu time spent up to now is     2008.4 secs

     total energy              =   -1638.89188834 Ry
     Harris-Foulkes estimate   =   -1643.78152087 Ry
     estimated scf accuracy    <      69.16056722 Ry

     iteration #  5     ecut=   100.00 Ry     beta=0.70
     Davidson diagonalization with overlap
     ethr =  5.09E-04,  avg # of iterations =  4.0

     total cpu time spent up to now is     2028.2 secs

     total energy              =   -1639.33460592 Ry
     Harris-Foulkes estimate   =   -1640.00300966 Ry
     estimated scf accuracy    <      28.78108339 Ry

     iteration #  6     ecut=   100.00 Ry     beta=0.70
     Davidson diagonalization with overlap
     ethr =  5.09E-04,  avg # of iterations =  1.0

     total cpu time spent up to now is     2046.4 secs

     total energy              =   -1639.26626175 Ry
     Harris-Foulkes estimate   =   -1639.76744413 Ry
     estimated scf accuracy    <      36.63553726 Ry

     iteration #  7     ecut=   100.00 Ry     beta=0.70
     Davidson diagonalization with overlap
     ethr =  5.09E-04,  avg # of iterations =  2.0

     total cpu time spent up to now is     2064.2 secs

     total energy              =   -1639.38613168 Ry
     Harris-Foulkes estimate   =   -1639.43568418 Ry
     estimated scf accuracy    <       0.87019076 Ry

     iteration #  8     ecut=   100.00 Ry     beta=0.70
     Davidson diagonalization with overlap
     ethr =  2.98E-04,  avg # of iterations =  2.0

     total cpu time spent up to now is     2082.8 secs

     total energy              =   -1639.33818351 Ry
     Harris-Foulkes estimate   =   -1639.47946873 Ry
     estimated scf accuracy    <      10.51552564 Ry

     iteration #  9     ecut=   100.00 Ry     beta=0.70
     Davidson diagonalization with overlap
     ethr =  2.98E-04,  avg # of iterations =  1.0

     total cpu time spent up to now is     2101.5 secs

     total energy              =   -1639.41798724 Ry
     Harris-Foulkes estimate   =   -1639.43691321 Ry
     estimated scf accuracy    <       1.75290158 Ry

     iteration # 10     ecut=   100.00 Ry     beta=0.70
     Davidson diagonalization with overlap
     ethr =  2.98E-04,  avg # of iterations =  1.0

     total cpu time spent up to now is     2122.8 secs

     total energy              =   -1639.41945575 Ry
     Harris-Foulkes estimate   =   -1639.43158579 Ry
     estimated scf accuracy    <       1.37962982 Ry

     iteration # 11     ecut=   100.00 Ry     beta=0.70
     Davidson diagonalization with overlap
     ethr =  2.98E-04,  avg # of iterations =  1.0

     total cpu time spent up to now is     2141.5 secs

     total energy              =   -1639.42704904 Ry
     Harris-Foulkes estimate   =   -1639.43408328 Ry
     estimated scf accuracy    <       1.66709625 Ry

     iteration # 12     ecut=   100.00 Ry     beta=0.70
     Davidson diagonalization with overlap
     ethr =  2.98E-04,  avg # of iterations =  1.0

     total cpu time spent up to now is     2162.1 secs

     total energy              =   -1639.41965316 Ry
     Harris-Foulkes estimate   =   -1639.43427579 Ry
     estimated scf accuracy    <       1.23287690 Ry

     iteration # 13     ecut=   100.00 Ry     beta=0.70
     Davidson diagonalization with overlap
     ethr =  2.98E-04,  avg # of iterations =  1.0

     total cpu time spent up to now is     2179.4 secs

     total energy              =   -1639.42563548 Ry
     Harris-Foulkes estimate   =   -1639.42740224 Ry
     estimated scf accuracy    <       0.22635076 Ry

     iteration # 14     ecut=   100.00 Ry     beta=0.70
     Davidson diagonalization with overlap
     ethr =  7.75E-05,  avg # of iterations =  1.0

     total cpu time spent up to now is     2199.0 secs

     total energy              =   -1639.42596342 Ry
     Harris-Foulkes estimate   =   -1639.42645280 Ry
     estimated scf accuracy    <       0.07000439 Ry

     iteration # 15     ecut=   100.00 Ry     beta=0.70
     Davidson diagonalization with overlap
     ethr =  2.40E-05,  avg # of iterations =  1.0

     total cpu time spent up to now is     2217.0 secs

     total energy              =   -1639.42586378 Ry
     Harris-Foulkes estimate   =   -1639.42623319 Ry
     estimated scf accuracy    <       0.01884497 Ry

     iteration # 16     ecut=   100.00 Ry     beta=0.70
     Davidson diagonalization with overlap
     ethr =  6.45E-06,  avg # of iterations = 12.0

     total cpu time spent up to now is     2245.9 secs

     total energy              =   -1639.42602230 Ry
     Harris-Foulkes estimate   =   -1639.42625387 Ry
     estimated scf accuracy    <       0.01107090 Ry

     iteration # 17     ecut=   100.00 Ry     beta=0.70
     Davidson diagonalization with overlap
     ethr =  3.79E-06,  avg # of iterations =  1.0

     total cpu time spent up to now is     2265.7 secs

     total energy              =   -1639.42611744 Ry
     Harris-Foulkes estimate   =   -1639.42616274 Ry
     estimated scf accuracy    <       0.00140065 Ry

     iteration # 18     ecut=   100.00 Ry     beta=0.70
     Davidson diagonalization with overlap
     ethr =  4.80E-07,  avg # of iterations =  1.0

     total cpu time spent up to now is     2285.0 secs

     total energy              =   -1639.42613268 Ry
     Harris-Foulkes estimate   =   -1639.42616800 Ry
     estimated scf accuracy    <       0.00194200 Ry

     iteration # 19     ecut=   100.00 Ry     beta=0.70
     Davidson diagonalization with overlap
     ethr =  4.80E-07,  avg # of iterations =  1.0

     total cpu time spent up to now is     2305.1 secs

     total energy              =   -1639.42614984 Ry
     Harris-Foulkes estimate   =   -1639.42615330 Ry
     estimated scf accuracy    <       0.00002803 Ry

     iteration # 20     ecut=   100.00 Ry     beta=0.70
     Davidson diagonalization with overlap
     ethr =  9.60E-09,  avg # of iterations =  2.0

     total cpu time spent up to now is     2323.8 secs

     total energy              =   -1639.42615139 Ry
     Harris-Foulkes estimate   =   -1639.42615257 Ry
     estimated scf accuracy    <       0.00002276 Ry

     iteration # 21     ecut=   100.00 Ry     beta=0.70
     Davidson diagonalization with overlap
     ethr =  7.79E-09,  avg # of iterations =  2.0

     total cpu time spent up to now is     2343.3 secs

     total energy              =   -1639.42615161 Ry
     Harris-Foulkes estimate   =   -1639.42615215 Ry
     estimated scf accuracy    <       0.00000876 Ry

     iteration # 22     ecut=   100.00 Ry     beta=0.70
     Davidson diagonalization with overlap
     ethr =  3.00E-09,  avg # of iterations =  2.0

     total cpu time spent up to now is     2362.9 secs

     total energy              =   -1639.42615049 Ry
     Harris-Foulkes estimate   =   -1639.42615323 Ry
     estimated scf accuracy    <       0.00015738 Ry

     iteration # 23     ecut=   100.00 Ry     beta=0.70
     Davidson diagonalization with overlap
     ethr =  3.00E-09,  avg # of iterations =  1.0

     total cpu time spent up to now is     2381.0 secs

     total energy              =   -1639.42615182 Ry
     Harris-Foulkes estimate   =   -1639.42615221 Ry
     estimated scf accuracy    <       0.00002657 Ry

     iteration # 24     ecut=   100.00 Ry     beta=0.70
     Davidson diagonalization with overlap
     ethr =  3.00E-09,  avg # of iterations =  1.0

     total cpu time spent up to now is     2400.4 secs

     total energy              =   -1639.42615194 Ry
     Harris-Foulkes estimate   =   -1639.42615209 Ry
     estimated scf accuracy    <       0.00000858 Ry

     iteration # 25     ecut=   100.00 Ry     beta=0.70
     Davidson diagonalization with overlap
     ethr =  2.94E-09,  avg # of iterations =  1.0

     total cpu time spent up to now is     2425.5 secs

     total energy              =   -1639.42615201 Ry
     Harris-Foulkes estimate   =   -1639.42615206 Ry
     estimated scf accuracy    <       0.00000575 Ry

     iteration # 26     ecut=   100.00 Ry     beta=0.70
     Davidson diagonalization with overlap
     ethr =  1.97E-09,  avg # of iterations =  1.0

     total cpu time spent up to now is     2445.0 secs

     total energy              =   -1639.42615200 Ry
     Harris-Foulkes estimate   =   -1639.42615206 Ry
     estimated scf accuracy    <       0.00000267 Ry

     iteration # 27     ecut=   100.00 Ry     beta=0.70
     Davidson diagonalization with overlap
     ethr =  9.15E-10,  avg # of iterations =  1.0

     total cpu time spent up to now is     2464.9 secs

     total energy              =   -1639.42615203 Ry
     Harris-Foulkes estimate   =   -1639.42615204 Ry
     estimated scf accuracy    <       0.00000038 Ry

     iteration # 28     ecut=   100.00 Ry     beta=0.70
     Davidson diagonalization with overlap
     ethr =  1.31E-10,  avg # of iterations =  1.0

     total cpu time spent up to now is     2483.6 secs

     total energy              =   -1639.42615203 Ry
     Harris-Foulkes estimate   =   -1639.42615204 Ry
     estimated scf accuracy    <       0.00000039 Ry

     iteration # 29     ecut=   100.00 Ry     beta=0.70
     Davidson diagonalization with overlap
     ethr =  1.31E-10,  avg # of iterations =  1.0

     total cpu time spent up to now is     2504.0 secs

     End of self-consistent calculation

          k = 0.0000 0.0000 0.0000 ( 57969 PWs)   bands (ev):

   -76.0854 -76.0853 -76.0853 -76.0853 -44.9736 -44.9736 -44.9736 -44.9736
   -44.8499 -44.8499 -44.8498 -44.8498 -44.8094 -44.8093 -44.8093 -44.8092
   -19.7421 -19.7384 -19.7384 -19.7347 -19.7328 -19.7328 -19.7305 -19.7304
   -13.0310 -13.0300 -12.6347 -12.6113 -12.5856 -12.5775 -12.5735 -12.5725
   -12.5663 -12.5662 -12.5609 -12.5392 -12.4836 -12.4061 -12.4060 -12.4021
   -11.9035 -11.8842 -11.8643 -11.8479 -11.8371 -11.8363 -11.8318 -11.8290
[...]
        81           C   tau(  81) = (   0.0000000   0.6184299  13.0607544  )
        82           N   tau(  82) = (   0.0000000  -0.2007048  11.8171345  )
        83           Cl  tau(  83) = (   3.6045000   6.9064392  12.0194549  )
        84           Cl  tau(  84) = (   5.4068283   1.8181926  10.0355409  )

     number of k points=     1  Fermi-Dirac smearing, width (Ry)=  0.0037
                       cart. coord. in units 2pi/alat
        k(    1) = (   0.0000000   0.0000000   0.0000000), wk =   2.0000000

     Dense  grid:  1311298 G-vectors     FFT dimensions: ( 125, 125, 360)

     Smooth grid:   463717 G-vectors     FFT dimensions: (  90,  90, 240)

     Largest allocated arrays     est. size (Mb)     dimensions
        Kohn-Sham Wavefunctions         4.83 Mb     (    1809,  175)
        NL pseudopotentials             4.20 Mb     (    1809,  152)
        Each V/rho on FFT grid          2.86 Mb     (  187500)
        Each G-vector array             0.31 Mb     (   40976)
        G-vector shells                 0.16 Mb     (   20492)
     Largest temporary arrays     est. size (Mb)     dimensions
        Auxiliary wavefunctions         9.66 Mb     (    1809,  700)
        Each subspace H/S matrix        3.74 Mb     (     700,  700)
        Each <psi_i|beta_j> matrix      0.20 Mb     (     152,  175)
        Arrays for rho mixing          22.89 Mb     (  187500,    8)

     The initial density is read from file :
     ./scratch/ecut100-relax.save/charge-density.dat

     Starting wfc from file

     total cpu time spent up to now is       46.4 secs

     per-process dynamical memory:    59.4 Mb

     Self-consistent Calculation

     iteration #  1     ecut=   100.00 Ry     beta=0.70
     Davidson diagonalization with overlap
     ethr =  1.00E-05,  avg # of iterations =  2.0

     Threshold (ethr) on eigenvalues was too large:
     Diagonalizing with lowered threshold

     Davidson diagonalization with overlap
     ethr =  1.11E-08,  avg # of iterations =  1.0

     total cpu time spent up to now is       89.7 secs

     total energy              =   -1641.71368004 Ry
     Harris-Foulkes estimate   =   -1641.71370898 Ry
     estimated scf accuracy    <       0.00003256 Ry

     iteration #  2     ecut=   100.00 Ry     beta=0.70
     Davidson diagonalization with overlap
     ethr =  1.12E-08,  avg # of iterations =  4.0

     total cpu time spent up to now is      115.7 secs

     total energy              =   -1641.70930962 Ry
     Harris-Foulkes estimate   =   -1641.71810938 Ry
     estimated scf accuracy    <       1.29855480 Ry

     iteration #  3     ecut=   100.00 Ry     beta=0.70
     Davidson diagonalization with overlap
     ethr =  1.12E-08,  avg # of iterations =  5.0

     total cpu time spent up to now is      139.0 secs

     total energy              =   -1641.71368595 Ry
     Harris-Foulkes estimate   =   -1641.71373156 Ry
     estimated scf accuracy    <       0.00439958 Ry

     iteration #  4     ecut=   100.00 Ry     beta=0.70
     Davidson diagonalization with overlap
     ethr =  1.12E-08,  avg # of iterations =  2.0

     total cpu time spent up to now is      159.7 secs

     total energy              =   -1641.71370878 Ry
     Harris-Foulkes estimate   =   -1641.71370881 Ry
     estimated scf accuracy    <       0.00000035 Ry

     iteration #  5     ecut=   100.00 Ry     beta=0.70
     Davidson diagonalization with overlap
     ethr =  1.20E-10,  avg # of iterations =  4.0

     total cpu time spent up to now is      179.8 secs

     total energy              =   -1641.71370866 Ry
     Harris-Foulkes estimate   =   -1641.71370906 Ry
     estimated scf accuracy    <       0.00003567 Ry

     iteration #  6     ecut=   100.00 Ry     beta=0.70
     Davidson diagonalization with overlap
     ethr =  1.20E-10,  avg # of iterations =  2.0

     total cpu time spent up to now is      200.6 secs

     End of self-consistent calculation

          k = 0.0000 0.0000 0.0000 ( 57969 PWs)   bands (ev):

   -76.0436 -76.0434 -76.0433 -76.0433 -44.9169 -44.9168 -44.9168 -44.9166
   -44.8364 -44.8362 -44.8361 -44.8360 -44.7675 -44.7674 -44.7673 -44.7672
   -17.3667 -17.3645 -17.3420 -17.3397 -17.3362 -17.3359 -17.3215 -17.3213
   -12.9338 -12.9316 -12.5570 -12.5569 -12.5557 -12.5556 -12.4209 -12.4186
   -12.3735 -12.3733 -12.3279 -12.3274 -12.3259 -12.3251 -12.2665 -12.2630
   -10.7496 -10.7427 -10.6877 -10.6868 -10.6835 -10.6760 -10.6640 -10.6528
    -7.0178  -7.0175  -7.0036  -6.9949  -6.9338  -6.9271  -6.9185  -6.9182
    -6.9167  -6.9141  -6.9114  -6.8939  -6.8906  -6.8777  -6.8751  -6.8729
    -5.1448  -5.1385  -5.1356  -5.1199  -5.0631  -5.0607  -5.0296  -5.0105
    -3.4417  -3.4152  -3.3347  -3.2328  -3.1866  -3.1850  -3.1721  -3.1467
    -3.1432  -3.1377  -3.1301  -3.0702  -3.0626  -3.0517  -3.0292  -3.0203
    -2.9642  -2.9575  -1.9218  -1.9213  -1.8504  -1.8281  -1.7356  -1.6896
    -1.5593  -1.5492  -1.4631  -1.4268  -1.4071  -1.4058  -1.3356  -1.3318
    -1.2603  -1.2514  -1.2432  -1.1870  -0.9812  -0.9603  -0.6475  -0.6411
    -0.5452  -0.5448  -0.5408  -0.5407  -0.5291  -0.5066  -0.4752  -0.4746
    -0.2819  -0.2732  -0.1808  -0.1717  -0.0900  -0.0855   0.0155   0.0158
     0.0677   0.0724   0.1766   0.1775   0.2200   0.2218   0.3209   0.3313
     2.3799   2.3805   2.6857   2.6881   2.7255   2.7275   2.7330   2.7334
     2.8654   2.8661   2.9274   2.9276   3.0187   3.0188   3.2859   3.2919
     4.3131   4.3321   4.3788   4.3789   5.6275   5.9717   6.0220   6.8038
     6.8310   7.2357   7.3096   7.3809   7.4682   7.5067   7.5105   7.5179
     7.6115   7.6309   7.7256   7.9485   8.0270   8.1907   8.2018

     the Fermi energy is     2.8969 ev

!    total energy              =   -1641.71370879 Ry
     Harris-Foulkes estimate   =   -1641.71370886 Ry
     estimated scf accuracy    <       0.00000008 Ry

     The total energy is the sum of the following terms:

     one-electron contribution =   -1581.28472922 Ry
     hartree contribution      =     869.98652398 Ry
     xc contribution           =    -289.69893604 Ry
     ewald contribution        =    -640.68784095 Ry
     smearing contrib. (-TS)   =      -0.02872656 Ry

     convergence has been achieved in   6 iterations

     Forces acting on atoms (Ry/au):

     atom    1 type  1   force =     0.00000430    0.00001304    0.00001005
     atom    2 type  1   force =     0.00000000   -0.00013127    0.00001272
     atom    3 type  5   force =     0.00000000    0.00007321    0.00032568
     atom    4 type  2   force =     0.00000000    0.00051924    0.00023338
     atom    5 type  4   force =     0.00000000   -0.00016288   -0.00000893
     atom    6 type  4   force =     0.00025495    0.00061771   -0.00006953
     atom    7 type  4   force =     0.00000000   -0.00023756   -0.00024175
     atom    8 type  4   force =    -0.00015417    0.00007205    0.00005330
     atom    9 type  3   force =     0.00000000    0.00000000    0.00000000
     atom   10 type  3   force =     0.00000000    0.00000000    0.00000000
     atom   11 type  4   force =    -0.00025495    0.00061771   -0.00006953
     atom   12 type  4   force =     0.00015417    0.00007205    0.00005330
     atom   13 type  1   force =    -0.00000430    0.00001304    0.00001005
     atom   14 type  1   force =    -0.00000430   -0.00001304   -0.00001005
     atom   15 type  1   force =     0.00000430   -0.00001304   -0.00001005
     atom   16 type  1   force =     0.00000000    0.00013127   -0.00001272
     atom   17 type  4   force =    -0.00010756    0.00008597   -0.00002974
     atom   18 type  4   force =     0.00024114    0.00060495    0.00004653
     atom   19 type  4   force =     0.00010756    0.00008597   -0.00002974
     atom   20 type  4   force =     0.00000000   -0.00016450    0.00027279
     atom   21 type  4   force =    -0.00024114    0.00060495    0.00004653
     atom   22 type  4   force =     0.00000000   -0.00018590   -0.00001950
     atom   23 type  2   force =     0.00000000    0.00037128   -0.00031753
     atom   24 type  5   force =     0.00000000    0.00018128   -0.00025554
     atom   25 type  4   force =    -0.00007100    0.00009433   -0.00000118
     atom   26 type  4   force =     0.00014757    0.00055776   -0.00002173
     atom   27 type  4   force =     0.00007100    0.00009433   -0.00000118
     atom   28 type  4   force =     0.00000000   -0.00011421    0.00031022
     atom   29 type  4   force =    -0.00014757    0.00055776   -0.00002173
     atom   30 type  4   force =     0.00000000   -0.00027651   -0.00002304
     atom   31 type  2   force =     0.00000000    0.00030974   -0.00045898
     atom   32 type  5   force =     0.00000000    0.00039944    0.00002211
     atom   33 type  4   force =    -0.00008082   -0.00010807   -0.00001279
     atom   34 type  4   force =     0.00015095   -0.00057332    0.00000843
     atom   35 type  4   force =     0.00008082   -0.00010807   -0.00001279
     atom   36 type  4   force =     0.00000000    0.00012251    0.00030122
     atom   37 type  4   force =    -0.00015095   -0.00057332    0.00000843
     atom   38 type  4   force =     0.00000000    0.00028976   -0.00007933
     atom   39 type  2   force =     0.00000000   -0.00025554   -0.00042915
     atom   40 type  5   force =     0.00000000   -0.00035893   -0.00007280
     atom   41 type  4   force =    -0.00015417   -0.00007205   -0.00005330
     atom   42 type  4   force =     0.00025495   -0.00061771    0.00006953
     atom   43 type  4   force =     0.00015417   -0.00007205   -0.00005330
     atom   44 type  4   force =     0.00000000    0.00023756    0.00024175
     atom   45 type  4   force =    -0.00025495   -0.00061771    0.00006953
     atom   46 type  4   force =     0.00000000    0.00016288    0.00000893
     atom   47 type  2   force =     0.00000000   -0.00051924   -0.00023338
     atom   48 type  5   force =     0.00000000   -0.00007321   -0.00032568
     atom   49 type  1   force =     0.00000000   -0.00012010    0.00000169
     atom   50 type  4   force =     0.00010756   -0.00008597    0.00002974
     atom   51 type  4   force =    -0.00024114   -0.00060495   -0.00004653
     atom   52 type  4   force =    -0.00010756   -0.00008597    0.00002974
     atom   53 type  4   force =     0.00000000    0.00016450   -0.00027279
     atom   54 type  4   force =     0.00024114   -0.00060495   -0.00004653
     atom   55 type  4   force =     0.00000000    0.00018590    0.00001950
     atom   56 type  2   force =     0.00000000   -0.00037128    0.00031753
     atom   57 type  5   force =    -0.00000000   -0.00018128    0.00025554
     atom   58 type  1   force =     0.00000000    0.00012010   -0.00000169
     atom   59 type  1   force =     0.00000000   -0.00013517    0.00000564
     atom   60 type  4   force =     0.00007100   -0.00009433    0.00000118
     atom   61 type  4   force =    -0.00014757   -0.00055776    0.00002173
     atom   62 type  4   force =    -0.00007100   -0.00009433    0.00000118
     atom   63 type  4   force =     0.00000000    0.00011421   -0.00031022
     atom   64 type  4   force =     0.00014757   -0.00055776    0.00002173
     atom   65 type  4   force =     0.00000000    0.00027651    0.00002304
     atom   66 type  2   force =     0.00000000   -0.00030974    0.00045898
     atom   67 type  5   force =     0.00000000   -0.00039944   -0.00002211
     atom   68 type  1   force =     0.00000000    0.00013517   -0.00000564
     atom   69 type  1   force =     0.00000000    0.00013556   -0.00001455
     atom   70 type  1   force =    -0.00000529    0.00000502   -0.00001141
     atom   71 type  1   force =     0.00000529    0.00000502   -0.00001141
     atom   72 type  1   force =     0.00000529   -0.00000502    0.00001141
     atom   73 type  4   force =     0.00008082    0.00010807    0.00001279
     atom   74 type  4   force =    -0.00015095    0.00057332   -0.00000843
     atom   75 type  3   force =     0.00000000    0.00000000    0.00000000
     atom   76 type  3   force =     0.00000000    0.00000000    0.00000000
     atom   77 type  4   force =    -0.00008082    0.00010807    0.00001279
     atom   78 type  4   force =     0.00000000   -0.00012251   -0.00030122
     atom   79 type  4   force =     0.00015095    0.00057332   -0.00000843
     atom   80 type  4   force =     0.00000000   -0.00028976    0.00007933
     atom   81 type  2   force =     0.00000000    0.00025554    0.00042915
     atom   82 type  5   force =     0.00000000    0.00035893    0.00007280
     atom   83 type  1   force =     0.00000000   -0.00013556    0.00001455
     atom   84 type  1   force =    -0.00000529   -0.00000502    0.00001141

     Total force =     0.003360     Total SCF correction =     0.000513
     SCF correction compared to forces is large: reduce conv_thr to get better values


     entering subroutine stress ...

          total   stress  (Ry/bohr**3)                   (kbar)     P=   -6.52
  -0.00004549   0.00000000   0.00000000         -6.69      0.00      0.00
   0.00000000  -0.00008988  -0.00000008          0.00    -13.22     -0.01
   0.00000000  -0.00000008   0.00000248          0.00     -0.01      0.36


     BFGS Geometry Optimization

     bfgs converged in   1 scf cycles and   0 bfgs steps
     (criteria: energy <  1.0E-04, force <  1.0E-03)

     End of BFGS Geometry Optimization

     Final energy   =   -1641.7137087883 Ry
Begin final coordinates

ATOMIC_POSITIONS (crystal)
Cl       0.249995585   0.250010774   0.017235074
Cl       0.000000000   0.949804047   0.119505484
N        0.500000000  -0.027730059   0.109045781
C        0.500000000   0.084979665   0.173125844
H        0.500000000  -0.172873150   0.117407182
H        0.615413824   0.004519199   0.079333304
H        0.500000000   0.231617744   0.158224000
H        0.375231653   0.052938177   0.203005400
Mn       0.000000000   0.000000000   0.000000000
Mn       0.500000000   0.500000000   0.000000000
H        0.384586176   0.004519199   0.079333304
H        0.624768347   0.052938177   0.203005400
Cl       0.750004415   0.250010774   0.017235074
Cl       0.750004415   0.749989226   0.982764926
Cl       0.249995585   0.749989226   0.982764926
Cl       0.000000000   0.050195953   0.880494516
H        0.375228565   0.552934984   0.296969575
H        0.615413779   0.504522506   0.420644769
H        0.624771435   0.552934984   0.296969575
H        0.500000000   0.731613696   0.341749138
H        0.384586221   0.504522506   0.420644769
H        0.500000000   0.327127678   0.382573210
C        0.500000000   0.584984223   0.326851193
N        0.500000000   0.472265956   0.390930982
H       -0.124774859   0.552963929   0.797004211
H        0.115419910   0.504349220   0.920668808
H        0.124774859   0.552963929   0.797004211
H       -0.000000000   0.731565157   0.841820695
H       -0.115419910   0.504349220   0.920668808
H       -0.000000000   0.327017189   0.882558603
C       -0.000000000   0.584963131   0.826895220
N        0.000000000   0.472135129   0.890943818
H       -0.124770905   0.947054069   0.296956969
H        0.115419750   0.995279374   0.420640932
H        0.124770905   0.947054069   0.296956969
H       -0.000000000   0.768313822   0.341704355
H       -0.115419750   0.995279374   0.420640932
H        0.000000000   1.172734637   0.382606343
C       -0.000000000   0.914957390   0.326834634
N        0.000000000   1.027599665   0.390932146
H        0.375231653   0.947061823   0.796994600
H        0.615413824   0.995480801   0.920666696
H        0.624768347   0.947061823   0.796994600
H        0.500000000   0.768382256   0.841776000
H        0.384586176   0.995480801   0.920666696
H        0.500000000   1.172873150   0.882592818
C        0.500000000   0.915020335   0.826874156
N        0.500000000   1.027730059   0.890954219
Cl      -0.000000000   0.449631414   0.380503992
H        0.624771435   0.447065016   0.703030425
H        0.384586221   0.495477494   0.579355231
H        0.375228565   0.447065016   0.703030425
H        0.500000000   0.268386304   0.658250862
H        0.615413779   0.495477494   0.579355231
H        0.500000000   0.672872322   0.617426790
C        0.500000000   0.415015777   0.673148807
N        0.500000000   0.527734044   0.609069018
Cl      -0.000000000   0.550368586   0.619496008
Cl       0.500000000   0.449728584   0.880501944
H        0.124774859   0.447036071   0.202995789
H       -0.115419910   0.495650780   0.079331192
H       -0.124774859   0.447036071   0.202995789
H       -0.000000000   0.268434843   0.158179305
H        0.115419910   0.495650780   0.079331192
H       -0.000000000   0.672982811   0.117441397
C       -0.000000000   0.415036869   0.173104780
N        0.000000000   0.527864871   0.109056182
Cl       0.500000000   0.550271416   0.119498056
Cl       0.500000000   0.050269634   0.380504335
Cl       0.750010856   0.749973510   0.482757403
Cl       0.249989144   0.749973510   0.482757403
Cl       0.249989144   0.250026490   0.517242597
H        0.124770905   0.052945931   0.703043031
H       -0.115419750   0.004720626   0.579359068
Mn       0.000000000   0.500000000   0.500000000
Mn       0.500000000   0.000000000   0.500000000
H       -0.124770905   0.052945931   0.703043031
H       -0.000000000   0.231686178   0.658295645
H        0.115419750   0.004720626   0.579359068
H       -0.000000000  -0.172734637   0.617393657
C        0.000000000   0.085042610   0.673165366
N        0.000000000  -0.027599665   0.609067854
Cl       0.500000000   0.949730366   0.619495665
Cl       0.750010856   0.250026490   0.517242597
End final coordinates



     Writing output data file ecut100-relax.save

     init_run     :     12.64s CPU     44.35s WALL (       1 calls)
     electrons    :     90.11s CPU    157.53s WALL (       1 calls)
     forces       :     10.09s CPU     13.06s WALL (       1 calls)
     stress       :     23.51s CPU     27.43s WALL (       1 calls)

     Called by init_run:
     wfcinit      :      0.01s CPU      3.62s WALL (       1 calls)
     potinit      :      1.94s CPU      9.22s WALL (       1 calls)

     Called by electrons:
     c_bands      :     54.14s CPU     66.43s WALL (       7 calls)
     sum_band     :     22.06s CPU     60.05s WALL (       7 calls)
     v_of_rho     :      6.30s CPU      7.18s WALL (       7 calls)
     newd         :      7.31s CPU     36.87s WALL (       7 calls)
     mix_rho      :      1.32s CPU      1.39s WALL (       7 calls)

     Called by c_bands:
     init_us_2    :      0.36s CPU      0.37s WALL (      14 calls)
     regterg      :     53.15s CPU     62.43s WALL (       7 calls)

     Called by sum_band:
     sum_band:bec :      0.00s CPU      0.00s WALL (       7 calls)
     addusdens    :     11.92s CPU     48.43s WALL (       7 calls)

     Called by *egterg:
     h_psi        :     30.07s CPU     35.95s WALL (      27 calls)
     s_psi        :      1.34s CPU      0.98s WALL (      27 calls)
     g_psi        :      0.07s CPU      0.08s WALL (      20 calls)
     rdiaghg      :      7.64s CPU      6.91s WALL (      25 calls)

     Called by h_psi:
     add_vuspsi   :      1.36s CPU      1.15s WALL (      27 calls)

     General routines
     calbec       :      3.85s CPU      4.70s WALL (      39 calls)
     fft          :      6.76s CPU      9.73s WALL (     119 calls)
     ffts         :      0.20s CPU      0.24s WALL (      14 calls)
     fftw         :     23.71s CPU     30.29s WALL (    3452 calls)
     interpolate  :      1.32s CPU      1.53s WALL (      14 calls)
     davcio       :      0.06s CPU      8.61s WALL (       2 calls)

     Parallel routines
     fft_scatter  :     14.82s CPU     24.46s WALL (    3585 calls)

     PWSCF        :  2m18.52s CPU     4m15.74s WALL


   This run was terminated on:  17:56:15  26Feb2016            

=------------------------------------------------------------------------------=
   JOB DONE.
=------------------------------------------------------------------------------=
