
     Program PWSCF v.5.3.0 (svn rev. 11974) starts on 20Jul2016 at 20:24:28 

     This program is part of the open-source Quantum ESPRESSO suite
     for quantum simulation of materials; please cite
         "P. Giannozzi et al., J. Phys.:Condens. Matter 21 395502 (2009);
          URL http://www.quantum-espresso.org", 
     in publications or presentations arising from this work. More details at
     http://www.quantum-espresso.org/quote

     Parallel version (MPI), running on    32 processors
     R & G space division:  proc/nbgrp/npool/nimage =      32
     Waiting for input...
     Reading input from standard input
Warning: card     &CELL ignored
Warning: card CELL_DYNAMICS='BFGS' ignored
Warning: card / ignored

     Current dimensions of program PWSCF are:
     Max number of different atomic species (ntypx) = 10
     Max number of k-points (npk) =  40000
     Max angular momentum in pseudopotentials (lmaxx) =  3
               file N.pbe-n-kjpaw_psl.1.0.0.UPF: wavefunction(s)  2S renormalized
               file C.pbe-n-kjpaw_psl.1.0.0.UPF: wavefunction(s)  2S 2P renormalized
               file H.pbe-kjpaw_psl.1.0.0.UPF: wavefunction(s)  1S renormalized
               file O.pbe-n-kjpaw_psl.1.0.0.UPF: wavefunction(s)  2S 2P renormalized

     Subspace diagonalization in iterative solution of the eigenvalue problem:
     a serial algorithm will be used


     Parallelization info
     --------------------
     sticks:   dense  smooth     PW     G-vecs:    dense   smooth      PW
     Min         511     204     54                41695    10529    1453
     Max         512     205     55                41699    10564    1457
     Sum       16365    6533   1749              1334307   337463   46553


     Title: 
     HMX-relax--kp-4x2x4-ec-80-default-conv-thr                                 


     bravais-lattice index     =            0
     lattice parameter (alat)  =       1.8897  a.u.
     unit-cell volume          =    3491.9260 (a.u.)^3
     number of atoms/cell      =           56
     number of atomic types    =            4
     number of electrons       =       224.00
     number of Kohn-Sham states=          112
     kinetic-energy cutoff     =      80.0000  Ry
     charge density cutoff     =     800.0000  Ry
     convergence threshold     =      1.0E-06
     mixing beta               =       0.7000
     number of iterations used =            8  plain     mixing
     Exchange-correlation      =  SLA  PW   PBX  PBC ( 1  4  3  4 0 0)
     nstep                     =           50


     celldm(1)=   1.889726  celldm(2)=   0.000000  celldm(3)=   0.000000
     celldm(4)=   0.000000  celldm(5)=   0.000000  celldm(6)=   0.000000

     crystal axes: (cart. coord. in units of alat)
               a(1) = (   6.525500   0.000000   0.000000 )  
               a(2) = (   0.000000  11.036900   0.000000 )  
               a(3) = (  -1.615186   0.000000   7.184683 )  

     reciprocal axes: (cart. coord. in units 2 pi/alat)
               b(1) = (  0.153245 -0.000000  0.034451 )  
               b(2) = (  0.000000  0.090605 -0.000000 )  
               b(3) = (  0.000000  0.000000  0.139185 )  


     PseudoPot. # 1 for  N read from file:
     /users/majewski/.data/PSEUDOPOTENTIALS/N.pbe-n-kjpaw_psl.1.0.0.UPF
     MD5 check sum: c21df8f53e59d08c3548513d559cdda6
     Pseudo is Projector augmented-wave + core cor, Zval =  5.0
     Generated using "atomic" code by A. Dal Corso  v.5.3.0 svn rev. 11974
     Shape of augmentation charge: PSQ
     Using radial grid of 1085 points,  4 beta functions with: 
                l(1) =   0
                l(2) =   0
                l(3) =   1
                l(4) =   1
     Q(r) pseudized with 0 coefficients 


     PseudoPot. # 2 for  C read from file:
     /users/majewski/.data/PSEUDOPOTENTIALS/C.pbe-n-kjpaw_psl.1.0.0.UPF
     MD5 check sum: 2ba8448e293caca687844dde9a1b88a8
     Pseudo is Projector augmented-wave + core cor, Zval =  4.0
     Generated using "atomic" code by A. Dal Corso  v.5.3.0 svn rev. 11974
     Shape of augmentation charge: PSQ
     Using radial grid of 1073 points,  4 beta functions with: 
                l(1) =   0
                l(2) =   0
                l(3) =   1
                l(4) =   1
     Q(r) pseudized with 0 coefficients 


     PseudoPot. # 3 for  H read from file:
     /users/majewski/.data/PSEUDOPOTENTIALS/H.pbe-kjpaw_psl.1.0.0.UPF
     MD5 check sum: bc0feb48a24907a0b97fa6ee2d589a29
     Pseudo is Projector augmented-wave, Zval =  1.0
     Generated using "atomic" code by A. Dal Corso  v.5.3.0 svn rev. 11974
     Shape of augmentation charge: PSQ
     Using radial grid of  929 points,  2 beta functions with: 
                l(1) =   0
                l(2) =   0
     Q(r) pseudized with 0 coefficients 


     PseudoPot. # 4 for  O read from file:
     /users/majewski/.data/PSEUDOPOTENTIALS/O.pbe-n-kjpaw_psl.1.0.0.UPF
     MD5 check sum: 9c0ade6c043cf4a781bde3908a3a8206
     Pseudo is Projector augmented-wave + core cor, Zval =  6.0
     Generated using "atomic" code by A. Dal Corso  v.5.3.0 svn rev. 11974
     Shape of augmentation charge: PSQ
     Using radial grid of 1095 points,  4 beta functions with: 
                l(1) =   0
                l(2) =   0
                l(3) =   1
                l(4) =   1
     Q(r) pseudized with 0 coefficients 


     atomic species   valence    mass     pseudopotential
        N              5.00    14.00670      N( 1.00)
        C              4.00    12.01100      C( 1.00)
        H              1.00     1.00790      H( 1.00)
        O              6.00    15.99940      O( 1.00)

      2 Sym. Ops., with inversion, found
          (note:  2 additional sym.ops. were found but ignored
           their fractional translations are incommensurate with FFT grid)

                                    s                        frac. trans.

      isym =  1     identity                                     

 cryst.   s( 1) = (     1          0          0      )
                  (     0          1          0      )
                  (     0          0          1      )

 cart.    s( 1) = (  1.0000000  0.0000000  0.0000000 )
                  (  0.0000000  1.0000000  0.0000000 )
                  (  0.0000000  0.0000000  1.0000000 )


      isym =  2     inversion                                    

 cryst.   s( 2) = (    -1          0          0      )
                  (     0         -1          0      )
                  (     0          0         -1      )

 cart.    s( 2) = ( -1.0000000  0.0000000 -0.0000000 )
                  (  0.0000000 -1.0000000  0.0000000 )
                  (  0.0000000  0.0000000 -1.0000000 )


   Cartesian axes

     site n.     atom                  positions (alat units)
         1           N   tau(   1) = (  -0.8668413   6.8692562   3.3186051  )
         2           O   tau(   2) = (   1.0599706   7.9401666   3.1425804  )
         3           N   tau(   3) = (   0.0533091   7.7556296   3.8208145  )
         4           N   tau(   4) = (  -2.0680987   5.7890748   5.0659200  )
         5           O   tau(   5) = (  -3.2533088   4.7280976   6.6225535  )
         6           N   tau(   6) = (  -3.2451729   5.5281625   5.7010460  )
         7           O   tau(   7) = (  -0.1871403   8.2413636   4.9136048  )
         8           C   tau(   8) = (  -2.1362925   6.7804091   3.9788775  )
         9           H   tau(   9) = (  -2.8191539   6.5194968   3.3415961  )
        10           H   tau(  10) = (  -2.3765906   7.6474680   4.3424225  )
        11           O   tau(  11) = (  -4.2135894   6.1790085   5.3101993  )
        12           C   tau(  12) = (  -0.5998445   6.2495343   2.0325468  )
        13           H   tau(  13) = (  -1.4176786   5.8230684   1.7315086  )
        14           H   tau(  14) = (  -0.3318567   6.8947514   1.3600605  )
        15           H   tau(  15) = (   2.1233004  -1.3763014   4.9524020  )
        16           H   tau(  16) = (   1.0374785  -0.3046184   5.3238502  )
        17           C   tau(  17) = (   1.8553126  -0.7310843   5.6248884  )
        18           O   tau(  18) = (  -1.7584323  -0.6605585   8.9025408  )
        19           H   tau(  19) = (   0.0785665  -2.1290180   7.9347640  )
        20           H   tau(  20) = (  -0.3639967  -1.0010468   6.9339376  )
        21           C   tau(  21) = (   0.3188646  -1.2619591   7.5712190  )
        22           O   tau(  22) = (   2.2680169  -2.7229136   8.5059463  )
        23           N   tau(  23) = (  -0.7900158  -0.0097125   9.2933876  )
        24           O   tau(  24) = (  -0.7981517   0.7903524  10.2148950  )
        25           N   tau(  25) = (   0.3870584  -0.2706248   8.6582616  )
        26           N   tau(  26) = (   2.5084662  -2.2371796   7.4131560  )
        27           O   tau(  27) = (   3.5151277  -2.4217166   6.7349219  )
        28           N   tau(  28) = (   1.5883158  -1.3508062   6.9109467  )
        29           H   tau(  29) = (  -1.2833291   4.1421486   5.8246226  )
        30           H   tau(  30) = (  -0.1975072   5.2138316   5.4531745  )
        31           C   tau(  31) = (  -1.0153413   4.7873657   5.1521362  )
        32           O   tau(  32) = (   2.5984037   4.8578915   1.8744838  )
        33           H   tau(  33) = (   0.7614048   3.3894320   2.8422606  )
        34           H   tau(  34) = (   1.2039681   4.5174032   3.8430870  )
        35           C   tau(  35) = (   0.5211068   4.2564909   3.2058056  )
        36           O   tau(  36) = (  -1.4280455   2.7955364   2.2710783  )
        37           N   tau(  37) = (   1.6299871   5.5087375   1.4836371  )
        38           O   tau(  38) = (   1.6381231   6.3088024   0.5621296  )
        39           N   tau(  39) = (   0.4529129   5.2478252   2.1187630  )
        40           N   tau(  40) = (  -1.6684949   3.2812704   3.3638686  )
        41           O   tau(  41) = (  -2.6751564   3.0967334   4.0421027  )
        42           N   tau(  42) = (  -0.7483445   4.1676438   3.8660780  )
        43           H   tau(  43) = (   1.1718280   1.3763014   9.4169641  )
        44           H   tau(  44) = (   2.2576499   0.3046184   9.0455160  )
        45           C   tau(  45) = (   1.4398158   0.7310843   8.7444778  )
        46           O   tau(  46) = (   5.0535608   0.6605585   5.4668254  )
        47           H   tau(  47) = (   3.2165619   2.1290180   6.4346022  )
        48           H   tau(  48) = (   3.6591252   1.0010468   7.4354285  )
        49           C   tau(  49) = (   2.9762639   1.2619591   6.7981471  )
        50           O   tau(  50) = (   1.0271116   2.7229136   5.8634199  )
        51           N   tau(  51) = (   4.0851442   0.0097125   5.0759786  )
        52           O   tau(  52) = (   4.0932802  -0.7903524   4.1544711  )
        53           N   tau(  53) = (   2.9080700   0.2706248   5.7111046  )
        54           N   tau(  54) = (   0.7866622   2.2371796   6.9562102  )
        55           O   tau(  55) = (  -0.2199993   2.4217166   7.6344442  )
        56           N   tau(  56) = (   1.7068126   1.3508062   7.4584195  )

   Crystallographic axes

     site n.     atom                  positions (cryst. coord.)
         1           N   tau(   1) = ( -0.0185100  0.6223900  0.4619000  )
         2           O   tau(   2) = (  0.2707000  0.7194200  0.4374000  )
         3           N   tau(   3) = (  0.1398000  0.7027000  0.5318000  )
         4           N   tau(   4) = ( -0.1424000  0.5245200  0.7051000  )
         5           O   tau(   5) = ( -0.2704000  0.4283900  0.9217600  )
         6           N   tau(   6) = ( -0.3009000  0.5008800  0.7935000  )
         7           O   tau(   7) = (  0.1406000  0.7467100  0.6839000  )
         8           C   tau(   8) = ( -0.1903000  0.6143400  0.5538000  )
         9           H   tau(   9) = ( -0.3169000  0.5907000  0.4651000  )
        10           H   tau(  10) = ( -0.2146000  0.6929000  0.6044000  )
        11           O   tau(  11) = ( -0.4627700  0.5598500  0.7391000  )
        12           C   tau(  12) = ( -0.0219000  0.5662400  0.2829000  )
        13           H   tau(  13) = ( -0.1576000  0.5276000  0.2410000  )
        14           H   tau(  14) = ( -0.0040000  0.6247000  0.1893000  )
        15           H   tau(  15) = (  0.4960000 -0.1247000  0.6893000  )
        16           H   tau(  16) = (  0.3424000 -0.0276000  0.7410000  )
        17           C   tau(  17) = (  0.4781000 -0.0662400  0.7829000  )
        18           O   tau(  18) = (  0.0372300 -0.0598500  1.2391000  )
        19           H   tau(  19) = (  0.2854000 -0.1929000  1.1044000  )
        20           H   tau(  20) = (  0.1831000 -0.0907000  0.9651000  )
        21           C   tau(  21) = (  0.3097000 -0.1143400  1.0538000  )
        22           O   tau(  22) = (  0.6406000 -0.2467100  1.1839000  )
        23           N   tau(  23) = (  0.1991000 -0.0008800  1.2935000  )
        24           O   tau(  24) = (  0.2296000  0.0716100  1.4217600  )
        25           N   tau(  25) = (  0.3576000 -0.0245200  1.2051000  )
        26           N   tau(  26) = (  0.6398000 -0.2027000  1.0318000  )
        27           O   tau(  27) = (  0.7707000 -0.2194200  0.9374000  )
        28           N   tau(  28) = (  0.4814900 -0.1223900  0.9619000  )
        29           H   tau(  29) = (  0.0040000  0.3753000  0.8107000  )
        30           H   tau(  30) = (  0.1576000  0.4724000  0.7590000  )
        31           C   tau(  31) = (  0.0219000  0.4337600  0.7171000  )
        32           O   tau(  32) = (  0.4627700  0.4401500  0.2609000  )
        33           H   tau(  33) = (  0.2146000  0.3071000  0.3956000  )
        34           H   tau(  34) = (  0.3169000  0.4093000  0.5349000  )
        35           C   tau(  35) = (  0.1903000  0.3856600  0.4462000  )
        36           O   tau(  36) = ( -0.1406000  0.2532900  0.3161000  )
        37           N   tau(  37) = (  0.3009000  0.4991200  0.2065000  )
        38           O   tau(  38) = (  0.2704000  0.5716100  0.0782400  )
        39           N   tau(  39) = (  0.1424000  0.4754800  0.2949000  )
        40           N   tau(  40) = ( -0.1398000  0.2973000  0.4682000  )
        41           O   tau(  41) = ( -0.2707000  0.2805800  0.5626000  )
        42           N   tau(  42) = (  0.0185100  0.3776100  0.5381000  )
        43           H   tau(  43) = (  0.5040000  0.1247000  1.3107000  )
        44           H   tau(  44) = (  0.6576000  0.0276000  1.2590000  )
        45           C   tau(  45) = (  0.5219000  0.0662400  1.2171000  )
        46           O   tau(  46) = (  0.9627700  0.0598500  0.7609000  )
        47           H   tau(  47) = (  0.7146000  0.1929000  0.8956000  )
        48           H   tau(  48) = (  0.8169000  0.0907000  1.0349000  )
        49           C   tau(  49) = (  0.6903000  0.1143400  0.9462000  )
        50           O   tau(  50) = (  0.3594000  0.2467100  0.8161000  )
        51           N   tau(  51) = (  0.8009000  0.0008800  0.7065000  )
        52           O   tau(  52) = (  0.7704000 -0.0716100  0.5782400  )
        53           N   tau(  53) = (  0.6424000  0.0245200  0.7949000  )
        54           N   tau(  54) = (  0.3602000  0.2027000  0.9682000  )
        55           O   tau(  55) = (  0.2293000  0.2194200  1.0626000  )
        56           N   tau(  56) = (  0.5185100  0.1223900  1.0381000  )

     number of k points=    16
                       cart. coord. in units 2pi/alat
        k(    1) = (   0.0191556   0.0226513   0.0217045), wk =   0.1250000
        k(    2) = (   0.0191556   0.0226513   0.0565007), wk =   0.1250000
        k(    3) = (   0.0191556   0.0226513  -0.0478880), wk =   0.1250000
        k(    4) = (   0.0191556   0.0226513  -0.0130918), wk =   0.1250000
        k(    5) = (   0.0574669   0.0226513   0.0303172), wk =   0.1250000
        k(    6) = (   0.0574669   0.0226513   0.0651135), wk =   0.1250000
        k(    7) = (   0.0574669   0.0226513  -0.0392753), wk =   0.1250000
        k(    8) = (   0.0574669   0.0226513  -0.0044790), wk =   0.1250000
        k(    9) = (  -0.0191556   0.0226513  -0.0217045), wk =   0.1250000
        k(   10) = (  -0.0191556   0.0226513  -0.0565007), wk =   0.1250000
        k(   11) = (  -0.0191556   0.0226513   0.0478880), wk =   0.1250000
        k(   12) = (  -0.0191556   0.0226513   0.0130918), wk =   0.1250000
        k(   13) = (  -0.0574669   0.0226513  -0.0303172), wk =   0.1250000
        k(   14) = (  -0.0574669   0.0226513  -0.0651135), wk =   0.1250000
        k(   15) = (  -0.0574669   0.0226513   0.0392753), wk =   0.1250000
        k(   16) = (  -0.0574669   0.0226513   0.0044790), wk =   0.1250000

                       cryst. coord.
        k(    1) = (   0.1250000   0.2500000   0.1250000), wk =   0.1250000
        k(    2) = (   0.1250000   0.2500000   0.3750000), wk =   0.1250000
        k(    3) = (   0.1250000   0.2500000  -0.3750000), wk =   0.1250000
        k(    4) = (   0.1250000   0.2500000  -0.1250000), wk =   0.1250000
        k(    5) = (   0.3750000   0.2500000   0.1250000), wk =   0.1250000
        k(    6) = (   0.3750000   0.2500000   0.3750000), wk =   0.1250000
        k(    7) = (   0.3750000   0.2500000  -0.3750000), wk =   0.1250000
        k(    8) = (   0.3750000   0.2500000  -0.1250000), wk =   0.1250000
        k(    9) = (  -0.1250000   0.2500000  -0.1250000), wk =   0.1250000
        k(   10) = (  -0.1250000   0.2500000  -0.3750000), wk =   0.1250000
        k(   11) = (  -0.1250000   0.2500000   0.3750000), wk =   0.1250000
        k(   12) = (  -0.1250000   0.2500000   0.1250000), wk =   0.1250000
        k(   13) = (  -0.3750000   0.2500000  -0.1250000), wk =   0.1250000
        k(   14) = (  -0.3750000   0.2500000  -0.3750000), wk =   0.1250000
        k(   15) = (  -0.3750000   0.2500000   0.3750000), wk =   0.1250000
        k(   16) = (  -0.3750000   0.2500000   0.1250000), wk =   0.1250000

     Dense  grid:  1334307 G-vectors     FFT dimensions: ( 120, 192, 125)

     Smooth grid:   337463 G-vectors     FFT dimensions: (  72, 120,  80)

     Largest allocated arrays     est. size (Mb)     dimensions
        Kohn-Sham Wavefunctions         2.25 Mb     (    1319,  112)
        NL pseudopotentials             7.08 Mb     (    1319,  352)
        Each V/rho on FFT grid          1.41 Mb     (   92160)
        Each G-vector array             0.32 Mb     (   41696)
        G-vector shells                 0.31 Mb     (   40645)
     Largest temporary arrays     est. size (Mb)     dimensions
        Auxiliary wavefunctions         9.02 Mb     (    1319,  448)
        Each subspace H/S matrix        3.06 Mb     (     448,  448)
        Each <psi_i|beta_j> matrix      0.60 Mb     (     352,  112)
        Arrays for rho mixing          11.25 Mb     (   92160,    8)

     Initial potential from superposition of free atoms

     starting charge  223.99937, renormalised to  224.00000
     Starting wfc are  176 randomized atomic wfcs
     Checking if some PAW data can be deallocated... 
       node    0, deallocated PAW data for type:  2
       node    0, deallocated PAW data for type:  3
       node    1, deallocated PAW data for type:  2
       node    1, deallocated PAW data for type:  3
       node    1, deallocated PAW data for type:  4
       node    2, deallocated PAW data for type:  2
       node    2, deallocated PAW data for type:  3
       node    3, deallocated PAW data for type:  1
       node    3, deallocated PAW data for type:  3
       node    4, deallocated PAW data for type:  1
       node    4, deallocated PAW data for type:  2
       node    4, deallocated PAW data for type:  4
       node    5, deallocated PAW data for type:  1
       node    5, deallocated PAW data for type:  3
       node    6, deallocated PAW data for type:  1
       node    6, deallocated PAW data for type:  2
       node    6, deallocated PAW data for type:  4
       node    7, deallocated PAW data for type:  1
       node    7, deallocated PAW data for type:  2
       node    7, deallocated PAW data for type:  4
       node    8, deallocated PAW data for type:  1
       node    8, deallocated PAW data for type:  3
       node    9, deallocated PAW data for type:  1
       node    9, deallocated PAW data for type:  2
       node    9, deallocated PAW data for type:  4
       node   10, deallocated PAW data for type:  1
       node   10, deallocated PAW data for type:  3
       node   11, deallocated PAW data for type:  2
       node   11, deallocated PAW data for type:  3
       node   12, deallocated PAW data for type:  2
       node   12, deallocated PAW data for type:  3
       node   12, deallocated PAW data for type:  4
       node   13, deallocated PAW data for type:  2
       node   13, deallocated PAW data for type:  3
       node   14, deallocated PAW data for type:  1
       node   14, deallocated PAW data for type:  2
       node   14, deallocated PAW data for type:  4
       node   15, deallocated PAW data for type:  1
       node   15, deallocated PAW data for type:  3
       node   16, deallocated PAW data for type:  1
       node   16, deallocated PAW data for type:  2
       node   16, deallocated PAW data for type:  4
       node   17, deallocated PAW data for type:  1
       node   17, deallocated PAW data for type:  3
       node   18, deallocated PAW data for type:  2
       node   18, deallocated PAW data for type:  3
       node   19, deallocated PAW data for type:  2
       node   19, deallocated PAW data for type:  3
       node   19, deallocated PAW data for type:  4
       node   20, deallocated PAW data for type:  2
       node   20, deallocated PAW data for type:  3
       node   21, deallocated PAW data for type:  1
       node   21, deallocated PAW data for type:  2
       node   21, deallocated PAW data for type:  4
       node   22, deallocated PAW data for type:  1
       node   22, deallocated PAW data for type:  3
       node   23, deallocated PAW data for type:  1
       node   23, deallocated PAW data for type:  2
       node   23, deallocated PAW data for type:  4
       node   24, deallocated PAW data for type:  1
       node   24, deallocated PAW data for type:  3
       node   24, deallocated PAW data for type:  4
       node   25, deallocated PAW data for type:  1
       node   25, deallocated PAW data for type:  2
       node   25, deallocated PAW data for type:  3
       node   26, deallocated PAW data for type:  2
       node   26, deallocated PAW data for type:  3
       node   26, deallocated PAW data for type:  4
       node   27, deallocated PAW data for type:  1
       node   27, deallocated PAW data for type:  2
       node   27, deallocated PAW data for type:  3
       node   28, deallocated PAW data for type:  2
       node   28, deallocated PAW data for type:  3
       node   28, deallocated PAW data for type:  4
       node   29, deallocated PAW data for type:  2
       node   29, deallocated PAW data for type:  3
       node   29, deallocated PAW data for type:  4
       node   30, deallocated PAW data for type:  1
       node   30, deallocated PAW data for type:  2
       node   30, deallocated PAW data for type:  3
       node   31, deallocated PAW data for type:  2
       node   31, deallocated PAW data for type:  3
       node   31, deallocated PAW data for type:  4

     total cpu time spent up to now is      103.8 secs

     per-process dynamical memory:    81.1 Mb

     Self-consistent Calculation

     iteration #  1     ecut=    80.00 Ry     beta=0.70
     Davidson diagonalization with overlap
     ethr =  1.00E-02,  avg # of iterations =  3.0

     total cpu time spent up to now is      286.2 secs

     total energy              =   -1279.59392959 Ry
     Harris-Foulkes estimate   =   -1283.96270762 Ry
     estimated scf accuracy    <       6.73135793 Ry

     iteration #  2     ecut=    80.00 Ry     beta=0.70
     Davidson diagonalization with overlap
     ethr =  3.01E-03,  avg # of iterations =  4.0

     total cpu time spent up to now is      488.1 secs

     total energy              =   -1280.28317903 Ry
     Harris-Foulkes estimate   =   -1283.76074621 Ry
     estimated scf accuracy    <       6.99132967 Ry

     iteration #  3     ecut=    80.00 Ry     beta=0.70
     Davidson diagonalization with overlap
     ethr =  3.01E-03,  avg # of iterations =  4.5

     total cpu time spent up to now is      637.0 secs

     total energy              =   -1281.78878580 Ry
     Harris-Foulkes estimate   =   -1282.01700970 Ry
     estimated scf accuracy    <       0.42354346 Ry

     iteration #  4     ecut=    80.00 Ry     beta=0.70
     Davidson diagonalization with overlap
     ethr =  1.89E-04,  avg # of iterations =  4.8

     total cpu time spent up to now is      833.7 secs

     total energy              =   -1281.93589202 Ry
     Harris-Foulkes estimate   =   -1282.02168805 Ry
     estimated scf accuracy    <       0.18815255 Ry

     iteration #  5     ecut=    80.00 Ry     beta=0.70
     Davidson diagonalization with overlap
     ethr =  8.40E-05,  avg # of iterations =  4.0

     total cpu time spent up to now is      979.8 secs

     total energy              =   -1281.97459764 Ry
     Harris-Foulkes estimate   =   -1281.98367942 Ry
     estimated scf accuracy    <       0.02254989 Ry

     iteration #  6     ecut=    80.00 Ry     beta=0.70
     Davidson diagonalization with overlap
     ethr =  1.01E-05,  avg # of iterations =  5.4

     total cpu time spent up to now is     1102.7 secs

     total energy              =   -1281.97642370 Ry
     Harris-Foulkes estimate   =   -1281.97792036 Ry
     estimated scf accuracy    <       0.00400799 Ry

     iteration #  7     ecut=    80.00 Ry     beta=0.70
     Davidson diagonalization with overlap
     ethr =  1.79E-06,  avg # of iterations =  4.8

     total cpu time spent up to now is     1313.4 secs

     total energy              =   -1281.97917286 Ry
     Harris-Foulkes estimate   =   -1281.98039492 Ry
     estimated scf accuracy    <       0.00448855 Ry

     iteration #  8     ecut=    80.00 Ry     beta=0.70
     Davidson diagonalization with overlap
     ethr =  1.79E-06,  avg # of iterations =  1.0

     total cpu time spent up to now is     1404.5 secs

     total energy              =   -1281.97796667 Ry
     Harris-Foulkes estimate   =   -1281.97924675 Ry
     estimated scf accuracy    <       0.00254501 Ry

     iteration #  9     ecut=    80.00 Ry     beta=0.70
     Davidson diagonalization with overlap
     ethr =  1.14E-06,  avg # of iterations =  5.0

     total cpu time spent up to now is     1605.7 secs

     total energy              =   -1281.97953451 Ry
     Harris-Foulkes estimate   =   -1281.98062228 Ry
     estimated scf accuracy    <       0.00568334 Ry

     iteration # 10     ecut=    80.00 Ry     beta=0.70
     Davidson diagonalization with overlap
     ethr =  1.14E-06,  avg # of iterations =  1.0

     total cpu time spent up to now is     1699.0 secs

     total energy              =   -1281.97822892 Ry
     Harris-Foulkes estimate   =   -1281.97956888 Ry
     estimated scf accuracy    <       0.00391860 Ry

     iteration # 11     ecut=    80.00 Ry     beta=0.70
     Davidson diagonalization with overlap
     ethr =  1.14E-06,  avg # of iterations =  5.0

     total cpu time spent up to now is     1854.8 secs

     total energy              =   -1281.97948379 Ry
     Harris-Foulkes estimate   =   -1281.97966964 Ry
     estimated scf accuracy    <       0.00072225 Ry

     iteration # 12     ecut=    80.00 Ry     beta=0.70
     Davidson diagonalization with overlap
     ethr =  3.22E-07,  avg # of iterations =  1.0

     total cpu time spent up to now is     1952.9 secs

     total energy              =   -1281.97932522 Ry
     Harris-Foulkes estimate   =   -1281.97949398 Ry
     estimated scf accuracy    <       0.00042358 Ry

     iteration # 13     ecut=    80.00 Ry     beta=0.70
     Davidson diagonalization with overlap
     ethr =  1.89E-07,  avg # of iterations =  5.0

     total cpu time spent up to now is     2111.7 secs

     total energy              =   -1281.97953535 Ry
     Harris-Foulkes estimate   =   -1281.97958992 Ry
     estimated scf accuracy    <       0.00029324 Ry

     iteration # 14     ecut=    80.00 Ry     beta=0.70
     Davidson diagonalization with overlap
     ethr =  1.31E-07,  avg # of iterations =  1.0

     total cpu time spent up to now is     2204.6 secs

     total energy              =   -1281.97946300 Ry
     Harris-Foulkes estimate   =   -1281.97953712 Ry
     estimated scf accuracy    <       0.00020591 Ry

     iteration # 15     ecut=    80.00 Ry     beta=0.70
     Davidson diagonalization with overlap
     ethr =  9.19E-08,  avg # of iterations =  5.0

     total cpu time spent up to now is     2360.9 secs

     total energy              =   -1281.97954829 Ry
     Harris-Foulkes estimate   =   -1281.97954099 Ry
     estimated scf accuracy    <       0.00004259 Ry

     iteration # 16     ecut=    80.00 Ry     beta=0.70
     Davidson diagonalization with overlap
     ethr =  1.90E-08,  avg # of iterations =  1.0

     total cpu time spent up to now is     2468.7 secs

     total energy              =   -1281.97953149 Ry
     Harris-Foulkes estimate   =   -1281.97954890 Ry
     estimated scf accuracy    <       0.00005613 Ry

     iteration # 17     ecut=    80.00 Ry     beta=0.70
     Davidson diagonalization with overlap
     ethr =  1.90E-08,  avg # of iterations =  1.0

     total cpu time spent up to now is     2576.0 secs

     total energy              =   -1281.97952758 Ry
     Harris-Foulkes estimate   =   -1281.97953239 Ry
     estimated scf accuracy    <       0.00002984 Ry

     iteration # 18     ecut=    80.00 Ry     beta=0.70
     Davidson diagonalization with overlap
     ethr =  1.33E-08,  avg # of iterations =  5.7

     total cpu time spent up to now is     2722.6 secs

     End of self-consistent calculation

          k = 0.0192 0.0227 0.0217 ( 42201 PWs)   bands (ev):

   -24.0408 -24.0247 -24.0065 -24.0000 -23.7593 -23.7527 -23.7515 -23.7491
   -19.2682 -19.2647 -19.2538 -19.2452 -18.9531 -18.9527 -18.9492 -18.9483
   -18.3338 -18.3151 -17.3068 -17.2701 -17.1479 -17.1467 -16.1255 -16.1152
   -12.2001 -12.1982 -12.1472 -12.0669 -11.9696 -11.9225 -11.8721 -11.8572
    -8.9498  -8.9203  -8.3682  -8.3416  -7.6435  -7.6151  -7.5311  -7.5293
    -6.9281  -6.8473  -6.6588  -6.6128  -6.6000  -6.5040  -6.4125  -6.3625
    -6.2186  -6.1910  -6.1245  -6.0436  -5.9803  -5.9194  -5.8448  -5.8171
    -5.7297  -5.7100  -5.6206  -5.5916  -5.1879  -5.0906  -5.0357  -5.0140
    -4.5560  -4.5421  -4.4831  -4.4481  -4.3238  -4.2487  -3.9353  -3.9284
    -3.7744  -3.6946  -3.6376  -3.6065  -3.2453  -3.2136  -3.1421  -3.1267
    -0.8612  -0.8582  -0.3792  -0.3752  -0.2919  -0.2390  -0.1811  -0.1699
    -0.0772  -0.0636   0.1148   0.1353   0.1560   0.1730   0.3108   0.3247
     0.3639   0.3861   0.5686   0.6125   0.6911   0.7214   0.7989   0.8357
     0.8527   0.9438   1.0006   1.0478   1.1582   1.2539   1.3053   1.3209

     occupation numbers 
     1.0000   1.0000   1.0000   1.0000   1.0000   1.0000   1.0000   1.0000
     1.0000   1.0000   1.0000   1.0000   1.0000   1.0000   1.0000   1.0000
     1.0000   1.0000   1.0000   1.0000   1.0000   1.0000   1.0000   1.0000
     1.0000   1.0000   1.0000   1.0000   1.0000   1.0000   1.0000   1.0000
     1.0000   1.0000   1.0000   1.0000   1.0000   1.0000   1.0000   1.0000
     1.0000   1.0000   1.0000   1.0000   1.0000   1.0000   1.0000   1.0000
     1.0000   1.0000   1.0000   1.0000   1.0000   1.0000   1.0000   1.0000
     1.0000   1.0000   1.0000   1.0000   1.0000   1.0000   1.0000   1.0000
     1.0000   1.0000   1.0000   1.0000   1.0000   1.0000   1.0000   1.0000
     1.0000   1.0000   1.0000   1.0000   1.0000   1.0000   1.0000   1.0000
     1.0000   1.0000   1.0000   1.0000   1.0000   1.0000   1.0000   1.0000
     1.0000   1.0000   1.0000   1.0000   1.0000   1.0000   1.0000   1.0000
     1.0000   1.0000   1.0000   1.0000   1.0000   1.0000   1.0000   1.0000
     1.0000   1.0000   1.0000   1.0000   1.0000   1.0000   1.0000   1.0000

          k = 0.0192 0.0227 0.0565 ( 42187 PWs)   bands (ev):

   -24.0338 -24.0271 -24.0053 -24.0044 -23.7619 -23.7597 -23.7479 -23.7446
   -19.2666 -19.2637 -19.2548 -19.2483 -18.9584 -18.9579 -18.9447 -18.9433
   -18.3254 -18.3253 -17.2895 -17.2877 -17.1433 -17.1415 -16.1223 -16.1214
   -12.2089 -12.2083 -12.1015 -12.0872 -11.9455 -11.9393 -11.8821 -11.8764
    -8.9305  -8.9043  -8.3516  -8.3337  -7.6530  -7.6184  -7.5079  -7.4542
    -6.9748  -6.8874  -6.6630  -6.6458  -6.6006  -6.5092  -6.4550  -6.4280
    -6.2493  -6.2240  -6.0619  -6.0054  -5.9662  -5.9085  -5.8810  -5.8513
    -5.8025  -5.7504  -5.5557  -5.5229  -5.1819  -5.1142  -5.0314  -4.9946
    -4.4970  -4.4826  -4.4567  -4.3863  -4.2530  -4.2358  -4.0478  -4.0431
    -3.7639  -3.7297  -3.5797  -3.5711  -3.2661  -3.2603  -3.1310  -3.1110
    -0.8257  -0.8018  -0.3931  -0.3833  -0.2978  -0.2558  -0.2137  -0.1883
    -0.1347  -0.1068   0.0253   0.0656   0.1692   0.2066   0.2650   0.2811
     0.4893   0.5340   0.5880   0.6203   0.7079   0.7264   0.7498   0.7996
     0.9142   0.9478   1.0269   1.0452   1.1660   1.2164   1.3069   1.3239

     occupation numbers 
     1.0000   1.0000   1.0000   1.0000   1.0000   1.0000   1.0000   1.0000
     1.0000   1.0000   1.0000   1.0000   1.0000   1.0000   1.0000   1.0000
     1.0000   1.0000   1.0000   1.0000   1.0000   1.0000   1.0000   1.0000
     1.0000   1.0000   1.0000   1.0000   1.0000   1.0000   1.0000   1.0000
     1.0000   1.0000   1.0000   1.0000   1.0000   1.0000   1.0000   1.0000
     1.0000   1.0000   1.0000   1.0000   1.0000   1.0000   1.0000   1.0000
     1.0000   1.0000   1.0000   1.0000   1.0000   1.0000   1.0000   1.0000
     1.0000   1.0000   1.0000   1.0000   1.0000   1.0000   1.0000   1.0000
     1.0000   1.0000   1.0000   1.0000   1.0000   1.0000   1.0000   1.0000
     1.0000   1.0000   1.0000   1.0000   1.0000   1.0000   1.0000   1.0000
     1.0000   1.0000   1.0000   1.0000   1.0000   1.0000   1.0000   1.0000
     1.0000   1.0000   1.0000   1.0000   1.0000   1.0000   1.0000   1.0000
     1.0000   1.0000   1.0000   1.0000   1.0000   1.0000   1.0000   1.0000
     1.0000   1.0000   1.0000   1.0000   1.0000   1.0000   1.0000   1.0000

          k = 0.0192 0.0227-0.0479 ( 42218 PWs)   bands (ev):

   -24.0348 -24.0269 -24.0077 -24.0011 -23.7635 -23.7612 -23.7452 -23.7442
   -19.2645 -19.2635 -19.2531 -19.2524 -18.9600 -18.9597 -18.9429 -18.9417
   -18.3341 -18.3155 -17.3054 -17.2713 -17.1461 -17.1444 -16.1245 -16.1129
   -12.2142 -12.2089 -12.1314 -12.0685 -11.9641 -11.9104 -11.8850 -11.8731
    -8.9349  -8.8730  -8.3426  -8.3402  -7.6510  -7.6405  -7.5182  -7.4329
    -6.9780  -6.8972  -6.6735  -6.6393  -6.5780  -6.5575  -6.4783  -6.4477
    -6.2512  -6.2310  -6.0667  -6.0366  -5.9014  -5.8787  -5.8712  -5.8494
    -5.8030  -5.7468  -5.5523  -5.5107  -5.1945  -5.1201  -5.0169  -4.9739
    -4.5331  -4.4823  -4.4182  -4.3747  -4.2896  -4.2419  -4.0464  -4.0133
    -3.7711  -3.7295  -3.6227  -3.5633  -3.2690  -3.2518  -3.1242  -3.1205
    -0.7614  -0.7173  -0.3860  -0.3792  -0.3233  -0.3037  -0.2516  -0.2243
    -0.1695  -0.1620  -0.0116   0.0478   0.1833   0.2105   0.2327   0.2744
     0.5294   0.5945   0.6335   0.6470   0.6672   0.7418   0.7770   0.7887
     0.9136   0.9503   1.0468   1.0835   1.1656   1.1862   1.2940   1.3088

     occupation numbers 
     1.0000   1.0000   1.0000   1.0000   1.0000   1.0000   1.0000   1.0000
     1.0000   1.0000   1.0000   1.0000   1.0000   1.0000   1.0000   1.0000
     1.0000   1.0000   1.0000   1.0000   1.0000   1.0000   1.0000   1.0000
     1.0000   1.0000   1.0000   1.0000   1.0000   1.0000   1.0000   1.0000
     1.0000   1.0000   1.0000   1.0000   1.0000   1.0000   1.0000   1.0000
     1.0000   1.0000   1.0000   1.0000   1.0000   1.0000   1.0000   1.0000
     1.0000   1.0000   1.0000   1.0000   1.0000   1.0000   1.0000   1.0000
     1.0000   1.0000   1.0000   1.0000   1.0000   1.0000   1.0000   1.0000
     1.0000   1.0000   1.0000   1.0000   1.0000   1.0000   1.0000   1.0000
     1.0000   1.0000   1.0000   1.0000   1.0000   1.0000   1.0000   1.0000
     1.0000   1.0000   1.0000   1.0000   1.0000   1.0000   1.0000   1.0000
     1.0000   1.0000   1.0000   1.0000   1.0000   1.0000   1.0000   1.0000
     1.0000   1.0000   1.0000   1.0000   1.0000   1.0000   1.0000   1.0000
     1.0000   1.0000   1.0000   1.0000   1.0000   1.0000   1.0000   1.0000

          k = 0.0192 0.0227-0.0131 ( 42204 PWs)   bands (ev):

   -24.0413 -24.0251 -24.0070 -23.9986 -23.7620 -23.7559 -23.7479 -23.7468
   -19.2671 -19.2636 -19.2541 -19.2472 -18.9565 -18.9564 -18.9452 -18.9451
   -18.3372 -18.3107 -17.3133 -17.2631 -17.1502 -17.1500 -16.1250 -16.1094
   -12.2061 -12.2002 -12.1572 -12.0703 -11.9665 -11.9145 -11.8689 -11.8566
    -8.9553  -8.8880  -8.3636  -8.3439  -7.6489  -7.6337  -7.5554  -7.4926
    -6.8963  -6.8794  -6.6767  -6.6066  -6.5931  -6.5388  -6.4453  -6.3931
    -6.2244  -6.2012  -6.0951  -6.0548  -5.9415  -5.9032  -5.8232  -5.8140
    -5.7366  -5.7090  -5.6026  -5.5915  -5.1726  -5.1305  -5.0188  -4.9787
    -4.5582  -4.5423  -4.4824  -4.4557  -4.3296  -4.2590  -3.9343  -3.8911
    -3.8033  -3.7008  -3.6500  -3.6116  -3.2488  -3.2118  -3.1380  -3.1302
    -0.8137  -0.7955  -0.3699  -0.3648  -0.2939  -0.2489  -0.1838  -0.1677
    -0.1557  -0.1180   0.0057   0.0566   0.1260   0.1841   0.2630   0.3136
     0.4975   0.5354   0.5572   0.6426   0.6699   0.7266   0.8164   0.8213
     0.8669   0.9283   1.0278   1.0774   1.1528   1.2384   1.2916   1.3048

     occupation numbers 
     1.0000   1.0000   1.0000   1.0000   1.0000   1.0000   1.0000   1.0000
     1.0000   1.0000   1.0000   1.0000   1.0000   1.0000   1.0000   1.0000
     1.0000   1.0000   1.0000   1.0000   1.0000   1.0000   1.0000   1.0000
     1.0000   1.0000   1.0000   1.0000   1.0000   1.0000   1.0000   1.0000
     1.0000   1.0000   1.0000   1.0000   1.0000   1.0000   1.0000   1.0000
     1.0000   1.0000   1.0000   1.0000   1.0000   1.0000   1.0000   1.0000
     1.0000   1.0000   1.0000   1.0000   1.0000   1.0000   1.0000   1.0000
     1.0000   1.0000   1.0000   1.0000   1.0000   1.0000   1.0000   1.0000
     1.0000   1.0000   1.0000   1.0000   1.0000   1.0000   1.0000   1.0000
     1.0000   1.0000   1.0000   1.0000   1.0000   1.0000   1.0000   1.0000
     1.0000   1.0000   1.0000   1.0000   1.0000   1.0000   1.0000   1.0000
     1.0000   1.0000   1.0000   1.0000   1.0000   1.0000   1.0000   1.0000
     1.0000   1.0000   1.0000   1.0000   1.0000   1.0000   1.0000   1.0000
     1.0000   1.0000   1.0000   1.0000   1.0000   1.0000   1.0000   1.0000

          k = 0.0575 0.0227 0.0303 ( 42157 PWs)   bands (ev):

   -24.0313 -24.0241 -24.0060 -24.0054 -23.7586 -23.7567 -23.7526 -23.7489
   -19.2664 -19.2638 -19.2556 -19.2491 -18.9558 -18.9551 -18.9473 -18.9460
   -18.3312 -18.3311 -17.2866 -17.2850 -17.1488 -17.1474 -16.1226 -16.1215
   -12.1982 -12.1973 -12.0739 -12.0590 -11.9209 -11.9127 -11.8787 -11.8694
    -8.9494  -8.9251  -8.3678  -8.3514  -7.6366  -7.6215  -7.5925  -7.5534
    -7.0579  -7.0078  -6.7030  -6.6196  -6.5544  -6.5172  -6.3591  -6.3050
    -6.2855  -6.2339  -6.0898  -6.0376  -5.9738  -5.9285  -5.8539  -5.8268
    -5.7299  -5.6988  -5.6251  -5.6136  -5.2111  -5.1287  -5.0005  -4.9925
    -4.5302  -4.5128  -4.4604  -4.4174  -4.1388  -4.0966  -3.8866  -3.8676
    -3.8206  -3.7546  -3.6863  -3.6772  -3.2417  -3.2353  -3.1458  -3.1235
    -0.8177  -0.8080  -0.3607  -0.3569  -0.2907  -0.2697  -0.1816  -0.1488
    -0.1398  -0.1121   0.0476   0.0679   0.1376   0.1555   0.2775   0.2968
     0.5210   0.5295   0.5747   0.6192   0.7114   0.7199   0.7923   0.8196
     0.8623   0.9108   0.9423   0.9791   1.2221   1.2432   1.2922   1.3192

     occupation numbers 
     1.0000   1.0000   1.0000   1.0000   1.0000   1.0000   1.0000   1.0000
     1.0000   1.0000   1.0000   1.0000   1.0000   1.0000   1.0000   1.0000
     1.0000   1.0000   1.0000   1.0000   1.0000   1.0000   1.0000   1.0000
     1.0000   1.0000   1.0000   1.0000   1.0000   1.0000   1.0000   1.0000
     1.0000   1.0000   1.0000   1.0000   1.0000   1.0000   1.0000   1.0000
     1.0000   1.0000   1.0000   1.0000   1.0000   1.0000   1.0000   1.0000
     1.0000   1.0000   1.0000   1.0000   1.0000   1.0000   1.0000   1.0000
     1.0000   1.0000   1.0000   1.0000   1.0000   1.0000   1.0000   1.0000
     1.0000   1.0000   1.0000   1.0000   1.0000   1.0000   1.0000   1.0000
     1.0000   1.0000   1.0000   1.0000   1.0000   1.0000   1.0000   1.0000
     1.0000   1.0000   1.0000   1.0000   1.0000   1.0000   1.0000   1.0000
     1.0000   1.0000   1.0000   1.0000   1.0000   1.0000   1.0000   1.0000
     1.0000   1.0000   1.0000   1.0000   1.0000   1.0000   1.0000   1.0000
     1.0000   1.0000   1.0000   1.0000   1.0000   1.0000   1.0000   1.0000

          k = 0.0575 0.0227 0.0651 ( 42180 PWs)   bands (ev):

   -24.0280 -24.0260 -24.0088 -24.0028 -23.7589 -23.7586 -23.7538 -23.7467
   -19.2671 -19.2651 -19.2558 -19.2481 -18.9651 -18.9636 -18.9399 -18.9370
   -18.3431 -18.3245 -17.3012 -17.2688 -17.1392 -17.1364 -16.1358 -16.1224
   -12.2096 -12.2074 -12.0963 -12.0390 -11.9193 -11.8850 -11.8819 -11.8746
    -8.9824  -8.8922  -8.3618  -8.3354  -7.6346  -7.6164  -7.5596  -7.4616
    -7.1372  -6.9834  -6.6955  -6.5933  -6.5727  -6.5226  -6.4675  -6.3822
    -6.3382  -6.2595  -6.0620  -6.0383  -5.9933  -5.9618  -5.8909  -5.8403
    -5.7156  -5.6732  -5.5686  -5.5181  -5.2187  -5.0954  -5.0542  -5.0098
    -4.4781  -4.4529  -4.4139  -4.3630  -4.0995  -4.0635  -3.9845  -3.9532
    -3.8448  -3.7859  -3.6843  -3.6214  -3.2764  -3.2598  -3.1359  -3.0953
    -0.8877  -0.8572  -0.3662  -0.3421  -0.2899  -0.2696  -0.1734  -0.1473
    -0.0877  -0.0634   0.1159   0.1381   0.1632   0.1831   0.2514   0.3258
     0.4223   0.4410   0.5148   0.6101   0.6845   0.7283   0.7768   0.8033
     0.8902   0.9334   0.9572   0.9867   1.2364   1.2626   1.2954   1.3272

     occupation numbers 
     1.0000   1.0000   1.0000   1.0000   1.0000   1.0000   1.0000   1.0000
     1.0000   1.0000   1.0000   1.0000   1.0000   1.0000   1.0000   1.0000
     1.0000   1.0000   1.0000   1.0000   1.0000   1.0000   1.0000   1.0000
     1.0000   1.0000   1.0000   1.0000   1.0000   1.0000   1.0000   1.0000
     1.0000   1.0000   1.0000   1.0000   1.0000   1.0000   1.0000   1.0000
     1.0000   1.0000   1.0000   1.0000   1.0000   1.0000   1.0000   1.0000
     1.0000   1.0000   1.0000   1.0000   1.0000   1.0000   1.0000   1.0000
     1.0000   1.0000   1.0000   1.0000   1.0000   1.0000   1.0000   1.0000
     1.0000   1.0000   1.0000   1.0000   1.0000   1.0000   1.0000   1.0000
     1.0000   1.0000   1.0000   1.0000   1.0000   1.0000   1.0000   1.0000
     1.0000   1.0000   1.0000   1.0000   1.0000   1.0000   1.0000   1.0000
     1.0000   1.0000   1.0000   1.0000   1.0000   1.0000   1.0000   1.0000
     1.0000   1.0000   1.0000   1.0000   1.0000   1.0000   1.0000   1.0000
     1.0000   1.0000   1.0000   1.0000   1.0000   1.0000   1.0000   1.0000

          k = 0.0575 0.0227-0.0393 ( 42204 PWs)   bands (ev):

   -24.0296 -24.0254 -24.0096 -24.0009 -23.7617 -23.7608 -23.7501 -23.7454
   -19.2654 -19.2642 -19.2563 -19.2505 -18.9660 -18.9646 -18.9388 -18.9360
   -18.3464 -18.3202 -17.3084 -17.2610 -17.1420 -17.1394 -16.1349 -16.1170
   -12.2117 -12.2097 -12.1170 -12.0300 -11.9267 -11.8900 -11.8784 -11.8563
    -8.9763  -8.8716  -8.3576  -8.3366  -7.6345  -7.6172  -7.5803  -7.4516
    -7.1487  -6.9824  -6.6892  -6.6075  -6.5767  -6.5481  -6.4951  -6.4146
    -6.3223  -6.2558  -6.0569  -6.0023  -5.9761  -5.9614  -5.8885  -5.8515
    -5.6952  -5.6679  -5.5716  -5.5143  -5.2192  -5.1233  -5.0242  -4.9909
    -4.4887  -4.4565  -4.3953  -4.3687  -4.1155  -4.0899  -3.9415  -3.9372
    -3.8103  -3.7993  -3.7382  -3.6357  -3.2791  -3.2544  -3.1334  -3.1006
    -0.8444  -0.7977  -0.3612  -0.3275  -0.3003  -0.2764  -0.1810  -0.1643
    -0.1481  -0.1106   0.0507   0.1083   0.1589   0.1932   0.2100   0.2412
     0.4860   0.5436   0.5903   0.5984   0.6981   0.7181   0.7847   0.8028
     0.8911   0.9203   0.9846   1.0292   1.2519   1.2650   1.2705   1.2910

     occupation numbers 
     1.0000   1.0000   1.0000   1.0000   1.0000   1.0000   1.0000   1.0000
     1.0000   1.0000   1.0000   1.0000   1.0000   1.0000   1.0000   1.0000
     1.0000   1.0000   1.0000   1.0000   1.0000   1.0000   1.0000   1.0000
     1.0000   1.0000   1.0000   1.0000   1.0000   1.0000   1.0000   1.0000
     1.0000   1.0000   1.0000   1.0000   1.0000   1.0000   1.0000   1.0000
     1.0000   1.0000   1.0000   1.0000   1.0000   1.0000   1.0000   1.0000
     1.0000   1.0000   1.0000   1.0000   1.0000   1.0000   1.0000   1.0000
     1.0000   1.0000   1.0000   1.0000   1.0000   1.0000   1.0000   1.0000
     1.0000   1.0000   1.0000   1.0000   1.0000   1.0000   1.0000   1.0000
     1.0000   1.0000   1.0000   1.0000   1.0000   1.0000   1.0000   1.0000
     1.0000   1.0000   1.0000   1.0000   1.0000   1.0000   1.0000   1.0000
     1.0000   1.0000   1.0000   1.0000   1.0000   1.0000   1.0000   1.0000
     1.0000   1.0000   1.0000   1.0000   1.0000   1.0000   1.0000   1.0000
     1.0000   1.0000   1.0000   1.0000   1.0000   1.0000   1.0000   1.0000

          k = 0.0575 0.0227-0.0045 ( 42154 PWs)   bands (ev):

   -24.0322 -24.0242 -24.0084 -24.0020 -23.7616 -23.7590 -23.7488 -23.7474
   -19.2644 -19.2633 -19.2540 -19.2534 -18.9582 -18.9576 -18.9446 -18.9436
   -18.3400 -18.3213 -17.3028 -17.2680 -17.1513 -17.1508 -16.1249 -16.1130
   -12.2004 -12.1995 -12.1080 -12.0360 -11.9373 -11.9003 -11.8705 -11.8647
    -8.9539  -8.8932  -8.3602  -8.3565  -7.6381  -7.6304  -7.6133  -7.5364
    -7.0665  -7.0013  -6.6770  -6.6576  -6.5520  -6.5482  -6.4016  -6.3771
    -6.2379  -6.2336  -6.0513  -6.0237  -5.9348  -5.9079  -5.8597  -5.8486
    -5.7163  -5.7026  -5.6229  -5.6139  -5.1855  -5.1695  -4.9783  -4.9705
    -4.5359  -4.5109  -4.4568  -4.4233  -4.1379  -4.1173  -3.8604  -3.8565
    -3.7877  -3.7675  -3.7328  -3.6960  -3.2517  -3.2264  -3.1405  -3.1301
    -0.7631  -0.7275  -0.3611  -0.3505  -0.2909  -0.2759  -0.2520  -0.2389
    -0.1549  -0.1223   0.0064   0.0536   0.1275   0.1591   0.2548   0.2854
     0.5085   0.5662   0.6335   0.6731   0.6936   0.7424   0.8076   0.8228
     0.8705   0.8853   0.9601   1.0257   1.2361   1.2397   1.2699   1.2836

     occupation numbers 
     1.0000   1.0000   1.0000   1.0000   1.0000   1.0000   1.0000   1.0000
     1.0000   1.0000   1.0000   1.0000   1.0000   1.0000   1.0000   1.0000
     1.0000   1.0000   1.0000   1.0000   1.0000   1.0000   1.0000   1.0000
     1.0000   1.0000   1.0000   1.0000   1.0000   1.0000   1.0000   1.0000
     1.0000   1.0000   1.0000   1.0000   1.0000   1.0000   1.0000   1.0000
     1.0000   1.0000   1.0000   1.0000   1.0000   1.0000   1.0000   1.0000
     1.0000   1.0000   1.0000   1.0000   1.0000   1.0000   1.0000   1.0000
     1.0000   1.0000   1.0000   1.0000   1.0000   1.0000   1.0000   1.0000
     1.0000   1.0000   1.0000   1.0000   1.0000   1.0000   1.0000   1.0000
     1.0000   1.0000   1.0000   1.0000   1.0000   1.0000   1.0000   1.0000
     1.0000   1.0000   1.0000   1.0000   1.0000   1.0000   1.0000   1.0000
     1.0000   1.0000   1.0000   1.0000   1.0000   1.0000   1.0000   1.0000
     1.0000   1.0000   1.0000   1.0000   1.0000   1.0000   1.0000   1.0000
     1.0000   1.0000   1.0000   1.0000   1.0000   1.0000   1.0000   1.0000

          k =-0.0192 0.0227-0.0217 ( 42201 PWs)   bands (ev):

   -24.0408 -24.0247 -24.0065 -24.0000 -23.7593 -23.7527 -23.7515 -23.7491
   -19.2682 -19.2647 -19.2538 -19.2452 -18.9531 -18.9527 -18.9492 -18.9483
   -18.3338 -18.3151 -17.3068 -17.2701 -17.1479 -17.1467 -16.1255 -16.1152
   -12.2001 -12.1983 -12.1472 -12.0669 -11.9696 -11.9225 -11.8721 -11.8572
    -8.9498  -8.9204  -8.3682  -8.3416  -7.6435  -7.6151  -7.5311  -7.5293
    -6.9281  -6.8473  -6.6588  -6.6128  -6.6000  -6.5040  -6.4125  -6.3625
    -6.2186  -6.1910  -6.1245  -6.0436  -5.9803  -5.9194  -5.8449  -5.8171
    -5.7297  -5.7100  -5.6206  -5.5916  -5.1879  -5.0907  -5.0357  -5.0141
    -4.5561  -4.5422  -4.4831  -4.4481  -4.3238  -4.2487  -3.9353  -3.9284
    -3.7744  -3.6946  -3.6376  -3.6065  -3.2453  -3.2136  -3.1421  -3.1267
    -0.8612  -0.8583  -0.3792  -0.3752  -0.2918  -0.2390  -0.1811  -0.1698
    -0.0772  -0.0636   0.1148   0.1353   0.1560   0.1730   0.3108   0.3247
     0.3638   0.3861   0.5685   0.6125   0.6911   0.7214   0.7989   0.8357
     0.8527   0.9438   1.0006   1.0478   1.1582   1.2539   1.3054   1.3209

     occupation numbers 
     1.0000   1.0000   1.0000   1.0000   1.0000   1.0000   1.0000   1.0000
     1.0000   1.0000   1.0000   1.0000   1.0000   1.0000   1.0000   1.0000
     1.0000   1.0000   1.0000   1.0000   1.0000   1.0000   1.0000   1.0000
     1.0000   1.0000   1.0000   1.0000   1.0000   1.0000   1.0000   1.0000
     1.0000   1.0000   1.0000   1.0000   1.0000   1.0000   1.0000   1.0000
     1.0000   1.0000   1.0000   1.0000   1.0000   1.0000   1.0000   1.0000
     1.0000   1.0000   1.0000   1.0000   1.0000   1.0000   1.0000   1.0000
     1.0000   1.0000   1.0000   1.0000   1.0000   1.0000   1.0000   1.0000
     1.0000   1.0000   1.0000   1.0000   1.0000   1.0000   1.0000   1.0000
     1.0000   1.0000   1.0000   1.0000   1.0000   1.0000   1.0000   1.0000
     1.0000   1.0000   1.0000   1.0000   1.0000   1.0000   1.0000   1.0000
     1.0000   1.0000   1.0000   1.0000   1.0000   1.0000   1.0000   1.0000
     1.0000   1.0000   1.0000   1.0000   1.0000   1.0000   1.0000   1.0000
     1.0000   1.0000   1.0000   1.0000   1.0000   1.0000   1.0000   1.0000

          k =-0.0192 0.0227-0.0565 ( 42187 PWs)   bands (ev):

   -24.0338 -24.0271 -24.0053 -24.0044 -23.7619 -23.7597 -23.7479 -23.7446
   -19.2666 -19.2637 -19.2548 -19.2483 -18.9584 -18.9579 -18.9447 -18.9433
   -18.3253 -18.3253 -17.2895 -17.2877 -17.1433 -17.1415 -16.1223 -16.1214
   -12.2090 -12.2082 -12.1015 -12.0872 -11.9455 -11.9393 -11.8821 -11.8764
    -8.9305  -8.9043  -8.3516  -8.3337  -7.6530  -7.6184  -7.5079  -7.4542
    -6.9748  -6.8874  -6.6629  -6.6459  -6.6006  -6.5091  -6.4550  -6.4280
    -6.2493  -6.2240  -6.0619  -6.0054  -5.9662  -5.9085  -5.8810  -5.8513
    -5.8025  -5.7504  -5.5557  -5.5229  -5.1819  -5.1142  -5.0314  -4.9946
    -4.4970  -4.4826  -4.4567  -4.3863  -4.2530  -4.2358  -4.0478  -4.0431
    -3.7639  -3.7297  -3.5797  -3.5711  -3.2661  -3.2603  -3.1310  -3.1110
    -0.8257  -0.8019  -0.3931  -0.3833  -0.2977  -0.2558  -0.2137  -0.1883
    -0.1348  -0.1068   0.0253   0.0656   0.1692   0.2066   0.2650   0.2811
     0.4893   0.5340   0.5880   0.6204   0.7079   0.7265   0.7498   0.7995
     0.9143   0.9478   1.0269   1.0452   1.1660   1.2164   1.3069   1.3238

     occupation numbers 
     1.0000   1.0000   1.0000   1.0000   1.0000   1.0000   1.0000   1.0000
     1.0000   1.0000   1.0000   1.0000   1.0000   1.0000   1.0000   1.0000
     1.0000   1.0000   1.0000   1.0000   1.0000   1.0000   1.0000   1.0000
     1.0000   1.0000   1.0000   1.0000   1.0000   1.0000   1.0000   1.0000
     1.0000   1.0000   1.0000   1.0000   1.0000   1.0000   1.0000   1.0000
     1.0000   1.0000   1.0000   1.0000   1.0000   1.0000   1.0000   1.0000
     1.0000   1.0000   1.0000   1.0000   1.0000   1.0000   1.0000   1.0000
     1.0000   1.0000   1.0000   1.0000   1.0000   1.0000   1.0000   1.0000
     1.0000   1.0000   1.0000   1.0000   1.0000   1.0000   1.0000   1.0000
     1.0000   1.0000   1.0000   1.0000   1.0000   1.0000   1.0000   1.0000
     1.0000   1.0000   1.0000   1.0000   1.0000   1.0000   1.0000   1.0000
     1.0000   1.0000   1.0000   1.0000   1.0000   1.0000   1.0000   1.0000
     1.0000   1.0000   1.0000   1.0000   1.0000   1.0000   1.0000   1.0000
     1.0000   1.0000   1.0000   1.0000   1.0000   1.0000   1.0000   1.0000

          k =-0.0192 0.0227 0.0479 ( 42218 PWs)   bands (ev):

   -24.0348 -24.0269 -24.0077 -24.0011 -23.7635 -23.7612 -23.7452 -23.7442
   -19.2645 -19.2635 -19.2531 -19.2524 -18.9600 -18.9597 -18.9429 -18.9417
   -18.3341 -18.3155 -17.3054 -17.2713 -17.1461 -17.1444 -16.1246 -16.1129
   -12.2143 -12.2089 -12.1314 -12.0685 -11.9641 -11.9104 -11.8850 -11.8731
    -8.9349  -8.8730  -8.3426  -8.3402  -7.6510  -7.6405  -7.5182  -7.4329
    -6.9780  -6.8972  -6.6735  -6.6394  -6.5780  -6.5574  -6.4784  -6.4477
    -6.2512  -6.2310  -6.0667  -6.0366  -5.9014  -5.8786  -5.8712  -5.8494
    -5.8030  -5.7467  -5.5523  -5.5107  -5.1945  -5.1201  -5.0169  -4.9740
    -4.5331  -4.4823  -4.4182  -4.3747  -4.2896  -4.2419  -4.0464  -4.0133
    -3.7711  -3.7295  -3.6227  -3.5633  -3.2690  -3.2518  -3.1242  -3.1205
    -0.7614  -0.7173  -0.3860  -0.3792  -0.3233  -0.3037  -0.2516  -0.2243
    -0.1695  -0.1620  -0.0116   0.0478   0.1833   0.2105   0.2327   0.2744
     0.5294   0.5945   0.6335   0.6470   0.6672   0.7418   0.7770   0.7887
     0.9136   0.9503   1.0468   1.0835   1.1656   1.1862   1.2940   1.3087

     occupation numbers 
     1.0000   1.0000   1.0000   1.0000   1.0000   1.0000   1.0000   1.0000
     1.0000   1.0000   1.0000   1.0000   1.0000   1.0000   1.0000   1.0000
     1.0000   1.0000   1.0000   1.0000   1.0000   1.0000   1.0000   1.0000
     1.0000   1.0000   1.0000   1.0000   1.0000   1.0000   1.0000   1.0000
     1.0000   1.0000   1.0000   1.0000   1.0000   1.0000   1.0000   1.0000
     1.0000   1.0000   1.0000   1.0000   1.0000   1.0000   1.0000   1.0000
     1.0000   1.0000   1.0000   1.0000   1.0000   1.0000   1.0000   1.0000
     1.0000   1.0000   1.0000   1.0000   1.0000   1.0000   1.0000   1.0000
     1.0000   1.0000   1.0000   1.0000   1.0000   1.0000   1.0000   1.0000
     1.0000   1.0000   1.0000   1.0000   1.0000   1.0000   1.0000   1.0000
     1.0000   1.0000   1.0000   1.0000   1.0000   1.0000   1.0000   1.0000
     1.0000   1.0000   1.0000   1.0000   1.0000   1.0000   1.0000   1.0000
     1.0000   1.0000   1.0000   1.0000   1.0000   1.0000   1.0000   1.0000
     1.0000   1.0000   1.0000   1.0000   1.0000   1.0000   1.0000   1.0000

          k =-0.0192 0.0227 0.0131 ( 42204 PWs)   bands (ev):

   -24.0413 -24.0251 -24.0070 -23.9986 -23.7620 -23.7559 -23.7479 -23.7468
   -19.2671 -19.2636 -19.2541 -19.2472 -18.9565 -18.9564 -18.9452 -18.9451
   -18.3372 -18.3107 -17.3133 -17.2631 -17.1503 -17.1500 -16.1250 -16.1094
   -12.2062 -12.2001 -12.1572 -12.0703 -11.9665 -11.9145 -11.8689 -11.8566
    -8.9553  -8.8880  -8.3636  -8.3439  -7.6489  -7.6337  -7.5554  -7.4926
    -6.8963  -6.8794  -6.6767  -6.6067  -6.5929  -6.5389  -6.4453  -6.3931
    -6.2244  -6.2012  -6.0951  -6.0548  -5.9415  -5.9032  -5.8232  -5.8140
    -5.7365  -5.7090  -5.6026  -5.5915  -5.1725  -5.1306  -5.0188  -4.9787
    -4.5582  -4.5423  -4.4824  -4.4557  -4.3296  -4.2590  -3.9343  -3.8911
    -3.8033  -3.7008  -3.6500  -3.6116  -3.2488  -3.2118  -3.1380  -3.1302
    -0.8137  -0.7955  -0.3699  -0.3648  -0.2939  -0.2489  -0.1838  -0.1677
    -0.1557  -0.1180   0.0056   0.0566   0.1260   0.1841   0.2630   0.3136
     0.4975   0.5355   0.5571   0.6427   0.6699   0.7266   0.8164   0.8213
     0.8669   0.9283   1.0278   1.0774   1.1528   1.2385   1.2915   1.3048

     occupation numbers 
     1.0000   1.0000   1.0000   1.0000   1.0000   1.0000   1.0000   1.0000
     1.0000   1.0000   1.0000   1.0000   1.0000   1.0000   1.0000   1.0000
     1.0000   1.0000   1.0000   1.0000   1.0000   1.0000   1.0000   1.0000
     1.0000   1.0000   1.0000   1.0000   1.0000   1.0000   1.0000   1.0000
     1.0000   1.0000   1.0000   1.0000   1.0000   1.0000   1.0000   1.0000
     1.0000   1.0000   1.0000   1.0000   1.0000   1.0000   1.0000   1.0000
     1.0000   1.0000   1.0000   1.0000   1.0000   1.0000   1.0000   1.0000
     1.0000   1.0000   1.0000   1.0000   1.0000   1.0000   1.0000   1.0000
     1.0000   1.0000   1.0000   1.0000   1.0000   1.0000   1.0000   1.0000
     1.0000   1.0000   1.0000   1.0000   1.0000   1.0000   1.0000   1.0000
     1.0000   1.0000   1.0000   1.0000   1.0000   1.0000   1.0000   1.0000
     1.0000   1.0000   1.0000   1.0000   1.0000   1.0000   1.0000   1.0000
     1.0000   1.0000   1.0000   1.0000   1.0000   1.0000   1.0000   1.0000
     1.0000   1.0000   1.0000   1.0000   1.0000   1.0000   1.0000   1.0000

          k =-0.0575 0.0227-0.0303 ( 42157 PWs)   bands (ev):

   -24.0313 -24.0241 -24.0060 -24.0054 -23.7586 -23.7567 -23.7526 -23.7489
   -19.2664 -19.2638 -19.2556 -19.2491 -18.9558 -18.9551 -18.9473 -18.9460
   -18.3312 -18.3311 -17.2866 -17.2850 -17.1488 -17.1474 -16.1226 -16.1215
   -12.1983 -12.1973 -12.0739 -12.0590 -11.9209 -11.9127 -11.8787 -11.8694
    -8.9494  -8.9251  -8.3678  -8.3514  -7.6366  -7.6214  -7.5925  -7.5534
    -7.0579  -7.0078  -6.7030  -6.6195  -6.5544  -6.5172  -6.3590  -6.3050
    -6.2855  -6.2338  -6.0898  -6.0376  -5.9738  -5.9285  -5.8539  -5.8268
    -5.7299  -5.6988  -5.6250  -5.6137  -5.2111  -5.1286  -5.0005  -4.9925
    -4.5303  -4.5127  -4.4604  -4.4174  -4.1388  -4.0966  -3.8866  -3.8676
    -3.8206  -3.7546  -3.6864  -3.6772  -3.2417  -3.2353  -3.1459  -3.1235
    -0.8177  -0.8081  -0.3607  -0.3569  -0.2907  -0.2697  -0.1816  -0.1488
    -0.1398  -0.1121   0.0476   0.0679   0.1376   0.1555   0.2775   0.2968
     0.5210   0.5296   0.5747   0.6192   0.7114   0.7199   0.7923   0.8196
     0.8623   0.9108   0.9423   0.9791   1.2221   1.2432   1.2922   1.3192

     occupation numbers 
     1.0000   1.0000   1.0000   1.0000   1.0000   1.0000   1.0000   1.0000
     1.0000   1.0000   1.0000   1.0000   1.0000   1.0000   1.0000   1.0000
     1.0000   1.0000   1.0000   1.0000   1.0000   1.0000   1.0000   1.0000
     1.0000   1.0000   1.0000   1.0000   1.0000   1.0000   1.0000   1.0000
     1.0000   1.0000   1.0000   1.0000   1.0000   1.0000   1.0000   1.0000
     1.0000   1.0000   1.0000   1.0000   1.0000   1.0000   1.0000   1.0000
     1.0000   1.0000   1.0000   1.0000   1.0000   1.0000   1.0000   1.0000
     1.0000   1.0000   1.0000   1.0000   1.0000   1.0000   1.0000   1.0000
     1.0000   1.0000   1.0000   1.0000   1.0000   1.0000   1.0000   1.0000
     1.0000   1.0000   1.0000   1.0000   1.0000   1.0000   1.0000   1.0000
     1.0000   1.0000   1.0000   1.0000   1.0000   1.0000   1.0000   1.0000
     1.0000   1.0000   1.0000   1.0000   1.0000   1.0000   1.0000   1.0000
     1.0000   1.0000   1.0000   1.0000   1.0000   1.0000   1.0000   1.0000
     1.0000   1.0000   1.0000   1.0000   1.0000   1.0000   1.0000   1.0000

          k =-0.0575 0.0227-0.0651 ( 42180 PWs)   bands (ev):

   -24.0280 -24.0260 -24.0088 -24.0028 -23.7589 -23.7586 -23.7538 -23.7467
   -19.2671 -19.2651 -19.2558 -19.2481 -18.9651 -18.9636 -18.9399 -18.9370
   -18.3431 -18.3245 -17.3012 -17.2688 -17.1392 -17.1364 -16.1358 -16.1224
   -12.2097 -12.2074 -12.0963 -12.0390 -11.9194 -11.8850 -11.8819 -11.8746
    -8.9824  -8.8922  -8.3618  -8.3354  -7.6346  -7.6164  -7.5596  -7.4616
    -7.1371  -6.9834  -6.6955  -6.5932  -6.5728  -6.5227  -6.4675  -6.3822
    -6.3381  -6.2596  -6.0620  -6.0384  -5.9933  -5.9618  -5.8909  -5.8403
    -5.7156  -5.6732  -5.5687  -5.5181  -5.2187  -5.0954  -5.0543  -5.0098
    -4.4781  -4.4529  -4.4139  -4.3630  -4.0995  -4.0635  -3.9845  -3.9532
    -3.8448  -3.7859  -3.6843  -3.6214  -3.2764  -3.2598  -3.1359  -3.0953
    -0.8876  -0.8572  -0.3662  -0.3421  -0.2899  -0.2697  -0.1734  -0.1473
    -0.0877  -0.0634   0.1159   0.1381   0.1632   0.1831   0.2514   0.3258
     0.4222   0.4411   0.5148   0.6101   0.6845   0.7283   0.7768   0.8033
     0.8902   0.9334   0.9572   0.9867   1.2365   1.2626   1.2954   1.3272

     occupation numbers 
     1.0000   1.0000   1.0000   1.0000   1.0000   1.0000   1.0000   1.0000
     1.0000   1.0000   1.0000   1.0000   1.0000   1.0000   1.0000   1.0000
     1.0000   1.0000   1.0000   1.0000   1.0000   1.0000   1.0000   1.0000
     1.0000   1.0000   1.0000   1.0000   1.0000   1.0000   1.0000   1.0000
     1.0000   1.0000   1.0000   1.0000   1.0000   1.0000   1.0000   1.0000
     1.0000   1.0000   1.0000   1.0000   1.0000   1.0000   1.0000   1.0000
     1.0000   1.0000   1.0000   1.0000   1.0000   1.0000   1.0000   1.0000
     1.0000   1.0000   1.0000   1.0000   1.0000   1.0000   1.0000   1.0000
     1.0000   1.0000   1.0000   1.0000   1.0000   1.0000   1.0000   1.0000
     1.0000   1.0000   1.0000   1.0000   1.0000   1.0000   1.0000   1.0000
     1.0000   1.0000   1.0000   1.0000   1.0000   1.0000   1.0000   1.0000
     1.0000   1.0000   1.0000   1.0000   1.0000   1.0000   1.0000   1.0000
     1.0000   1.0000   1.0000   1.0000   1.0000   1.0000   1.0000   1.0000
     1.0000   1.0000   1.0000   1.0000   1.0000   1.0000   1.0000   1.0000

          k =-0.0575 0.0227 0.0393 ( 42204 PWs)   bands (ev):

   -24.0296 -24.0254 -24.0096 -24.0009 -23.7617 -23.7608 -23.7501 -23.7454
   -19.2654 -19.2642 -19.2563 -19.2505 -18.9660 -18.9646 -18.9388 -18.9360
   -18.3464 -18.3202 -17.3084 -17.2610 -17.1420 -17.1394 -16.1349 -16.1170
   -12.2118 -12.2097 -12.1170 -12.0300 -11.9267 -11.8900 -11.8784 -11.8563
    -8.9763  -8.8716  -8.3576  -8.3366  -7.6345  -7.6172  -7.5803  -7.4516
    -7.1487  -6.9824  -6.6892  -6.6076  -6.5767  -6.5481  -6.4951  -6.4146
    -6.3223  -6.2558  -6.0569  -6.0024  -5.9761  -5.9614  -5.8885  -5.8515
    -5.6952  -5.6679  -5.5716  -5.5143  -5.2192  -5.1234  -5.0241  -4.9910
    -4.4887  -4.4565  -4.3953  -4.3687  -4.1155  -4.0899  -3.9414  -3.9372
    -3.8104  -3.7993  -3.7382  -3.6357  -3.2791  -3.2544  -3.1334  -3.1006
    -0.8444  -0.7977  -0.3612  -0.3275  -0.3003  -0.2764  -0.1810  -0.1642
    -0.1481  -0.1106   0.0507   0.1083   0.1589   0.1932   0.2101   0.2412
     0.4860   0.5436   0.5902   0.5984   0.6981   0.7181   0.7847   0.8028
     0.8911   0.9203   0.9845   1.0292   1.2519   1.2650   1.2705   1.2909

     occupation numbers 
     1.0000   1.0000   1.0000   1.0000   1.0000   1.0000   1.0000   1.0000
     1.0000   1.0000   1.0000   1.0000   1.0000   1.0000   1.0000   1.0000
     1.0000   1.0000   1.0000   1.0000   1.0000   1.0000   1.0000   1.0000
     1.0000   1.0000   1.0000   1.0000   1.0000   1.0000   1.0000   1.0000
     1.0000   1.0000   1.0000   1.0000   1.0000   1.0000   1.0000   1.0000
     1.0000   1.0000   1.0000   1.0000   1.0000   1.0000   1.0000   1.0000
     1.0000   1.0000   1.0000   1.0000   1.0000   1.0000   1.0000   1.0000
     1.0000   1.0000   1.0000   1.0000   1.0000   1.0000   1.0000   1.0000
     1.0000   1.0000   1.0000   1.0000   1.0000   1.0000   1.0000   1.0000
     1.0000   1.0000   1.0000   1.0000   1.0000   1.0000   1.0000   1.0000
     1.0000   1.0000   1.0000   1.0000   1.0000   1.0000   1.0000   1.0000
     1.0000   1.0000   1.0000   1.0000   1.0000   1.0000   1.0000   1.0000
     1.0000   1.0000   1.0000   1.0000   1.0000   1.0000   1.0000   1.0000
     1.0000   1.0000   1.0000   1.0000   1.0000   1.0000   1.0000   1.0000

          k =-0.0575 0.0227 0.0045 ( 42154 PWs)   bands (ev):

   -24.0322 -24.0242 -24.0084 -24.0020 -23.7616 -23.7590 -23.7487 -23.7474
   -19.2644 -19.2633 -19.2540 -19.2534 -18.9582 -18.9576 -18.9447 -18.9436
   -18.3400 -18.3213 -17.3028 -17.2680 -17.1513 -17.1508 -16.1249 -16.1130
   -12.2005 -12.1995 -12.1080 -12.0360 -11.9373 -11.9003 -11.8705 -11.8647
    -8.9539  -8.8932  -8.3602  -8.3564  -7.6381  -7.6304  -7.6133  -7.5363
    -7.0665  -7.0013  -6.6771  -6.6575  -6.5520  -6.5482  -6.4016  -6.3771
    -6.2379  -6.2335  -6.0513  -6.0237  -5.9349  -5.9079  -5.8596  -5.8486
    -5.7163  -5.7026  -5.6229  -5.6139  -5.1855  -5.1695  -4.9783  -4.9705
    -4.5360  -4.5108  -4.4568  -4.4233  -4.1378  -4.1173  -3.8605  -3.8565
    -3.7877  -3.7675  -3.7328  -3.6960  -3.2517  -3.2264  -3.1405  -3.1301
    -0.7631  -0.7275  -0.3611  -0.3505  -0.2909  -0.2758  -0.2520  -0.2389
    -0.1549  -0.1222   0.0064   0.0536   0.1275   0.1591   0.2548   0.2853
     0.5085   0.5662   0.6335   0.6730   0.6936   0.7424   0.8076   0.8228
     0.8706   0.8853   0.9600   1.0257   1.2361   1.2397   1.2699   1.2836

     occupation numbers 
     1.0000   1.0000   1.0000   1.0000   1.0000   1.0000   1.0000   1.0000
     1.0000   1.0000   1.0000   1.0000   1.0000   1.0000   1.0000   1.0000
     1.0000   1.0000   1.0000   1.0000   1.0000   1.0000   1.0000   1.0000
     1.0000   1.0000   1.0000   1.0000   1.0000   1.0000   1.0000   1.0000
     1.0000   1.0000   1.0000   1.0000   1.0000   1.0000   1.0000   1.0000
     1.0000   1.0000   1.0000   1.0000   1.0000   1.0000   1.0000   1.0000
     1.0000   1.0000   1.0000   1.0000   1.0000   1.0000   1.0000   1.0000
     1.0000   1.0000   1.0000   1.0000   1.0000   1.0000   1.0000   1.0000
     1.0000   1.0000   1.0000   1.0000   1.0000   1.0000   1.0000   1.0000
     1.0000   1.0000   1.0000   1.0000   1.0000   1.0000   1.0000   1.0000
     1.0000   1.0000   1.0000   1.0000   1.0000   1.0000   1.0000   1.0000
     1.0000   1.0000   1.0000   1.0000   1.0000   1.0000   1.0000   1.0000
     1.0000   1.0000   1.0000   1.0000   1.0000   1.0000   1.0000   1.0000
     1.0000   1.0000   1.0000   1.0000   1.0000   1.0000   1.0000   1.0000

     highest occupied level (ev):     1.3272

!    total energy              =   -1281.97953213 Ry
     Harris-Foulkes estimate   =   -1281.97953287 Ry
     estimated scf accuracy    <       0.00000082 Ry

     total all-electron energy =     -4786.423280 Ry

     The total energy is the sum of the following terms:

     one-electron contribution =    -654.41474504 Ry
     hartree contribution      =     424.87995335 Ry
     xc contribution           =    -260.41040855 Ry
     ewald contribution        =    -461.63880349 Ry
     one-center paw contrib.   =    -330.39552840 Ry

     convergence has been achieved in  18 iterations

     Forces acting on atoms (Ry/au):

     atom    1 type  1   force =    -0.01133838   -0.00707611   -0.01213549
     atom    2 type  4   force =     0.03485400    0.00952841   -0.02292127
     atom    3 type  1   force =    -0.00360664   -0.01278702   -0.01364438
     atom    4 type  1   force =     0.01296941   -0.00705647    0.00510443
     atom    5 type  4   force =     0.00380491   -0.03918567    0.04228275
     atom    6 type  1   force =     0.01632255    0.01041472   -0.01495375
     atom    7 type  4   force =    -0.01093441    0.02329792    0.04618332
     atom    8 type  2   force =     0.19640579   -0.12640139    0.05896133
     atom    9 type  3   force =    -0.15429478   -0.06630395   -0.15734756
     atom   10 type  3   force =    -0.05231318    0.20175738    0.09204418
     atom   11 type  4   force =    -0.04540809    0.02762003   -0.01829374
     atom   12 type  2   force =     0.11975767   -0.05876225    0.20828733
     atom   13 type  3   force =    -0.19745387   -0.09914248   -0.06291839
     atom   14 type  3   force =     0.06710550    0.15537580   -0.15250800
     atom   15 type  3   force =     0.06710533   -0.15537613   -0.15250943
     atom   16 type  3   force =    -0.19745447    0.09914366   -0.06291908
     atom   17 type  2   force =     0.11975751    0.05876108    0.20827908
     atom   18 type  4   force =    -0.04542400   -0.02765171   -0.01829642
     atom   19 type  3   force =    -0.05231243   -0.20175762    0.09204554
     atom   20 type  3   force =    -0.15429495    0.06630509   -0.15734638
     atom   21 type  2   force =     0.19640744    0.12640014    0.05896304
     atom   22 type  4   force =    -0.01090332   -0.02327312    0.04609812
     atom   23 type  1   force =     0.01631394   -0.01043105   -0.01496918
     atom   24 type  4   force =     0.00380364    0.03918172    0.04229009
     atom   25 type  1   force =     0.01296858    0.00704992    0.00510415
     atom   26 type  1   force =    -0.00363667    0.01276743   -0.01357892
     atom   27 type  4   force =     0.03493633   -0.00954241   -0.02298848
     atom   28 type  1   force =    -0.01134104    0.00707826   -0.01213703
     atom   29 type  3   force =    -0.06710550   -0.15537580    0.15250800
     atom   30 type  3   force =     0.19745387    0.09914248    0.06291839
     atom   31 type  2   force =    -0.11975767    0.05876225   -0.20828733
     atom   32 type  4   force =     0.04540809   -0.02762003    0.01829374
     atom   33 type  3   force =     0.05231318   -0.20175738   -0.09204418
     atom   34 type  3   force =     0.15429478    0.06630395    0.15734756
     atom   35 type  2   force =    -0.19640579    0.12640139   -0.05896133
     atom   36 type  4   force =     0.01093441   -0.02329792   -0.04618332
     atom   37 type  1   force =    -0.01632255   -0.01041472    0.01495375
     atom   38 type  4   force =    -0.00380491    0.03918567   -0.04228275
     atom   39 type  1   force =    -0.01296941    0.00705647   -0.00510443
     atom   40 type  1   force =     0.00360664    0.01278702    0.01364438
     atom   41 type  4   force =    -0.03485400   -0.00952841    0.02292127
     atom   42 type  1   force =     0.01133838    0.00707611    0.01213549
     atom   43 type  3   force =    -0.06710533    0.15537613    0.15250943
     atom   44 type  3   force =     0.19745447   -0.09914366    0.06291908
     atom   45 type  2   force =    -0.11975751   -0.05876108   -0.20827908
     atom   46 type  4   force =     0.04542400    0.02765171    0.01829642
     atom   47 type  3   force =     0.05231243    0.20175762   -0.09204554
     atom   48 type  3   force =     0.15429495   -0.06630509    0.15734638
     atom   49 type  2   force =    -0.19640744   -0.12640014   -0.05896304
     atom   50 type  4   force =     0.01090332    0.02327312   -0.04609812
     atom   51 type  1   force =    -0.01631394    0.01043105    0.01496918
     atom   52 type  4   force =    -0.00380364   -0.03918172   -0.04229009
     atom   53 type  1   force =    -0.01296858   -0.00704992   -0.00510415
     atom   54 type  1   force =     0.00363667   -0.01276743    0.01357892
     atom   55 type  4   force =    -0.03493633    0.00954241    0.02298848
     atom   56 type  1   force =     0.01134104   -0.00707826    0.01213703
     The non-local contrib.  to forces
     atom    1 type  1   force =     0.16245480    0.38325566    0.10795353
     atom    2 type  4   force =    -2.40916339   -0.47666161    1.54160700
     atom    3 type  1   force =     0.04627857   -0.03430176    0.05311488
     atom    4 type  1   force =    -0.56792211   -0.40768953   -0.11090803
     atom    5 type  4   force =     0.14527575    1.88399875   -2.23701231
     atom    6 type  1   force =    -0.00552837    0.06338556    0.05494164
     atom    7 type  4   force =     0.54765835   -1.16453282   -2.63104105
     atom    8 type  2   force =     0.65343821   -0.44623863    0.18141940
     atom    9 type  3   force =     0.08168551    0.02758053    0.07204789
     atom   10 type  3   force =     0.02978815   -0.10126740   -0.04145480
     atom   11 type  4   force =     2.27223561   -1.50114243    0.81654221
     atom   12 type  2   force =     0.37917768   -0.19464167    0.69468267
     atom   13 type  3   force =     0.09376981    0.04874941    0.03925716
     atom   14 type  3   force =    -0.02943994   -0.07514774    0.08005626
     atom   15 type  3   force =    -0.02943984    0.07514755    0.08005585
     atom   16 type  3   force =     0.09376957   -0.04874921    0.03925691
     atom   17 type  2   force =     0.37917896    0.19463941    0.69467787
     atom   18 type  4   force =     2.27221837    1.50113814    0.81653001
     atom   19 type  3   force =     0.02978824    0.10126759   -0.04145477
     atom   20 type  3   force =     0.08168508   -0.02758035    0.07204753
     atom   21 type  2   force =     0.65343817    0.44624355    0.18141342
     atom   22 type  4   force =     0.54768860    1.16457143   -2.63115404
     atom   23 type  1   force =    -0.00554679   -0.06340684    0.05492845
     atom   24 type  4   force =     0.14526490   -1.88399091   -2.23700792
     atom   25 type  1   force =    -0.56792671    0.40768945   -0.11090746
     atom   26 type  1   force =     0.04628290    0.03429455    0.05311787
     atom   27 type  4   force =    -2.40908804    0.47665451    1.54153512
     atom   28 type  1   force =     0.16244769   -0.38324959    0.10794660
     atom   29 type  3   force =     0.02943994    0.07514774   -0.08005626
     atom   30 type  3   force =    -0.09376981   -0.04874941   -0.03925716
     atom   31 type  2   force =    -0.37917768    0.19464167   -0.69468267
     atom   32 type  4   force =    -2.27223561    1.50114243   -0.81654221
     atom   33 type  3   force =    -0.02978815    0.10126740    0.04145480
     atom   34 type  3   force =    -0.08168551   -0.02758053   -0.07204789
     atom   35 type  2   force =    -0.65343821    0.44623863   -0.18141940
     atom   36 type  4   force =    -0.54765835    1.16453282    2.63104105
     atom   37 type  1   force =     0.00552837   -0.06338556   -0.05494164
     atom   38 type  4   force =    -0.14527575   -1.88399875    2.23701231
     atom   39 type  1   force =     0.56792211    0.40768953    0.11090803
     atom   40 type  1   force =    -0.04627857    0.03430176   -0.05311488
     atom   41 type  4   force =     2.40916339    0.47666161   -1.54160700
     atom   42 type  1   force =    -0.16245480   -0.38325566   -0.10795353
     atom   43 type  3   force =     0.02943984   -0.07514755   -0.08005585
     atom   44 type  3   force =    -0.09376957    0.04874921   -0.03925691
     atom   45 type  2   force =    -0.37917896   -0.19463941   -0.69467787
     atom   46 type  4   force =    -2.27221837   -1.50113814   -0.81653001
     atom   47 type  3   force =    -0.02978824   -0.10126759    0.04145477
     atom   48 type  3   force =    -0.08168508    0.02758035   -0.07204753
     atom   49 type  2   force =    -0.65343817   -0.44624355   -0.18141342
     atom   50 type  4   force =    -0.54768860   -1.16457143    2.63115404
     atom   51 type  1   force =     0.00554679    0.06340684   -0.05492845
     atom   52 type  4   force =    -0.14526490    1.88399091    2.23700792
     atom   53 type  1   force =     0.56792671   -0.40768945    0.11090746
     atom   54 type  1   force =    -0.04628290   -0.03429455   -0.05311787
     atom   55 type  4   force =     2.40908804   -0.47665451   -1.54153512
     atom   56 type  1   force =    -0.16244769    0.38324959   -0.10794660
     The ionic contribution  to forces
     atom    1 type  1   force =    -2.98574241    0.28768524   -1.98995955
     atom    2 type  4   force =    12.32605624    4.46897253   -6.05307582
     atom    3 type  1   force =    -0.22198844    1.74709182    0.03104347
     atom    4 type  1   force =     2.72398529    2.76015808    2.00356854
     atom    5 type  4   force =    -1.38510603   -8.79391461   11.50298923
     atom    6 type  1   force =    -0.41177865    0.08160974    1.10576084
     atom    7 type  4   force =    -2.11153922    6.39162145   12.56330285
     atom    8 type  2   force =    -4.06343486    3.26529007   -1.16466039
     atom    9 type  3   force =    -2.33212389   -0.14105590   -2.07121141
     atom   10 type  3   force =    -1.27980373    2.89156196    0.78930334
     atom   11 type  4   force =   -11.29512376    6.38826800   -2.14928522
     atom   12 type  2   force =    -2.89324934    1.04598259   -4.77600606
     atom   13 type  3   force =    -2.63719007   -1.06735352   -1.62107703
     atom   14 type  3   force =     0.24455193    2.08108242   -2.54111395
     atom   15 type  3   force =     0.24455193   -2.08108242   -2.54111395
     atom   16 type  3   force =    -2.63719007    1.06735352   -1.62107703
     atom   17 type  2   force =    -2.89324934   -1.04598259   -4.77600606
     atom   18 type  4   force =   -11.29512376   -6.38826800   -2.14928522
     atom   19 type  3   force =    -1.27980373   -2.89156196    0.78930334
     atom   20 type  3   force =    -2.33212389    0.14105590   -2.07121141
     atom   21 type  2   force =    -4.06343486   -3.26529007   -1.16466039
     atom   22 type  4   force =    -2.11153922   -6.39162145   12.56330285
     atom   23 type  1   force =    -0.41177865   -0.08160974    1.10576084
     atom   24 type  4   force =    -1.38510603    8.79391461   11.50298923
     atom   25 type  1   force =     2.72398529   -2.76015808    2.00356854
     atom   26 type  1   force =    -0.22198844   -1.74709182    0.03104347
     atom   27 type  4   force =    12.32605624   -4.46897253   -6.05307582
     atom   28 type  1   force =    -2.98574241   -0.28768524   -1.98995955
     atom   29 type  3   force =    -0.24455193   -2.08108242    2.54111395
     atom   30 type  3   force =     2.63719007    1.06735352    1.62107703
     atom   31 type  2   force =     2.89324934   -1.04598259    4.77600606
     atom   32 type  4   force =    11.29512376   -6.38826800    2.14928522
     atom   33 type  3   force =     1.27980373   -2.89156196   -0.78930334
     atom   34 type  3   force =     2.33212389    0.14105590    2.07121141
     atom   35 type  2   force =     4.06343486   -3.26529007    1.16466039
     atom   36 type  4   force =     2.11153922   -6.39162145  -12.56330285
     atom   37 type  1   force =     0.41177865   -0.08160974   -1.10576084
     atom   38 type  4   force =     1.38510603    8.79391461  -11.50298923
     atom   39 type  1   force =    -2.72398529   -2.76015808   -2.00356854
     atom   40 type  1   force =     0.22198844   -1.74709182   -0.03104347
     atom   41 type  4   force =   -12.32605624   -4.46897253    6.05307582
     atom   42 type  1   force =     2.98574241   -0.28768524    1.98995955
     atom   43 type  3   force =    -0.24455193    2.08108242    2.54111395
     atom   44 type  3   force =     2.63719007   -1.06735352    1.62107703
     atom   45 type  2   force =     2.89324934    1.04598259    4.77600606
     atom   46 type  4   force =    11.29512376    6.38826800    2.14928522
     atom   47 type  3   force =     1.27980373    2.89156196   -0.78930334
     atom   48 type  3   force =     2.33212389   -0.14105590    2.07121141
     atom   49 type  2   force =     4.06343486    3.26529007    1.16466039
     atom   50 type  4   force =     2.11153922    6.39162145  -12.56330285
     atom   51 type  1   force =     0.41177865    0.08160974   -1.10576084
     atom   52 type  4   force =     1.38510603   -8.79391461  -11.50298923
     atom   53 type  1   force =    -2.72398529    2.76015808   -2.00356854
     atom   54 type  1   force =     0.22198844    1.74709182   -0.03104347
     atom   55 type  4   force =   -12.32605624    4.46897253    6.05307582
     atom   56 type  1   force =     2.98574241    0.28768524    1.98995955
     The local contribution  to forces
     atom    1 type  1   force =     2.81496330   -0.67154398    1.87161748
     atom    2 type  4   force =    -9.90078531   -3.98639621    4.50051376
     atom    3 type  1   force =     0.17196941   -1.72722749   -0.09797310
     atom    4 type  1   force =    -2.15226679   -2.36582051   -1.88879293
     atom    5 type  4   force =     1.24497230    6.88516790   -9.24106048
     atom    6 type  1   force =     0.43512585   -0.13330453   -1.17518588
     atom    7 type  4   force =     1.55712974   -5.21272209   -9.90655276
     atom    8 type  2   force =     3.62065909   -2.95565200    1.04721757
     atom    9 type  3   force =     2.09614486    0.04717880    1.84182590
     atom   10 type  3   force =     1.19769863   -2.58850829   -0.65577803
     atom   11 type  4   force =     8.99537820   -4.87138387    1.32107722
     atom   12 type  2   force =     2.64270063   -0.91412537    4.30521735
     atom   13 type  3   force =     2.34599148    0.91945460    1.51887358
     atom   14 type  3   force =    -0.14797587   -1.85056662    2.30852758
     atom   15 type  3   force =    -0.14797493    1.85056444    2.30853873
     atom   16 type  3   force =     2.34598598   -0.91946439    1.51887621
     atom   17 type  2   force =     2.64270134    0.91409479    4.30523602
     atom   18 type  4   force =     8.99537231    4.87142211    1.32103931
[...]
     atom   22 type  4   force =    -0.00434555   -0.00898654    0.02058702
     atom   23 type  1   force =    -0.00108296    0.00152110   -0.00022724
     atom   24 type  4   force =    -0.00108887    0.01465001    0.01759930
     atom   25 type  1   force =     0.00928088   -0.00604747    0.00115824
     atom   26 type  1   force =     0.00020479   -0.00140632   -0.00003672
     atom   27 type  4   force =     0.01897420   -0.00378196   -0.01206665
     atom   28 type  1   force =    -0.00335026    0.00595595   -0.00234569
     atom   29 type  3   force =     0.00000000    0.00000000    0.00000000
     atom   30 type  3   force =     0.00000000    0.00000000    0.00000000
     atom   31 type  2   force =     0.00559925   -0.00282136    0.01011633
     atom   32 type  4   force =     0.01789380   -0.01187948    0.00664701
     atom   33 type  3   force =     0.00000000    0.00000000    0.00000000
     atom   34 type  3   force =     0.00000000    0.00000000    0.00000000
     atom   35 type  2   force =     0.00899777   -0.00687613    0.00346311
     atom   36 type  4   force =     0.00434981   -0.00898452   -0.02058791
     atom   37 type  1   force =     0.00108321    0.00152131    0.00022698
     atom   38 type  4   force =     0.00108917    0.01464949   -0.01759981
     atom   39 type  1   force =    -0.00928026   -0.00604911   -0.00115774
     atom   40 type  1   force =    -0.00020536   -0.00140601    0.00003752
     atom   41 type  4   force =    -0.01897630   -0.00378554    0.01206267
     atom   42 type  1   force =     0.00335325    0.00595570    0.00234225
     atom   43 type  3   force =     0.00000000    0.00000000    0.00000000
     atom   44 type  3   force =     0.00000000    0.00000000    0.00000000
     atom   45 type  2   force =     0.00560113    0.00282068    0.01012381
     atom   46 type  4   force =     0.01789501    0.01187817    0.00664680
     atom   47 type  3   force =     0.00000000    0.00000000    0.00000000
     atom   48 type  3   force =     0.00000000    0.00000000    0.00000000
     atom   49 type  2   force =     0.00899757    0.00687583    0.00346599
     atom   50 type  4   force =     0.00434555    0.00898654   -0.02058702
     atom   51 type  1   force =     0.00108296   -0.00152110    0.00022724
     atom   52 type  4   force =     0.00108887   -0.01465001   -0.01759930
     atom   53 type  1   force =    -0.00928088    0.00604747   -0.00115824
     atom   54 type  1   force =    -0.00020479    0.00140632    0.00003672
     atom   55 type  4   force =    -0.01897420    0.00378196    0.01206665
     atom   56 type  1   force =     0.00335026   -0.00595595    0.00234569
     The Hubbard contrib.    to forces
     atom    1 type  1   force =     0.00000000    0.00000000    0.00000000
     atom    2 type  4   force =     0.00000000    0.00000000    0.00000000
     atom    3 type  1   force =     0.00000000    0.00000000    0.00000000
     atom    4 type  1   force =     0.00000000    0.00000000    0.00000000
     atom    5 type  4   force =     0.00000000    0.00000000    0.00000000
     atom    6 type  1   force =     0.00000000    0.00000000    0.00000000
     atom    7 type  4   force =     0.00000000    0.00000000    0.00000000
     atom    8 type  2   force =     0.00000000    0.00000000    0.00000000
     atom    9 type  3   force =     0.00000000    0.00000000    0.00000000
     atom   10 type  3   force =     0.00000000    0.00000000    0.00000000
     atom   11 type  4   force =     0.00000000    0.00000000    0.00000000
     atom   12 type  2   force =     0.00000000    0.00000000    0.00000000
     atom   13 type  3   force =     0.00000000    0.00000000    0.00000000
     atom   14 type  3   force =     0.00000000    0.00000000    0.00000000
     atom   15 type  3   force =     0.00000000    0.00000000    0.00000000
     atom   16 type  3   force =     0.00000000    0.00000000    0.00000000
     atom   17 type  2   force =     0.00000000    0.00000000    0.00000000
     atom   18 type  4   force =     0.00000000    0.00000000    0.00000000
     atom   19 type  3   force =     0.00000000    0.00000000    0.00000000
     atom   20 type  3   force =     0.00000000    0.00000000    0.00000000
     atom   21 type  2   force =     0.00000000    0.00000000    0.00000000
     atom   22 type  4   force =     0.00000000    0.00000000    0.00000000
     atom   23 type  1   force =     0.00000000    0.00000000    0.00000000
     atom   24 type  4   force =     0.00000000    0.00000000    0.00000000
     atom   25 type  1   force =     0.00000000    0.00000000    0.00000000
     atom   26 type  1   force =     0.00000000    0.00000000    0.00000000
     atom   27 type  4   force =     0.00000000    0.00000000    0.00000000
     atom   28 type  1   force =     0.00000000    0.00000000    0.00000000
     atom   29 type  3   force =     0.00000000    0.00000000    0.00000000
     atom   30 type  3   force =     0.00000000    0.00000000    0.00000000
     atom   31 type  2   force =     0.00000000    0.00000000    0.00000000
     atom   32 type  4   force =     0.00000000    0.00000000    0.00000000
     atom   33 type  3   force =     0.00000000    0.00000000    0.00000000
     atom   34 type  3   force =     0.00000000    0.00000000    0.00000000
     atom   35 type  2   force =     0.00000000    0.00000000    0.00000000
     atom   36 type  4   force =     0.00000000    0.00000000    0.00000000
     atom   37 type  1   force =     0.00000000    0.00000000    0.00000000
     atom   38 type  4   force =     0.00000000    0.00000000    0.00000000
     atom   39 type  1   force =     0.00000000    0.00000000    0.00000000
     atom   40 type  1   force =     0.00000000    0.00000000    0.00000000
     atom   41 type  4   force =     0.00000000    0.00000000    0.00000000
     atom   42 type  1   force =     0.00000000    0.00000000    0.00000000
     atom   43 type  3   force =     0.00000000    0.00000000    0.00000000
     atom   44 type  3   force =     0.00000000    0.00000000    0.00000000
     atom   45 type  2   force =     0.00000000    0.00000000    0.00000000
     atom   46 type  4   force =     0.00000000    0.00000000    0.00000000
     atom   47 type  3   force =     0.00000000    0.00000000    0.00000000
     atom   48 type  3   force =     0.00000000    0.00000000    0.00000000
     atom   49 type  2   force =     0.00000000    0.00000000    0.00000000
     atom   50 type  4   force =     0.00000000    0.00000000    0.00000000
     atom   51 type  1   force =     0.00000000    0.00000000    0.00000000
     atom   52 type  4   force =     0.00000000    0.00000000    0.00000000
     atom   53 type  1   force =     0.00000000    0.00000000    0.00000000
     atom   54 type  1   force =     0.00000000    0.00000000    0.00000000
     atom   55 type  4   force =     0.00000000    0.00000000    0.00000000
     atom   56 type  1   force =     0.00000000    0.00000000    0.00000000
     The SCF correction term to forces
     atom    1 type  1   force =    -0.00001133    0.00000496    0.00001215
     atom    2 type  4   force =    -0.00001231    0.00000507    0.00002083
     atom    3 type  1   force =    -0.00004642    0.00001553    0.00006632
     atom    4 type  1   force =     0.00000609    0.00000794    0.00000580
     atom    5 type  4   force =    -0.00000239   -0.00000093    0.00001205
     atom    6 type  1   force =     0.00000692   -0.00000816    0.00001815
     atom    7 type  4   force =    -0.00001612    0.00001247    0.00002388
     atom    8 type  2   force =     0.00000750    0.00000922    0.00000249
     atom    9 type  3   force =     0.00000213    0.00000162   -0.00000049
     atom   10 type  3   force =     0.00000329    0.00000312   -0.00000009
     atom   11 type  4   force =     0.00000194   -0.00000392    0.00001418
     atom   12 type  2   force =    -0.00000557   -0.00000584   -0.00000361
     atom   13 type  3   force =     0.00000001   -0.00000093   -0.00000104
     atom   14 type  3   force =    -0.00000090   -0.00000174   -0.00000161
     atom   15 type  3   force =     0.00000075    0.00000176   -0.00000085
     atom   16 type  3   force =     0.00000069   -0.00000081   -0.00000271
     atom   17 type  2   force =    -0.00000296   -0.00000077   -0.00000828
     atom   18 type  4   force =     0.00000740    0.00002499    0.00002339
     atom   19 type  3   force =     0.00000278   -0.00000116   -0.00000295
     atom   20 type  3   force =     0.00000233   -0.00000297   -0.00000268
     atom   21 type  2   force =     0.00000891   -0.00000477   -0.00000636
     atom   22 type  4   force =    -0.00000677   -0.00000427    0.00001235
     atom   23 type  1   force =     0.00002212    0.00004673    0.00004550
     atom   24 type  4   force =    -0.00000021    0.00001461    0.00001349
     atom   25 type  1   force =     0.00000882    0.00000895    0.00001321
     atom   26 type  1   force =    -0.00002175   -0.00000701    0.00001986
     atom   27 type  4   force =    -0.00000274   -0.00000416   -0.00000844
     atom   28 type  1   force =    -0.00000741   -0.00000320   -0.00000360
     atom   29 type  3   force =     0.00000090    0.00000174    0.00000161
     atom   30 type  3   force =    -0.00000001    0.00000093    0.00000104
     atom   31 type  2   force =     0.00000557    0.00000584    0.00000361
     atom   32 type  4   force =    -0.00000194    0.00000392   -0.00001418
     atom   33 type  3   force =    -0.00000329   -0.00000312    0.00000009
     atom   34 type  3   force =    -0.00000213   -0.00000162    0.00000049
     atom   35 type  2   force =    -0.00000750   -0.00000922   -0.00000249
     atom   36 type  4   force =     0.00001612   -0.00001247   -0.00002388
     atom   37 type  1   force =    -0.00000692    0.00000816   -0.00001815
     atom   38 type  4   force =     0.00000239    0.00000093   -0.00001205
     atom   39 type  1   force =    -0.00000609   -0.00000794   -0.00000580
     atom   40 type  1   force =     0.00004642   -0.00001553   -0.00006632
     atom   41 type  4   force =     0.00001231   -0.00000507   -0.00002083
     atom   42 type  1   force =     0.00001133   -0.00000496   -0.00001215
     atom   43 type  3   force =    -0.00000075   -0.00000176    0.00000085
     atom   44 type  3   force =    -0.00000069    0.00000081    0.00000271
     atom   45 type  2   force =     0.00000296    0.00000077    0.00000828
     atom   46 type  4   force =    -0.00000740   -0.00002499   -0.00002339
     atom   47 type  3   force =    -0.00000278    0.00000116    0.00000295
     atom   48 type  3   force =    -0.00000233    0.00000297    0.00000268
     atom   49 type  2   force =    -0.00000891    0.00000477    0.00000636
     atom   50 type  4   force =     0.00000677    0.00000427   -0.00001235
     atom   51 type  1   force =    -0.00002212   -0.00004673   -0.00004550
     atom   52 type  4   force =     0.00000021   -0.00001461   -0.00001349
     atom   53 type  1   force =    -0.00000882   -0.00000895   -0.00001321
     atom   54 type  1   force =     0.00002175    0.00000701   -0.00001986
     atom   55 type  4   force =     0.00000274    0.00000416    0.00000844
     atom   56 type  1   force =     0.00000741    0.00000320    0.00000360

     Total force =     0.005023     Total SCF correction =     0.000191


     entering subroutine stress ...

          total   stress  (Ry/bohr**3)                   (kbar)     P=   15.93
   0.00010951   0.00000021   0.00000472         16.11      0.03      0.69
   0.00000021   0.00010601  -0.00000043          0.03     15.59     -0.06
   0.00000472  -0.00000043   0.00010927          0.69     -0.06     16.07

     kinetic stress (kbar)  14904.27     -0.05    332.92
                               -0.05  15315.17      0.10
                              332.92      0.10  14878.58

     local   stress (kbar) -15159.14     -0.49   7556.97
                               -0.49  -8372.08      0.79
                             7556.97      0.79 -11396.30

     nonloc. stress (kbar)   1031.27     -0.01      8.10
                               -0.01   1040.04      0.02
                                8.10      0.02   1004.29

     hartree stress (kbar)   6840.54      0.08  -2726.85
                                0.08   4836.02     -0.09
                            -2726.85     -0.09   5418.78

     exc-cor stress (kbar)  -2151.40      0.00    -11.08
                                0.00  -2171.46     -0.00
                              -11.08     -0.00  -2157.24

     corecor stress (kbar)  -1126.66     -0.00     -2.32
                               -0.00  -1128.53      0.00
                               -2.32      0.00  -1126.70

     ewald   stress (kbar)  -4322.77      0.51  -5157.04
                                0.51  -9503.58     -0.88
                            -5157.04     -0.88  -6605.34

     hubbard stress (kbar)      0.00      0.00      0.00
                                0.00      0.00      0.00
                                0.00      0.00      0.00

     london  stress (kbar)      0.00      0.00      0.00
                                0.00      0.00      0.00
                                0.00      0.00      0.00

     XDM     stress (kbar)      0.00      0.00      0.00
                                0.00      0.00      0.00
                                0.00      0.00      0.00

     dft-nl  stress (kbar)      0.00      0.00      0.00
                                0.00      0.00      0.00
                                0.00      0.00      0.00

     TS-vdW  stress (kbar)      0.00      0.00      0.00
                                0.00      0.00      0.00
                                0.00      0.00      0.00



     bfgs converged in  14 scf cycles and  13 bfgs steps
     (criteria: energy <  1.0E-04, force <  1.0E-03)

     End of BFGS Geometry Optimization

     Final energy   =   -1282.3827224811 Ry
Begin final coordinates

ATOMIC_POSITIONS (crystal)
N       -0.019007165   0.623491698   0.460986384
O        0.274732278   0.721542513   0.437250281
N        0.142045409   0.703915775   0.532303076
N       -0.142949947   0.523893929   0.705845296
O       -0.271906208   0.426736950   0.925112448
N       -0.303301563   0.500612093   0.794881764
O        0.142119694   0.748490614   0.686580011
C       -0.190356610   0.614639261   0.554238059
H       -0.330520548   0.587607929   0.451053545
H       -0.217659532   0.702601201   0.613324345
O       -0.468273710   0.559998387   0.739421371
C       -0.022287003   0.566044496   0.282127291
H       -0.177139746   0.523798511   0.237233095
H       -0.001583020   0.632461423   0.177484955
H        0.498413796  -0.132460322   0.677479935
H        0.322857146  -0.023797812   0.737229203
C        0.477707286  -0.066041370   0.782124342
O        0.031733126  -0.059996588   1.239425923
H        0.282344910  -0.202601844   1.113321846
H        0.169481074  -0.087606338   0.951054883
C        0.309646043  -0.114641133   1.054240509
O        0.642126958  -0.248487315   1.186552795
N        0.196697179  -0.000617961   1.294878805
O        0.228099362   0.073264369   1.425119731
N        0.357055469  -0.023894995   1.205850363
N        0.642030952  -0.203919436   1.032328355
O        0.774742005  -0.221540267   0.937227727
N        0.480995851  -0.123489295   0.960977672
H        0.001583020   0.367538577   0.822515045
H        0.177139746   0.476201489   0.762766905
C        0.022287003   0.433955504   0.717872709
O        0.468273710   0.440001613   0.260578629
H        0.217659532   0.297398799   0.386675655
H        0.330520548   0.412392071   0.548946455
C        0.190356610   0.385360739   0.445761941
O       -0.142119694   0.251509386   0.313419989
N        0.303301563   0.499387907   0.205118236
O        0.271906208   0.573263050   0.074887552
N        0.142949947   0.476106071   0.294154704
N       -0.142045409   0.296084225   0.467696924
O       -0.274732278   0.278457487   0.562749719
N        0.019007165   0.376508302   0.539013616
H        0.501586204   0.132460322   1.322520065
H        0.677142854   0.023797812   1.262770797
C        0.522292714   0.066041370   1.217875658
O        0.968266874   0.059996588   0.760574077
H        0.717655090   0.202601844   0.886678154
H        0.830518926   0.087606338   1.048945117
C        0.690353957   0.114641133   0.945759491
O        0.357873042   0.248487315   0.813447205
N        0.803302821   0.000617961   0.705121195
O        0.771900638  -0.073264369   0.574880269
N        0.642944531   0.023894995   0.794149637
N        0.357969048   0.203919436   0.967671645
O        0.225257995   0.221540267   1.062772273
N        0.519004149   0.123489295   1.039022328
End final coordinates



     Writing output data file relax.pbe.ec-80.kp-4x2x4.HMX-792930.np-32.default-conv-thr.save

     init_run     :     72.92s CPU    101.23s WALL (       1 calls)
     electrons    :  24779.78s CPU  28702.55s WALL (      14 calls)
     update_pot   :    362.84s CPU    384.63s WALL (      13 calls)
     forces       :    610.55s CPU    782.96s WALL (      14 calls)
     stress       :   1866.50s CPU   1926.22s WALL (      14 calls)

     Called by init_run:
     wfcinit      :     41.96s CPU     55.74s WALL (       1 calls)
     potinit      :      9.93s CPU     10.50s WALL (       1 calls)

     Called by electrons:
     c_bands      :  21365.40s CPU  24485.16s WALL (     184 calls)
     sum_band     :   3026.18s CPU   3768.37s WALL (     184 calls)
     v_of_rho     :     85.49s CPU    106.16s WALL (     192 calls)
     v_h          :      5.39s CPU      6.91s WALL (     192 calls)
     v_xc         :     92.56s CPU    112.97s WALL (     220 calls)
     newd         :    186.04s CPU    180.53s WALL (     192 calls)
     PAW_pot      :     65.30s CPU     72.07s WALL (     205 calls)
     mix_rho      :     65.19s CPU     74.76s WALL (     184 calls)

     Called by c_bands:
     init_us_2    :    141.73s CPU    142.54s WALL (    6560 calls)
     cegterg      :  20595.75s CPU  23495.47s WALL (    2944 calls)

     Called by sum_band:
     sum_band:bec :      4.32s CPU      4.32s WALL (    3152 calls)
     addusdens    :    469.60s CPU    397.06s WALL (     184 calls)

     Called by *egterg:
     h_psi        :   9101.62s CPU  11538.95s WALL (   14227 calls)
     s_psi        :   1589.91s CPU   1229.48s WALL (   14227 calls)
     g_psi        :     22.02s CPU     25.92s WALL (   11267 calls)
     cdiaghg      :   4598.85s CPU   4174.52s WALL (   13907 calls)
     cegterg:over :   2132.67s CPU   3206.31s WALL (   11267 calls)
     cegterg:upda :   1274.18s CPU    956.76s WALL (   11267 calls)
     cegterg:last :    713.70s CPU    541.52s WALL (    3217 calls)

     Called by h_psi:
     h_psi:vloc   :   5133.36s CPU   6469.45s WALL (   14227 calls)
     h_psi:vnl    :   3882.40s CPU   4982.05s WALL (   14227 calls)
     add_vuspsi   :   1694.09s CPU   1769.93s WALL (   14227 calls)

     General routines
     calbec       :   3224.57s CPU   4906.29s WALL (   18499 calls)
     fft          :     80.23s CPU    137.95s WALL (    3403 calls)
     ffts         :      3.43s CPU      6.42s WALL (     376 calls)
     fftw         :   4649.40s CPU   6308.20s WALL ( 2260940 calls)
     interpolate  :     31.29s CPU     38.09s WALL (     376 calls)
     davcio       :      0.40s CPU     40.92s WALL (      16 calls)

     Parallel routines
     fft_scatter  :   2280.13s CPU   3863.31s WALL ( 2264719 calls)

     PAW routines
     PAW_pot      :     65.30s CPU     72.07s WALL (     205 calls)
     PAW_symme    :      0.56s CPU      1.11s WALL (     389 calls)

     PWSCF        :     7h44m CPU        8h57m WALL


   This run was terminated on:   5:21:36  21Jul2016            

=------------------------------------------------------------------------------=
   JOB DONE.
=------------------------------------------------------------------------------=
