
     Program PWSCF v.5.3.0 (svn rev. 11974) starts on  3Feb2016 at 14:40: 8 

     This program is part of the open-source Quantum ESPRESSO suite
     for quantum simulation of materials; please cite
         "P. Giannozzi et al., J. Phys.:Condens. Matter 21 395502 (2009);
          URL http://www.quantum-espresso.org", 
     in publications or presentations arising from this work. More details at
     http://www.quantum-espresso.org/quote

     Parallel version (MPI), running on     8 processors
     R & G space division:  proc/nbgrp/npool/nimage =       8
     Waiting for input...
     Reading input from standard input

     Current dimensions of program PWSCF are:
     Max number of different atomic species (ntypx) = 10
     Max number of k-points (npk) =  40000
     Max angular momentum in pseudopotentials (lmaxx) =  3
               file H.pbe-kjpaw_psl.0.1.UPF: wavefunction(s)  1S renormalized
               file C.pbe-n-kjpaw_psl.0.1.UPF: wavefunction(s)  2P renormalized
               file N.pbe-n-kjpaw_psl.0.1.UPF: wavefunction(s)  2P renormalized
               file S.pbe-n-kjpaw_psl.0.1.UPF: wavefunction(s)  3P renormalized
               file Cl.pbe-n-kjpaw_psl.0.3.0.UPF: wavefunction(s)  3S 3P renormalized
               file Ni.pbe-n-kjpaw_psl.0.1.UPF: wavefunction(s)  4S 3D renormalized

     Subspace diagonalization in iterative solution of the eigenvalue problem:
     a serial algorithm will be used

     Found symmetry operation: I + ( -0.5000  0.5000  0.5000)
     This is a supercell, fractional translations are disabled

     Parallelization info
     --------------------
     sticks:   dense  smooth     PW     G-vecs:    dense   smooth      PW
     Min        2270     909    238               216470    54739    7410
     Max        2271     910    242               216475    54764    7411
     Sum       18165    7273   1917              1731779   437987   59283



     bravais-lattice index     =            6
     lattice parameter (alat)  =      18.0620  a.u.
     unit-cell volume          =    5536.7556 (a.u.)^3
     number of atoms/cell      =           70
     number of atomic types    =            6
     number of electrons       =       240.00
     number of Kohn-Sham states=          144
     kinetic-energy cutoff     =      70.0000  Ry
     charge density cutoff     =     700.0000  Ry
     convergence threshold     =      1.0E-07
     mixing beta               =       0.7000
     number of iterations used =            8  plain     mixing
     Exchange-correlation      =  SLA  PW   PBX  PBC ( 1  4  3  4 0 0)
     nstep                     =           50


     celldm(1)=  18.062002  celldm(2)=   0.000000  celldm(3)=   0.939632
     celldm(4)=   0.000000  celldm(5)=   0.000000  celldm(6)=   0.000000

     crystal axes: (cart. coord. in units of alat)
               a(1) = (   1.000000   0.000000   0.000000 )  
               a(2) = (   0.000000   1.000000   0.000000 )  
               a(3) = (   0.000000   0.000000   0.939632 )  

     reciprocal axes: (cart. coord. in units 2 pi/alat)
               b(1) = (  1.000000  0.000000  0.000000 )  
               b(2) = (  0.000000  1.000000  0.000000 )  
               b(3) = (  0.000000  0.000000  1.064247 )  


     PseudoPot. # 1 for  H read from file:
     ./pseudo/H.pbe-kjpaw_psl.0.1.UPF
     MD5 check sum: fb87beb2c97a016760e7ba63abd37dee
     Pseudo is Projector augmented-wave, Zval =  1.0
     Generated using "atomic" code by A. Dal Corso  v.5.0.2 svn rev. 9605
     Shape of augmentation charge: PSQ
     Using radial grid of  929 points,  2 beta functions with: 
                l(1) =   0
                l(2) =   0
     Q(r) pseudized with 0 coefficients 


     PseudoPot. # 2 for  C read from file:
     ./pseudo/C.pbe-n-kjpaw_psl.0.1.UPF
     MD5 check sum: a13d6e77fdf331d01cbdc71e4cdf2375
     Pseudo is Projector augmented-wave + core cor, Zval =  4.0
     Generated using "atomic" code by A. Dal Corso  v.5.0.2 svn rev. 9605
     Shape of augmentation charge: BESSEL
     Using radial grid of 1073 points,  4 beta functions with: 
                l(1) =   0
                l(2) =   0
                l(3) =   1
                l(4) =   1
     Q(r) pseudized with 0 coefficients 


     PseudoPot. # 3 for  N read from file:
     ./pseudo/N.pbe-n-kjpaw_psl.0.1.UPF
     MD5 check sum: 68470fc8bd1ac1219743345880a0c0b4
     Pseudo is Projector augmented-wave + core cor, Zval =  5.0
     Generated using "atomic" code by A. Dal Corso  v.5.0.2 svn rev. 9605
     Shape of augmentation charge: PSQ
     Using radial grid of 1085 points,  4 beta functions with: 
                l(1) =   0
                l(2) =   0
                l(3) =   1
                l(4) =   1
     Q(r) pseudized with 0 coefficients 


     PseudoPot. # 4 for  S read from file:
     ./pseudo/S.pbe-n-kjpaw_psl.0.1.UPF
     MD5 check sum: c16a8bdd0a9fb4c97e90bb687cb57061
     Pseudo is Projector augmented-wave + core cor, Zval =  6.0
     Generated using "atomic" code by A. Dal Corso  v.5.0.2 svn rev. 9605
     Shape of augmentation charge: PSQ
     Using radial grid of 1151 points,  4 beta functions with: 
                l(1) =   0
                l(2) =   0
                l(3) =   1
                l(4) =   1
     Q(r) pseudized with 0 coefficients 


     PseudoPot. # 5 for Cl read from file:
     ./pseudo/Cl.pbe-n-kjpaw_psl.0.3.0.UPF
     MD5 check sum: d9e21192cb2aad6691c9ae241b29215e
     Pseudo is Projector augmented-wave + core cor, Zval =  7.0
     Generated using "atomic" code by A. Dal Corso  v.5.0.2 svn rev. 9605
     Shape of augmentation charge: PSQ
     Using radial grid of 1157 points,  4 beta functions with: 
                l(1) =   0
                l(2) =   0
                l(3) =   1
                l(4) =   1
     Q(r) pseudized with 0 coefficients 


     PseudoPot. # 6 for Ni read from file:
     ./pseudo/Ni.pbe-n-kjpaw_psl.0.1.UPF
     MD5 check sum: 946620350e71423045bef2cd4176bf8e
     Pseudo is Projector augmented-wave + core cor, Zval = 10.0
     Generated using "atomic" code by A. Dal Corso  v.5.0.2 svn rev. 9605
     Shape of augmentation charge: PSQ
     Using radial grid of 1195 points,  6 beta functions with: 
                l(1) =   0
                l(2) =   0
                l(3) =   1
                l(4) =   1
                l(5) =   2
                l(6) =   2
     Q(r) pseudized with 0 coefficients 


     atomic species   valence    mass     pseudopotential
        H              1.00     1.00000      H( 1.00)
        C              4.00     1.00000      C( 1.00)
        N              5.00     1.00000      N( 1.00)
        S              6.00     1.00000      S( 1.00)
        Cl             7.00     1.00000     Cl( 1.00)
        Ni            10.00     1.00000     Ni( 1.00)

      4 Sym. Ops. (no inversion) found


                                    s                        frac. trans.

      isym =  1     identity                                     

 cryst.   s( 1) = (     1          0          0      )
                  (     0          1          0      )
                  (     0          0          1      )

 cart.    s( 1) = (  1.0000000  0.0000000  0.0000000 )
                  (  0.0000000  1.0000000  0.0000000 )
                  (  0.0000000  0.0000000  1.0000000 )


      isym =  2     180 deg rotation - cart. axis [0,0,1]        

 cryst.   s( 2) = (    -1          0          0      )
                  (     0         -1          0      )
                  (     0          0          1      )

 cart.    s( 2) = ( -1.0000000  0.0000000  0.0000000 )
                  (  0.0000000 -1.0000000  0.0000000 )
                  (  0.0000000  0.0000000  1.0000000 )


      isym =  3      90 deg rotation - cart. axis [0,0,-1]       

 cryst.   s( 3) = (     0         -1          0      )
                  (     1          0          0      )
                  (     0          0          1      )

 cart.    s( 3) = (  0.0000000  1.0000000  0.0000000 )
                  ( -1.0000000  0.0000000  0.0000000 )
                  (  0.0000000  0.0000000  1.0000000 )


      isym =  4      90 deg rotation - cart. axis [0,0,1]        

 cryst.   s( 4) = (     0          1          0      )
                  (    -1          0          0      )
                  (     0          0          1      )

 cart.    s( 4) = (  0.0000000 -1.0000000  0.0000000 )
                  (  1.0000000  0.0000000  0.0000000 )
                  (  0.0000000  0.0000000  1.0000000 )


     point group C_4 (4)    
     there are  4 classes
     the character table:

       E     C4    C2    C4^3 
A      1.00  1.00  1.00  1.00
B      1.00 -1.00  1.00 -1.00
E      1.00  0.00 -1.00  0.00
E*     1.00  0.00 -1.00  0.00
     imaginary part
A      0.00  0.00  0.00  0.00
B      0.00  0.00  0.00  0.00
E      0.00  1.00  0.00 -1.00
E*     0.00 -1.00  0.00  1.00

     the symmetry operations in each class and the name of the first element:

     E        1
          identity                                               
     C4       4
           90 deg rotation - cart. axis [0,0,1]                  
     C2       2
          180 deg rotation - cart. axis [0,0,1]                  
     C4^3     3
           90 deg rotation - cart. axis [0,0,-1]                 

   Cartesian axes

     site n.     atom                  positions (alat units)
         1           C   tau(   1) = (   0.1545000   0.3271000   0.0890771  )
         2           C   tau(   2) = (  -0.1545000  -0.3271000   0.0890771  )
         3           C   tau(   3) = (   0.1729000   0.6545000   0.5588929  )
         4           C   tau(   4) = (  -0.3271000   0.1545000   0.0890771  )
         5           C   tau(   5) = (   0.3271000  -0.1545000   0.0890771  )
         6           C   tau(   6) = (   0.3455000   0.1729000   0.5588929  )
         7           C   tau(   7) = (   0.6545000   0.8271000   0.5588929  )
         8           C   tau(   8) = (   0.8271000   0.3455000   0.5588929  )
         9           Cl  tau(   9) = (   0.0000000   0.0000000  -0.2519153  )
        10           Cl  tau(  10) = (   0.0000000   0.0000000   0.2622512  )
        11           Cl  tau(  11) = (   0.5000000   0.5000000   0.2179006  )
        12           Cl  tau(  12) = (   0.5000000   0.5000000   0.7320671  )
        13           H   tau(  13) = (   0.0068000   0.6620000   0.4940584  )
        14           H   tau(  14) = (   0.0288000   0.7644000   0.3968065  )
        15           H   tau(  15) = (   0.1620000   0.4932000   0.0242425  )
        16           H   tau(  16) = (  -0.1620000  -0.4932000   0.0242425  )
        17           H   tau(  17) = (  -0.1774000   0.1786000  -0.2114171  )
        18           H   tau(  18) = (   0.1774000  -0.1786000  -0.2114171  )
        19           H   tau(  19) = (   0.1786000   0.1774000  -0.2114171  )
        20           H   tau(  20) = (  -0.1786000  -0.1774000  -0.2114171  )
        21           H   tau(  21) = (   0.2037000   0.7684000   0.2337804  )
        22           H   tau(  22) = (   0.2316000   0.2037000   0.2337804  )
        23           H   tau(  23) = (   0.2356000   0.0288000   0.3968065  )
        24           H   tau(  24) = (   0.2644000   0.4712000  -0.0730094  )
        25           H   tau(  25) = (  -0.2644000  -0.4712000  -0.0730094  )
        26           H   tau(  26) = (   0.2684000   0.2963000  -0.2360355  )
        27           H   tau(  27) = (  -0.2684000  -0.2963000  -0.2360355  )
        28           H   tau(  28) = (  -0.2963000   0.2684000  -0.2360355  )
        29           H   tau(  29) = (   0.2963000  -0.2684000  -0.2360355  )
        30           H   tau(  30) = (   0.3214000   0.3226000   0.2583987  )
        31           H   tau(  31) = (   0.3226000   0.6786000   0.2583987  )
        32           H   tau(  32) = (   0.3380000   0.0068000   0.4940584  )
        33           H   tau(  33) = (  -0.4712000   0.2644000  -0.0730094  )
        34           H   tau(  34) = (   0.4712000  -0.2644000  -0.0730094  )
        35           H   tau(  35) = (  -0.4932000   0.1620000   0.0242425  )
        36           H   tau(  36) = (   0.4932000  -0.1620000   0.0242425  )
        37           H   tau(  37) = (   0.6620000   0.9932000   0.4940584  )
        38           H   tau(  38) = (   0.6774000   0.3214000   0.2583987  )
        39           H   tau(  39) = (   0.6786000   0.6774000   0.2583987  )
        40           H   tau(  40) = (   0.7644000   0.9712000   0.3968065  )
        41           H   tau(  41) = (   0.7684000   0.7963000   0.2337804  )
        42           H   tau(  42) = (   0.7963000   0.2316000   0.2337804  )
        43           H   tau(  43) = (   0.9712000   0.2356000   0.3968065  )
        44           H   tau(  44) = (   0.9932000   0.3380000   0.4940584  )
        45           N   tau(  45) = (   0.0430000   0.6968000   0.5280730  )
        46           N   tau(  46) = (   0.1968000   0.4570000   0.0582572  )
        47           N   tau(  47) = (  -0.1968000  -0.4570000   0.0582572  )
        48           N   tau(  48) = (   0.2071000   0.2593000   0.1976985  )
        49           N   tau(  49) = (  -0.2071000  -0.2593000   0.1976985  )
        50           N   tau(  50) = (   0.2407000   0.7071000   0.6675144  )
        51           N   tau(  51) = (  -0.2593000   0.2071000   0.1976985  )
        52           N   tau(  52) = (   0.2593000  -0.2071000   0.1976985  )
        53           N   tau(  53) = (   0.2929000   0.2407000   0.6675144  )
        54           N   tau(  54) = (   0.3032000   0.0430000   0.5280730  )
        55           N   tau(  55) = (   0.4570000  -0.1968000   0.0582572  )
        56           N   tau(  56) = (  -0.4570000   0.1968000   0.0582572  )
        57           N   tau(  57) = (   0.6968000   0.9570000   0.5280730  )
        58           N   tau(  58) = (   0.7071000   0.7593000   0.6675144  )
        59           N   tau(  59) = (   0.7593000   0.2929000   0.6675144  )
        60           N   tau(  60) = (   0.9570000   0.3032000   0.5280730  )
        61           Ni  tau(  61) = (   0.0000000   0.0000000   0.0112756  )
        62           Ni  tau(  62) = (   0.5000000   0.5000000   0.4810914  )
        63           S   tau(  63) = (   0.0285000   0.2542000  -0.0186987  )
        64           S   tau(  64) = (  -0.0285000  -0.2542000  -0.0186987  )
        65           S   tau(  65) = (   0.2458000   0.5285000   0.4511172  )
        66           S   tau(  66) = (  -0.2542000   0.0285000  -0.0186987  )
        67           S   tau(  67) = (   0.2542000  -0.0285000  -0.0186987  )
        68           S   tau(  68) = (   0.4715000   0.2458000   0.4511172  )
        69           S   tau(  69) = (   0.5285000   0.7542000   0.4511172  )
        70           S   tau(  70) = (   0.7542000   0.4715000   0.4511172  )

   Crystallographic axes

     site n.     atom                  positions (cryst. coord.)
         1           C   tau(   1) = (  0.1545000  0.3271000  0.0948000  )
         2           C   tau(   2) = ( -0.1545000 -0.3271000  0.0948000  )
         3           C   tau(   3) = (  0.1729000  0.6545000  0.5948000  )
         4           C   tau(   4) = ( -0.3271000  0.1545000  0.0948000  )
         5           C   tau(   5) = (  0.3271000 -0.1545000  0.0948000  )
         6           C   tau(   6) = (  0.3455000  0.1729000  0.5948000  )
         7           C   tau(   7) = (  0.6545000  0.8271000  0.5948000  )
         8           C   tau(   8) = (  0.8271000  0.3455000  0.5948000  )
         9           Cl  tau(   9) = (  0.0000000  0.0000000 -0.2681000  )
        10           Cl  tau(  10) = (  0.0000000  0.0000000  0.2791000  )
        11           Cl  tau(  11) = (  0.5000000  0.5000000  0.2319000  )
        12           Cl  tau(  12) = (  0.5000000  0.5000000  0.7791000  )
        13           H   tau(  13) = (  0.0068000  0.6620000  0.5258000  )
        14           H   tau(  14) = (  0.0288000  0.7644000  0.4223000  )
        15           H   tau(  15) = (  0.1620000  0.4932000  0.0258000  )
        16           H   tau(  16) = ( -0.1620000 -0.4932000  0.0258000  )
        17           H   tau(  17) = ( -0.1774000  0.1786000 -0.2250000  )
        18           H   tau(  18) = (  0.1774000 -0.1786000 -0.2250000  )
        19           H   tau(  19) = (  0.1786000  0.1774000 -0.2250000  )
        20           H   tau(  20) = ( -0.1786000 -0.1774000 -0.2250000  )
        21           H   tau(  21) = (  0.2037000  0.7684000  0.2488000  )
        22           H   tau(  22) = (  0.2316000  0.2037000  0.2488000  )
        23           H   tau(  23) = (  0.2356000  0.0288000  0.4223000  )
        24           H   tau(  24) = (  0.2644000  0.4712000 -0.0777000  )
        25           H   tau(  25) = ( -0.2644000 -0.4712000 -0.0777000  )
        26           H   tau(  26) = (  0.2684000  0.2963000 -0.2512000  )
        27           H   tau(  27) = ( -0.2684000 -0.2963000 -0.2512000  )
        28           H   tau(  28) = ( -0.2963000  0.2684000 -0.2512000  )
        29           H   tau(  29) = (  0.2963000 -0.2684000 -0.2512000  )
        30           H   tau(  30) = (  0.3214000  0.3226000  0.2750000  )
        31           H   tau(  31) = (  0.3226000  0.6786000  0.2750000  )
        32           H   tau(  32) = (  0.3380000  0.0068000  0.5258000  )
        33           H   tau(  33) = ( -0.4712000  0.2644000 -0.0777000  )
        34           H   tau(  34) = (  0.4712000 -0.2644000 -0.0777000  )
        35           H   tau(  35) = ( -0.4932000  0.1620000  0.0258000  )
        36           H   tau(  36) = (  0.4932000 -0.1620000  0.0258000  )
        37           H   tau(  37) = (  0.6620000  0.9932000  0.5258000  )
        38           H   tau(  38) = (  0.6774000  0.3214000  0.2750000  )
        39           H   tau(  39) = (  0.6786000  0.6774000  0.2750000  )
        40           H   tau(  40) = (  0.7644000  0.9712000  0.4223000  )
        41           H   tau(  41) = (  0.7684000  0.7963000  0.2488000  )
        42           H   tau(  42) = (  0.7963000  0.2316000  0.2488000  )
        43           H   tau(  43) = (  0.9712000  0.2356000  0.4223000  )
        44           H   tau(  44) = (  0.9932000  0.3380000  0.5258000  )
        45           N   tau(  45) = (  0.0430000  0.6968000  0.5620000  )
        46           N   tau(  46) = (  0.1968000  0.4570000  0.0620000  )
        47           N   tau(  47) = ( -0.1968000 -0.4570000  0.0620000  )
        48           N   tau(  48) = (  0.2071000  0.2593000  0.2104000  )
        49           N   tau(  49) = ( -0.2071000 -0.2593000  0.2104000  )
        50           N   tau(  50) = (  0.2407000  0.7071000  0.7104000  )
        51           N   tau(  51) = ( -0.2593000  0.2071000  0.2104000  )
        52           N   tau(  52) = (  0.2593000 -0.2071000  0.2104000  )
        53           N   tau(  53) = (  0.2929000  0.2407000  0.7104000  )
        54           N   tau(  54) = (  0.3032000  0.0430000  0.5620000  )
        55           N   tau(  55) = (  0.4570000 -0.1968000  0.0620000  )
        56           N   tau(  56) = ( -0.4570000  0.1968000  0.0620000  )
        57           N   tau(  57) = (  0.6968000  0.9570000  0.5620000  )
        58           N   tau(  58) = (  0.7071000  0.7593000  0.7104000  )
        59           N   tau(  59) = (  0.7593000  0.2929000  0.7104000  )
        60           N   tau(  60) = (  0.9570000  0.3032000  0.5620000  )
        61           Ni  tau(  61) = (  0.0000000  0.0000000  0.0120000  )
        62           Ni  tau(  62) = (  0.5000000  0.5000000  0.5120000  )
        63           S   tau(  63) = (  0.0285000  0.2542000 -0.0199000  )
        64           S   tau(  64) = ( -0.0285000 -0.2542000 -0.0199000  )
        65           S   tau(  65) = (  0.2458000  0.5285000  0.4801000  )
        66           S   tau(  66) = ( -0.2542000  0.0285000 -0.0199000  )
        67           S   tau(  67) = (  0.2542000 -0.0285000 -0.0199000  )
        68           S   tau(  68) = (  0.4715000  0.2458000  0.4801000  )
        69           S   tau(  69) = (  0.5285000  0.7542000  0.4801000  )
        70           S   tau(  70) = (  0.7542000  0.4715000  0.4801000  )

     number of k points=     8  Fermi-Dirac smearing, width (Ry)=  0.0037
                       cart. coord. in units 2pi/alat
        k(    1) = (   0.1250000   0.1250000   0.1330308), wk =   0.2500000
        k(    2) = (   0.1250000   0.1250000   0.3990925), wk =   0.2500000
        k(    3) = (   0.1250000   0.3750000   0.1330308), wk =   0.2500000
        k(    4) = (   0.1250000   0.3750000   0.3990925), wk =   0.2500000
        k(    5) = (   0.3750000   0.3750000   0.1330308), wk =   0.2500000
        k(    6) = (   0.3750000   0.3750000   0.3990925), wk =   0.2500000
        k(    7) = (   0.3750000   0.1250000  -0.1330308), wk =   0.2500000
        k(    8) = (   0.3750000   0.1250000  -0.3990925), wk =   0.2500000

                       cryst. coord.
        k(    1) = (   0.1250000   0.1250000   0.1250000), wk =   0.2500000
        k(    2) = (   0.1250000   0.1250000   0.3750000), wk =   0.2500000
        k(    3) = (   0.1250000   0.3750000   0.1250000), wk =   0.2500000
        k(    4) = (   0.1250000   0.3750000   0.3750000), wk =   0.2500000
        k(    5) = (   0.3750000   0.3750000   0.1250000), wk =   0.2500000
        k(    6) = (   0.3750000   0.3750000   0.3750000), wk =   0.2500000
        k(    7) = (   0.3750000   0.1250000  -0.1250000), wk =   0.2500000
        k(    8) = (   0.3750000   0.1250000  -0.3750000), wk =   0.2500000

     Dense  grid:  1731779 G-vectors     FFT dimensions: ( 160, 160, 144)

     Smooth grid:   437987 G-vectors     FFT dimensions: ( 100, 100,  96)

     Largest allocated arrays     est. size (Mb)     dimensions
        Kohn-Sham Wavefunctions        15.04 Mb     (    6847,  144)
        NL pseudopotentials            40.54 Mb     (    6847,  388)
        Each V/rho on FFT grid          7.03 Mb     (  460800)
        Each G-vector array             1.65 Mb     (  216475)
        G-vector shells                 0.45 Mb     (   59404)
     Largest temporary arrays     est. size (Mb)     dimensions
        Auxiliary wavefunctions        60.18 Mb     (    6847,  576)
        Each subspace H/S matrix        5.06 Mb     (     576,  576)
        Each <psi_i|beta_j> matrix      0.85 Mb     (     388,  144)
        Arrays for rho mixing          56.25 Mb     (  460800,    8)

     Initial potential from superposition of free atoms

     starting charge  239.99845, renormalised to  240.00000
     Starting wfc are  194 randomized atomic wfcs
     Checking if some PAW data can be deallocated... 
       node    0, deallocated PAW data for type:  1
       node    0, deallocated PAW data for type:  3
       node    0, deallocated PAW data for type:  4
       node    0, deallocated PAW data for type:  6
       node    1, deallocated PAW data for type:  2
       node    1, deallocated PAW data for type:  3
       node    1, deallocated PAW data for type:  4
       node    1, deallocated PAW data for type:  6
       node    2, deallocated PAW data for type:  2
       node    2, deallocated PAW data for type:  3
       node    2, deallocated PAW data for type:  4
       node    2, deallocated PAW data for type:  5
       node    2, deallocated PAW data for type:  6
       node    3, deallocated PAW data for type:  2
       node    3, deallocated PAW data for type:  3
       node    3, deallocated PAW data for type:  4
       node    3, deallocated PAW data for type:  5
       node    3, deallocated PAW data for type:  6
       node    4, deallocated PAW data for type:  2
       node    4, deallocated PAW data for type:  4
       node    4, deallocated PAW data for type:  5
       node    4, deallocated PAW data for type:  6
       node    5, deallocated PAW data for type:  1
       node    5, deallocated PAW data for type:  2
       node    5, deallocated PAW data for type:  4
       node    5, deallocated PAW data for type:  5
       node    5, deallocated PAW data for type:  6
       node    6, deallocated PAW data for type:  1
       node    6, deallocated PAW data for type:  2
       node    6, deallocated PAW data for type:  4
       node    6, deallocated PAW data for type:  5
       node    7, deallocated PAW data for type:  1
       node    7, deallocated PAW data for type:  2
       node    7, deallocated PAW data for type:  3
       node    7, deallocated PAW data for type:  5
       node    7, deallocated PAW data for type:  6

     total cpu time spent up to now is      159.2 secs

     per-process dynamical memory:   351.9 Mb

     Self-consistent Calculation

     iteration #  1     ecut=    70.00 Ry     beta=0.70
     Davidson diagonalization with overlap
     ethr =  1.00E-02,  avg # of iterations =  3.0

     total cpu time spent up to now is      430.0 secs

     total energy              =   -1834.56010131 Ry
     Harris-Foulkes estimate   =   -1848.54434108 Ry
     estimated scf accuracy    <      18.79737504 Ry

     iteration #  2     ecut=    70.00 Ry     beta=0.70
     Davidson diagonalization with overlap
     ethr =  7.83E-03,  avg # of iterations =  5.0

     total cpu time spent up to now is      769.4 secs

     total energy              =   -1821.50446360 Ry
     Harris-Foulkes estimate   =   -1857.49728926 Ry
     estimated scf accuracy    <     131.59453372 Ry

     iteration #  3     ecut=    70.00 Ry     beta=0.70
     Davidson diagonalization with overlap
     ethr =  7.83E-03,  avg # of iterations =  4.0

     total cpu time spent up to now is     1046.1 secs

     total energy              =   -1838.73383288 Ry
     Harris-Foulkes estimate   =   -1852.51107327 Ry
     estimated scf accuracy    <      45.59177977 Ry

     iteration #  4     ecut=    70.00 Ry     beta=0.70
     Davidson diagonalization with overlap
     ethr =  7.83E-03,  avg # of iterations =  3.6

     total cpu time spent up to now is     1257.7 secs

     total energy              =   -1842.65752515 Ry
     Harris-Foulkes estimate   =   -1843.60911426 Ry
     estimated scf accuracy    <       5.34497579 Ry

     iteration #  5     ecut=    70.00 Ry     beta=0.70
     Davidson diagonalization with overlap
     ethr =  2.23E-03,  avg # of iterations =  2.0

     total cpu time spent up to now is     1444.1 secs

     total energy              =   -1842.90389658 Ry
     Harris-Foulkes estimate   =   -1843.16813045 Ry
     estimated scf accuracy    <       1.38512187 Ry

     iteration #  6     ecut=    70.00 Ry     beta=0.70
     Davidson diagonalization with overlap
     ethr =  5.77E-04,  avg # of iterations =  7.0

     total cpu time spent up to now is     1659.3 secs

     total energy              =   -1842.95157588 Ry
     Harris-Foulkes estimate   =   -1843.03409739 Ry
     estimated scf accuracy    <       0.36466003 Ry

     iteration #  7     ecut=    70.00 Ry     beta=0.70
     Davidson diagonalization with overlap
     ethr =  1.52E-04,  avg # of iterations =  8.0

     total cpu time spent up to now is     1902.2 secs

     total energy              =   -1842.93813513 Ry
     Harris-Foulkes estimate   =   -1843.29533552 Ry
     estimated scf accuracy    <       5.35453974 Ry

     iteration #  8     ecut=    70.00 Ry     beta=0.70
     Davidson diagonalization with overlap
     ethr =  1.52E-04,  avg # of iterations =  2.0

     total cpu time spent up to now is     2081.3 secs

     total energy              =   -1842.99941337 Ry
     Harris-Foulkes estimate   =   -1843.04293670 Ry
     estimated scf accuracy    <       0.19237155 Ry

     iteration #  9     ecut=    70.00 Ry     beta=0.70
     Davidson diagonalization with overlap
     ethr =  8.02E-05,  avg # of iterations =  1.8

     total cpu time spent up to now is     2252.1 secs

     total energy              =   -1843.00669467 Ry
     Harris-Foulkes estimate   =   -1843.02995608 Ry
     estimated scf accuracy    <       0.42121035 Ry

     iteration # 10     ecut=    70.00 Ry     beta=0.70
     Davidson diagonalization with overlap
     ethr =  8.02E-05,  avg # of iterations =  1.0

     total cpu time spent up to now is     2422.9 secs

     total energy              =   -1843.01673902 Ry
     Harris-Foulkes estimate   =   -1843.02783037 Ry
     estimated scf accuracy    <       0.42185481 Ry

     iteration # 11     ecut=    70.00 Ry     beta=0.70
     Davidson diagonalization with overlap
     ethr =  8.02E-05,  avg # of iterations =  1.0

     total cpu time spent up to now is     2592.7 secs

     total energy              =   -1843.02218562 Ry
     Harris-Foulkes estimate   =   -1843.02298966 Ry
     estimated scf accuracy    <       0.00335767 Ry

     iteration # 12     ecut=    70.00 Ry     beta=0.70
     Davidson diagonalization with overlap
     ethr =  1.40E-06,  avg # of iterations =  7.6

     total cpu time spent up to now is     2935.6 secs

     total energy              =   -1843.02336625 Ry
     Harris-Foulkes estimate   =   -1843.02407693 Ry
     estimated scf accuracy    <       0.01343392 Ry

     iteration # 13     ecut=    70.00 Ry     beta=0.70
     Davidson diagonalization with overlap
     ethr =  1.40E-06,  avg # of iterations =  1.0

     total cpu time spent up to now is     3102.0 secs

     total energy              =   -1843.02358063 Ry
     Harris-Foulkes estimate   =   -1843.02373551 Ry
     estimated scf accuracy    <       0.00128608 Ry

     iteration # 14     ecut=    70.00 Ry     beta=0.70
     Davidson diagonalization with overlap
     ethr =  5.36E-07,  avg # of iterations =  1.3

     total cpu time spent up to now is     3274.0 secs

     total energy              =   -1843.02365172 Ry
     Harris-Foulkes estimate   =   -1843.02369957 Ry
     estimated scf accuracy    <       0.00016453 Ry

     iteration # 15     ecut=    70.00 Ry     beta=0.70
     Davidson diagonalization with overlap
     ethr =  6.86E-08,  avg # of iterations =  2.3

     total cpu time spent up to now is     3456.4 secs

     total energy              =   -1843.02366483 Ry
     Harris-Foulkes estimate   =   -1843.02369866 Ry
     estimated scf accuracy    <       0.00105024 Ry

     iteration # 16     ecut=    70.00 Ry     beta=0.70
     Davidson diagonalization with overlap
     ethr =  6.86E-08,  avg # of iterations =  1.0

     total cpu time spent up to now is     3624.4 secs

     total energy              =   -1843.02368327 Ry
     Harris-Foulkes estimate   =   -1843.02368680 Ry
     estimated scf accuracy    <       0.00003136 Ry

     iteration # 17     ecut=    70.00 Ry     beta=0.70
     Davidson diagonalization with overlap
     ethr =  1.31E-08,  avg # of iterations =  2.0

     total cpu time spent up to now is     3801.1 secs

     total energy              =   -1843.02368521 Ry
     Harris-Foulkes estimate   =   -1843.02368573 Ry
     estimated scf accuracy    <       0.00000145 Ry

     iteration # 18     ecut=    70.00 Ry     beta=0.70
     Davidson diagonalization with overlap
     ethr =  6.04E-10,  avg # of iterations =  4.0

     total cpu time spent up to now is     4108.1 secs

     total energy              =   -1843.02368610 Ry
     Harris-Foulkes estimate   =   -1843.02368638 Ry
     estimated scf accuracy    <       0.00000082 Ry

     iteration # 19     ecut=    70.00 Ry     beta=0.70
     Davidson diagonalization with overlap
     ethr =  3.43E-10,  avg # of iterations =  1.9

     total cpu time spent up to now is     4282.3 secs

     total energy              =   -1843.02368614 Ry
     Harris-Foulkes estimate   =   -1843.02368631 Ry
     estimated scf accuracy    <       0.00000156 Ry

     iteration # 20     ecut=    70.00 Ry     beta=0.70
     Davidson diagonalization with overlap
     ethr =  3.43E-10,  avg # of iterations =  1.4

     total cpu time spent up to now is     4453.5 secs

     total energy              =   -1843.02368622 Ry
     Harris-Foulkes estimate   =   -1843.02368624 Ry
     estimated scf accuracy    <       0.00000015 Ry

     iteration # 21     ecut=    70.00 Ry     beta=0.70
     Davidson diagonalization with overlap
     ethr =  6.27E-11,  avg # of iterations =  3.0

     total cpu time spent up to now is     4634.1 secs

     End of self-consistent calculation

          k = 0.1250 0.1250 0.1330 ( 54719 PWs)   bands (ev):

   -18.7822 -18.7437 -18.7359 -18.7356 -18.7290 -18.7143 -18.7042 -18.7002
   -17.2995 -17.2966 -17.2950 -17.2906 -17.2826 -17.2715 -17.2650 -17.2608
   -12.8182 -12.8083 -12.7965 -12.7412 -12.7077 -12.6952 -12.6949 -12.6511
   -12.2952 -12.2939 -11.6528 -11.6503 -10.5709 -10.5147 -10.4477 -10.4286
   -10.4148 -10.3773 -10.3357 -10.2710  -8.0609  -8.0609  -8.0578  -8.0554
    -8.0487  -8.0446  -8.0419  -8.0317  -5.2857  -5.1398  -5.0090  -4.8960
    -4.8631  -4.7914  -4.6537  -4.5454  -4.4212  -4.3418  -4.3392  -4.3278
    -4.3042  -4.2658  -4.2245  -4.1860  -3.0463  -2.9899  -2.8229  -2.7267
    -2.6845  -2.5640  -2.5250  -2.4352  -2.1042  -1.9757  -1.8367  -1.8241
    -1.7776  -1.6784  -1.6728  -1.5039  -1.2283  -1.1421  -1.0252  -0.9408
    -0.7926  -0.7425  -0.7040  -0.6745  -0.5955  -0.4331  -0.3885  -0.3161
    -0.3135  -0.2670  -0.2511  -0.1769  -0.1202   0.0541   0.0762   0.1272
     0.1827   0.2276   0.2487   0.2680   0.3145   0.4305   0.7075   0.8027
     0.8107   0.9062   1.0022   1.0352   1.0902   1.1515   1.1699   1.2244
     1.4768   1.5416   1.6525   1.6740   1.6992   1.7183   2.6391   2.8313
     2.8466   2.8732   3.5583   3.5623   3.5949   3.6600   3.7932   3.8232
     3.9022   3.9710   5.3707   5.4798   5.5848   5.6725   5.9271   6.0337
     6.0628   6.1958   6.2599   6.3801   6.5150   6.5342   6.5523   6.6374

     occupation numbers 
     1.0000   1.0000   1.0000   1.0000   1.0000   1.0000   1.0000   1.0000
     1.0000   1.0000   1.0000   1.0000   1.0000   1.0000   1.0000   1.0000
     1.0000   1.0000   1.0000   1.0000   1.0000   1.0000   1.0000   1.0000
     1.0000   1.0000   1.0000   1.0000   1.0000   1.0000   1.0000   1.0000
     1.0000   1.0000   1.0000   1.0000   1.0000   1.0000   1.0000   1.0000
     1.0000   1.0000   1.0000   1.0000   1.0000   1.0000   1.0000   1.0000
     1.0000   1.0000   1.0000   1.0000   1.0000   1.0000   1.0000   1.0000
     1.0000   1.0000   1.0000   1.0000   1.0000   1.0000   1.0000   1.0000
     1.0000   1.0000   1.0000   1.0000   1.0000   1.0000   1.0000   1.0000
     1.0000   1.0000   1.0000   1.0000   1.0000   1.0000   1.0000   1.0000
     1.0000   1.0000   1.0000   1.0000   1.0000   1.0000   1.0000   1.0000
     1.0000   1.0000   1.0000   1.0000   1.0000   1.0000   1.0000   1.0000
     1.0000   1.0000   1.0000   1.0000   1.0000   1.0000   1.0000   1.0000
     1.0000   1.0000   1.0000   1.0000   1.0000   1.0000   1.0000   1.0000
     1.0000   1.0000   1.0000   1.0000   1.0000   1.0000   0.9843   0.5736
     0.4975   0.3676   0.0000   0.0000   0.0000   0.0000   0.0000   0.0000
     0.0000   0.0000   0.0000   0.0000   0.0000   0.0000   0.0000   0.0000
     0.0000   0.0000   0.0000   0.0000   0.0000   0.0000   0.0000   0.0000

          k = 0.1250 0.1250 0.3991 ( 54739 PWs)   bands (ev):

   -18.7703 -18.7535 -18.7338 -18.7333 -18.7223 -18.7135 -18.7132 -18.7060
   -17.2957 -17.2949 -17.2894 -17.2886 -17.2804 -17.2778 -17.2682 -17.2658
   -12.7880 -12.7874 -12.7651 -12.7417 -12.7273 -12.7255 -12.7067 -12.6765
   -12.2938 -12.2933 -11.6554 -11.6545 -10.5503 -10.5264 -10.4392 -10.4182
   -10.4048 -10.3882 -10.3261 -10.2971  -8.0599  -8.0583  -8.0545  -8.0536
    -8.0506  -8.0466  -8.0426  -8.0368  -5.1801  -5.1747  -5.0502  -5.0047
    -4.8252  -4.6748  -4.6228  -4.5089  -4.4292  -4.3939  -4.3732  -4.3692
    -4.3410  -4.3294  -4.1576  -4.1510  -3.1758  -3.0387  -2.8445  -2.7725
    -2.6542  -2.5492  -2.3920  -2.3709  -2.0391  -1.9980  -1.9289  -1.7810
    -1.7206  -1.6262  -1.5655  -1.5522  -1.2681  -1.1552  -0.9418  -0.8605
    -0.8264  -0.7850  -0.7541  -0.6828  -0.5737  -0.4947  -0.4242  -0.3799
    -0.2746  -0.2692  -0.2420  -0.2341  -0.0232   0.0436   0.0777   0.1081
     0.1374   0.1757   0.1890   0.2658   0.2821   0.3438   0.6968   0.7693
     0.9116   0.9523   1.0037   1.0282   1.1024   1.1340   1.1716   1.2165
     1.4906   1.5159   1.6452   1.6659   1.6995   1.7173   2.7704   2.8352
     2.8461   2.8753   3.4956   3.5090   3.6575   3.6675   3.7106   3.8024
     4.0346   4.0821   5.5010   5.6086   5.6774   5.8597   5.8871   6.0767
     6.1050   6.1264   6.1834   6.2253   6.3524   6.3741   6.5808   6.6198

     occupation numbers 
     1.0000   1.0000   1.0000   1.0000   1.0000   1.0000   1.0000   1.0000
     1.0000   1.0000   1.0000   1.0000   1.0000   1.0000   1.0000   1.0000
     1.0000   1.0000   1.0000   1.0000   1.0000   1.0000   1.0000   1.0000
     1.0000   1.0000   1.0000   1.0000   1.0000   1.0000   1.0000   1.0000
     1.0000   1.0000   1.0000   1.0000   1.0000   1.0000   1.0000   1.0000
     1.0000   1.0000   1.0000   1.0000   1.0000   1.0000   1.0000   1.0000
     1.0000   1.0000   1.0000   1.0000   1.0000   1.0000   1.0000   1.0000
     1.0000   1.0000   1.0000   1.0000   1.0000   1.0000   1.0000   1.0000
     1.0000   1.0000   1.0000   1.0000   1.0000   1.0000   1.0000   1.0000
     1.0000   1.0000   1.0000   1.0000   1.0000   1.0000   1.0000   1.0000
     1.0000   1.0000   1.0000   1.0000   1.0000   1.0000   1.0000   1.0000
     1.0000   1.0000   1.0000   1.0000   1.0000   1.0000   1.0000   1.0000
     1.0000   1.0000   1.0000   1.0000   1.0000   1.0000   1.0000   1.0000
     1.0000   1.0000   1.0000   1.0000   1.0000   1.0000   1.0000   1.0000
     1.0000   1.0000   1.0000   1.0000   1.0000   1.0000   0.8198   0.5542
     0.5001   0.3580   0.0000   0.0000   0.0000   0.0000   0.0000   0.0000
     0.0000   0.0000   0.0000   0.0000   0.0000   0.0000   0.0000   0.0000
     0.0000   0.0000   0.0000   0.0000   0.0000   0.0000   0.0000   0.0000

          k = 0.1250 0.3750 0.1330 ( 54790 PWs)   bands (ev):

   -18.7721 -18.7550 -18.7415 -18.7377 -18.7202 -18.7122 -18.7059 -18.7004
   -17.3016 -17.3002 -17.2970 -17.2922 -17.2768 -17.2713 -17.2623 -17.2599
   -12.8192 -12.8144 -12.7836 -12.7604 -12.6999 -12.6930 -12.6791 -12.6630
   -12.2948 -12.2943 -11.6518 -11.6507 -10.5484 -10.5288 -10.4550 -10.4526
   -10.4158 -10.3867 -10.2988 -10.2764  -8.0629  -8.0628  -8.0586  -8.0583
    -8.0433  -8.0421  -8.0394  -8.0339  -5.2592  -5.1864  -5.0411  -4.9150
    -4.7789  -4.7600  -4.6653  -4.5364  -4.4108  -4.3891  -4.3760  -4.3466
    -4.2824  -4.2612  -4.1942  -4.1554  -3.0937  -3.0541  -2.9065  -2.7517
    -2.6112  -2.5657  -2.4431  -2.4422  -2.1395  -2.0312  -1.8480  -1.7929
    -1.7064  -1.6613  -1.5817  -1.5244  -1.2102  -1.1776  -1.0067  -0.8926
    -0.8112  -0.7405  -0.6648  -0.5984  -0.5415  -0.5056  -0.4158  -0.3684
    -0.2506  -0.2121  -0.2044  -0.1860  -0.0507  -0.0374  -0.0245   0.0398
     0.1270   0.2221   0.2260   0.2884   0.3059   0.3745   0.7631   0.7832
     0.8908   0.9035   0.9821   0.9939   1.0614   1.0910   1.1888   1.1893
     1.4986   1.5237   1.6698   1.6823   1.6849   1.7027   2.7020   2.8192
     2.8947   2.9239   3.5388   3.5522   3.6074   3.6431   3.8321   3.8372
     3.9314   3.9440   5.4747   5.5405   5.6630   5.7229   5.8071   5.9272
     6.0118   6.1673   6.3558   6.3597   6.4756   6.4759   6.5656   6.6299

     occupation numbers 
     1.0000   1.0000   1.0000   1.0000   1.0000   1.0000   1.0000   1.0000
     1.0000   1.0000   1.0000   1.0000   1.0000   1.0000   1.0000   1.0000
     1.0000   1.0000   1.0000   1.0000   1.0000   1.0000   1.0000   1.0000
     1.0000   1.0000   1.0000   1.0000   1.0000   1.0000   1.0000   1.0000
     1.0000   1.0000   1.0000   1.0000   1.0000   1.0000   1.0000   1.0000
     1.0000   1.0000   1.0000   1.0000   1.0000   1.0000   1.0000   1.0000
     1.0000   1.0000   1.0000   1.0000   1.0000   1.0000   1.0000   1.0000
     1.0000   1.0000   1.0000   1.0000   1.0000   1.0000   1.0000   1.0000
     1.0000   1.0000   1.0000   1.0000   1.0000   1.0000   1.0000   1.0000
     1.0000   1.0000   1.0000   1.0000   1.0000   1.0000   1.0000   1.0000
     1.0000   1.0000   1.0000   1.0000   1.0000   1.0000   1.0000   1.0000
     1.0000   1.0000   1.0000   1.0000   1.0000   1.0000   1.0000   1.0000
     1.0000   1.0000   1.0000   1.0000   1.0000   1.0000   1.0000   1.0000
     1.0000   1.0000   1.0000   1.0000   1.0000   1.0000   1.0000   1.0000
     1.0000   1.0000   1.0000   1.0000   1.0000   1.0000   0.9469   0.6316
     0.2747   0.1743   0.0000   0.0000   0.0000   0.0000   0.0000   0.0000
     0.0000   0.0000   0.0000   0.0000   0.0000   0.0000   0.0000   0.0000
     0.0000   0.0000   0.0000   0.0000   0.0000   0.0000   0.0000   0.0000

          k = 0.1250 0.3750 0.3991 ( 54748 PWs)   bands (ev):

   -18.7618 -18.7481 -18.7472 -18.7390 -18.7195 -18.7167 -18.7082 -18.7055
   -17.2995 -17.2981 -17.2916 -17.2886 -17.2787 -17.2773 -17.2635 -17.2633
   -12.7957 -12.7945 -12.7596 -12.7458 -12.7171 -12.7158 -12.7011 -12.6879
   -12.2936 -12.2933 -11.6549 -11.6544 -10.5338 -10.5251 -10.4433 -10.4411
   -10.4165 -10.4024 -10.3000 -10.2905  -8.0615  -8.0614  -8.0555  -8.0548
    -8.0473  -8.0456  -8.0390  -8.0370  -5.1790  -5.1698  -5.0011  -4.9868
    -4.8392  -4.7751  -4.5670  -4.5264  -4.4409  -4.4291  -4.3886  -4.3839
    -4.3203  -4.3152  -4.1429  -4.1344  -3.0740  -3.0581  -2.8371  -2.8081
    -2.6568  -2.6195  -2.3987  -2.3884  -2.0158  -2.0117  -1.8604  -1.8147
    -1.7171  -1.6837  -1.5264  -1.5142  -1.2646  -1.2156  -0.9305  -0.8468
    -0.7902  -0.7873  -0.6974  -0.6160  -0.5295  -0.5241  -0.4694  -0.4497
    -0.2480  -0.2387  -0.1874  -0.1846  -0.0931  -0.0720   0.0103   0.0513
     0.1608   0.1950   0.2473   0.2757   0.3242   0.3534   0.7604   0.7694
     0.8991   0.8992   0.9571   0.9657   1.0993   1.1137   1.1795   1.1847
     1.5149   1.5226   1.6606   1.6656   1.6841   1.6938   2.7840   2.8298
     2.9130   2.9196   3.4608   3.4686   3.6614   3.6799   3.8463   3.8651
     3.9996   4.0211   5.4987   5.5031   5.7649   5.7783   5.9371   6.0207
     6.1336   6.1343   6.2199   6.2497   6.3584   6.3770   6.5376   6.5782

     occupation numbers 
     1.0000   1.0000   1.0000   1.0000   1.0000   1.0000   1.0000   1.0000
     1.0000   1.0000   1.0000   1.0000   1.0000   1.0000   1.0000   1.0000
     1.0000   1.0000   1.0000   1.0000   1.0000   1.0000   1.0000   1.0000
     1.0000   1.0000   1.0000   1.0000   1.0000   1.0000   1.0000   1.0000
     1.0000   1.0000   1.0000   1.0000   1.0000   1.0000   1.0000   1.0000
     1.0000   1.0000   1.0000   1.0000   1.0000   1.0000   1.0000   1.0000
     1.0000   1.0000   1.0000   1.0000   1.0000   1.0000   1.0000   1.0000
     1.0000   1.0000   1.0000   1.0000   1.0000   1.0000   1.0000   1.0000
     1.0000   1.0000   1.0000   1.0000   1.0000   1.0000   1.0000   1.0000
     1.0000   1.0000   1.0000   1.0000   1.0000   1.0000   1.0000   1.0000
     1.0000   1.0000   1.0000   1.0000   1.0000   1.0000   1.0000   1.0000
     1.0000   1.0000   1.0000   1.0000   1.0000   1.0000   1.0000   1.0000
     1.0000   1.0000   1.0000   1.0000   1.0000   1.0000   1.0000   1.0000
     1.0000   1.0000   1.0000   1.0000   1.0000   1.0000   1.0000   1.0000
     1.0000   1.0000   1.0000   1.0000   1.0000   1.0000   0.7759   0.5811
     0.2080   0.1869   0.0000   0.0000   0.0000   0.0000   0.0000   0.0000
     0.0000   0.0000   0.0000   0.0000   0.0000   0.0000   0.0000   0.0000
     0.0000   0.0000   0.0000   0.0000   0.0000   0.0000   0.0000   0.0000

          k = 0.3750 0.3750 0.1330 ( 54779 PWs)   bands (ev):

   -18.7657 -18.7587 -18.7372 -18.7337 -18.7301 -18.7210 -18.7001 -18.6986
   -17.3024 -17.3022 -17.2971 -17.2962 -17.2737 -17.2720 -17.2592 -17.2584
   -12.8235 -12.8221 -12.7678 -12.7562 -12.7098 -12.7025 -12.6674 -12.6626
   -12.2947 -12.2944 -11.6511 -11.6506 -10.5310 -10.5194 -10.4784 -10.4745
   -10.4095 -10.4004 -10.2796 -10.2718  -8.0673  -8.0670  -8.0574  -8.0572
    -8.0403  -8.0393  -8.0372  -8.0353  -5.2218  -5.1765  -5.0842  -5.0256
    -4.7121  -4.6816  -4.6183  -4.5825  -4.4006  -4.4000  -4.3750  -4.3708
    -4.3009  -4.2897  -4.1421  -4.1346  -3.1228  -3.1180  -2.9262  -2.8826
    -2.5419  -2.5298  -2.4227  -2.4050  -2.0963  -2.0587  -1.8318  -1.8129
    -1.6514  -1.6197  -1.5543  -1.5520  -1.1927  -1.1633  -1.0751  -1.0216
    -0.6836  -0.6672  -0.6346  -0.5675  -0.5641  -0.5372  -0.3691  -0.3558
    -0.2735  -0.2422  -0.2084  -0.1965  -0.0682  -0.0567   0.0505   0.0505
     0.1661   0.1867   0.2035   0.2691   0.2911   0.3621   0.5970   0.6540
     0.8983   0.8992   0.9723   0.9851   1.0944   1.0981   1.2386   1.2534
     1.4990   1.5115   1.6676   1.6731   1.6995   1.7084   2.7122   2.7535
     2.9764   2.9768   3.5522   3.5533   3.6761   3.6894   3.7705   3.7860
     3.9356   3.9418   5.4706   5.4772   5.7692   5.7772   5.8558   5.9355
     6.1115   6.1203   6.2954   6.3298   6.3795   6.4123   6.5548   6.5725

     occupation numbers 
     1.0000   1.0000   1.0000   1.0000   1.0000   1.0000   1.0000   1.0000
     1.0000   1.0000   1.0000   1.0000   1.0000   1.0000   1.0000   1.0000
     1.0000   1.0000   1.0000   1.0000   1.0000   1.0000   1.0000   1.0000
     1.0000   1.0000   1.0000   1.0000   1.0000   1.0000   1.0000   1.0000
     1.0000   1.0000   1.0000   1.0000   1.0000   1.0000   1.0000   1.0000
     1.0000   1.0000   1.0000   1.0000   1.0000   1.0000   1.0000   1.0000
     1.0000   1.0000   1.0000   1.0000   1.0000   1.0000   1.0000   1.0000
     1.0000   1.0000   1.0000   1.0000   1.0000   1.0000   1.0000   1.0000
     1.0000   1.0000   1.0000   1.0000   1.0000   1.0000   1.0000   1.0000
     1.0000   1.0000   1.0000   1.0000   1.0000   1.0000   1.0000   1.0000
     1.0000   1.0000   1.0000   1.0000   1.0000   1.0000   1.0000   1.0000
     1.0000   1.0000   1.0000   1.0000   1.0000   1.0000   1.0000   1.0000
     1.0000   1.0000   1.0000   1.0000   1.0000   1.0000   1.0000   1.0000
     1.0000   1.0000   1.0000   1.0000   1.0000   1.0000   1.0000   1.0000
     1.0000   1.0000   1.0000   1.0000   1.0000   1.0000   0.9358   0.8643
     0.0688   0.0683   0.0000   0.0000   0.0000   0.0000   0.0000   0.0000
     0.0000   0.0000   0.0000   0.0000   0.0000   0.0000   0.0000   0.0000
     0.0000   0.0000   0.0000   0.0000   0.0000   0.0000   0.0000   0.0000

          k = 0.3750 0.3750 0.3991 ( 54733 PWs)   bands (ev):

   -18.7561 -18.7508 -18.7419 -18.7400 -18.7258 -18.7229 -18.7046 -18.7040
   -17.3016 -17.3013 -17.2901 -17.2893 -17.2799 -17.2794 -17.2595 -17.2593
   -12.8027 -12.8023 -12.7462 -12.7336 -12.7284 -12.7191 -12.6942 -12.6904
   -12.2935 -12.2933 -11.6544 -11.6540 -10.5177 -10.5127 -10.4554 -10.4549
   -10.4280 -10.4230 -10.2834 -10.2803  -8.0665  -8.0663  -8.0524  -8.0515
    -8.0452  -8.0436  -8.0385  -8.0380  -5.1429  -5.1426  -5.0203  -5.0016
    -4.8260  -4.7816  -4.5776  -4.5712  -4.4308  -4.4253  -4.3919  -4.3848
    -4.3555  -4.3483  -4.1127  -4.1107  -3.0112  -3.0101  -2.8446  -2.8355
    -2.6560  -2.6301  -2.4152  -2.4103  -2.0483  -2.0421  -1.8161  -1.7943
    -1.6970  -1.6912  -1.5280  -1.5226  -1.2418  -1.2099  -0.9590  -0.9122
    -0.7905  -0.7800  -0.6740  -0.6674  -0.5867  -0.5762  -0.3500  -0.3378
    -0.2833  -0.2820  -0.1992  -0.1983  -0.0438   0.0209   0.0616   0.1240
     0.1282   0.1572   0.2651   0.2706   0.3468   0.3569   0.7051   0.7151
     0.8044   0.8154   0.8997   0.9096   1.1558   1.1576   1.2045   1.2106
     1.5167   1.5218   1.6729   1.6773   1.6912   1.6925   2.7595   2.7770
     2.9806   2.9814   3.4653   3.4656   3.7549   3.7559   3.8374   3.8484
     3.9545   3.9626   5.3656   5.3687   5.8755   5.9164   6.0381   6.0412
     6.1546   6.1618   6.2076   6.2454   6.3154   6.3706   6.4696   6.4767

     occupation numbers 
     1.0000   1.0000   1.0000   1.0000   1.0000   1.0000   1.0000   1.0000
     1.0000   1.0000   1.0000   1.0000   1.0000   1.0000   1.0000   1.0000
     1.0000   1.0000   1.0000   1.0000   1.0000   1.0000   1.0000   1.0000
     1.0000   1.0000   1.0000   1.0000   1.0000   1.0000   1.0000   1.0000
     1.0000   1.0000   1.0000   1.0000   1.0000   1.0000   1.0000   1.0000
     1.0000   1.0000   1.0000   1.0000   1.0000   1.0000   1.0000   1.0000
     1.0000   1.0000   1.0000   1.0000   1.0000   1.0000   1.0000   1.0000
     1.0000   1.0000   1.0000   1.0000   1.0000   1.0000   1.0000   1.0000
     1.0000   1.0000   1.0000   1.0000   1.0000   1.0000   1.0000   1.0000
     1.0000   1.0000   1.0000   1.0000   1.0000   1.0000   1.0000   1.0000
     1.0000   1.0000   1.0000   1.0000   1.0000   1.0000   1.0000   1.0000
     1.0000   1.0000   1.0000   1.0000   1.0000   1.0000   1.0000   1.0000
     1.0000   1.0000   1.0000   1.0000   1.0000   1.0000   1.0000   1.0000
     1.0000   1.0000   1.0000   1.0000   1.0000   1.0000   1.0000   1.0000
     1.0000   1.0000   1.0000   1.0000   1.0000   1.0000   0.8497   0.7993
     0.0636   0.0627   0.0000   0.0000   0.0000   0.0000   0.0000   0.0000
     0.0000   0.0000   0.0000   0.0000   0.0000   0.0000   0.0000   0.0000
     0.0000   0.0000   0.0000   0.0000   0.0000   0.0000   0.0000   0.0000

          k = 0.3750 0.1250-0.1330 ( 54790 PWs)   bands (ev):

   -18.7719 -18.7561 -18.7386 -18.7385 -18.7233 -18.7103 -18.7048 -18.7016
   -17.3022 -17.2997 -17.2951 -17.2944 -17.2755 -17.2724 -17.2618 -17.2602
   -12.8188 -12.8149 -12.7828 -12.7614 -12.6984 -12.6936 -12.6799 -12.6628
   -12.2948 -12.2943 -11.6518 -11.6507 -10.5510 -10.5232 -10.4670 -10.4473
   -10.4066 -10.3924 -10.2982 -10.2768  -8.0632  -8.0628  -8.0587  -8.0576
    -8.0452  -8.0411  -8.0382  -8.0345  -5.2538  -5.2021  -4.9828  -4.9529
    -4.8568  -4.6969  -4.6302  -4.5665  -4.4111  -4.3887  -4.3643  -4.3518
    -4.3064  -4.2451  -4.1770  -4.1714  -3.1137  -3.0608  -2.8030  -2.8029
    -2.6471  -2.5735  -2.4617  -2.4117  -2.1083  -2.0645  -1.8101  -1.8078
    -1.7155  -1.6715  -1.5703  -1.5337  -1.2188  -1.1717  -0.9880  -0.9046
    -0.8306  -0.6884  -0.6710  -0.5966  -0.5957  -0.5162  -0.3953  -0.3053
    -0.2664  -0.2497  -0.1816  -0.1591  -0.1276  -0.0741  -0.0195   0.1168
     0.1425   0.2086   0.2448   0.2584   0.3052   0.3734   0.7357   0.8108
     0.8631   0.9201   0.9700   1.0263   1.0648   1.1120   1.1193   1.2243
     1.4956   1.5258   1.6677   1.6817   1.6857   1.7035   2.7158   2.7918
     2.8988   2.9323   3.5438   3.5518   3.6155   3.6409   3.8211   3.8305
     3.9408   3.9427   5.4830   5.5368   5.6707   5.7246   5.7590   5.9459
     6.0703   6.1189   6.3271   6.4049   6.4961   6.5123   6.5249   6.5821

     occupation numbers 
     1.0000   1.0000   1.0000   1.0000   1.0000   1.0000   1.0000   1.0000
     1.0000   1.0000   1.0000   1.0000   1.0000   1.0000   1.0000   1.0000
     1.0000   1.0000   1.0000   1.0000   1.0000   1.0000   1.0000   1.0000
     1.0000   1.0000   1.0000   1.0000   1.0000   1.0000   1.0000   1.0000
     1.0000   1.0000   1.0000   1.0000   1.0000   1.0000   1.0000   1.0000
     1.0000   1.0000   1.0000   1.0000   1.0000   1.0000   1.0000   1.0000
     1.0000   1.0000   1.0000   1.0000   1.0000   1.0000   1.0000   1.0000
     1.0000   1.0000   1.0000   1.0000   1.0000   1.0000   1.0000   1.0000
     1.0000   1.0000   1.0000   1.0000   1.0000   1.0000   1.0000   1.0000
     1.0000   1.0000   1.0000   1.0000   1.0000   1.0000   1.0000   1.0000
     1.0000   1.0000   1.0000   1.0000   1.0000   1.0000   1.0000   1.0000
     1.0000   1.0000   1.0000   1.0000   1.0000   1.0000   1.0000   1.0000
     1.0000   1.0000   1.0000   1.0000   1.0000   1.0000   1.0000   1.0000
     1.0000   1.0000   1.0000   1.0000   1.0000   1.0000   1.0000   1.0000
     1.0000   1.0000   1.0000   1.0000   1.0000   1.0000   0.9312   0.7479
     0.2584   0.1515   0.0000   0.0000   0.0000   0.0000   0.0000   0.0000
     0.0000   0.0000   0.0000   0.0000   0.0000   0.0000   0.0000   0.0000
     0.0000   0.0000   0.0000   0.0000   0.0000   0.0000   0.0000   0.0000

          k = 0.3750 0.1250-0.3991 ( 54748 PWs)   bands (ev):

   -18.7616 -18.7507 -18.7439 -18.7398 -18.7209 -18.7154 -18.7076 -18.7062
   -17.2990 -17.2987 -17.2904 -17.2900 -17.2782 -17.2775 -17.2638 -17.2631
   -12.7952 -12.7950 -12.7584 -12.7479 -12.7169 -12.7132 -12.7034 -12.6875
   -12.2936 -12.2933 -11.6549 -11.6544 -10.5351 -10.5228 -10.4502 -10.4380
   -10.4094 -10.4066 -10.2998 -10.2908  -8.0617  -8.0615  -8.0555  -8.0540
    -8.0482  -8.0454  -8.0387  -8.0371  -5.1776  -5.1704  -5.0239  -4.9280
    -4.9007  -4.7517  -4.5571  -4.5326  -4.4419  -4.4225  -4.3970  -4.3814
    -4.3285  -4.3096  -4.1385  -4.1383  -3.0960  -3.0371  -2.8403  -2.7876
    -2.6806  -2.6142  -2.3940  -2.3929  -2.0200  -1.9990  -1.8783  -1.7957
    -1.7267  -1.6824  -1.5229  -1.5170  -1.2685  -1.2152  -0.8955  -0.8628
    -0.8276  -0.7305  -0.6986  -0.6598  -0.5752  -0.5463  -0.4068  -0.3906
    -0.3067  -0.2809  -0.1637  -0.1313  -0.0782  -0.0573  -0.0253   0.0515
     0.1245   0.1967   0.2709   0.2845   0.3254   0.3355   0.7777   0.8024
     0.8437   0.8825   0.9586   0.9857   1.1004   1.1170   1.1604   1.2060
     1.5116   1.5252   1.6617   1.6688   1.6821   1.6904   2.7932   2.8255
     2.9053   2.9201   3.4637   3.4682   3.6734   3.6757   3.8322   3.8694
     3.9981   4.0243   5.4810   5.5371   5.7131   5.8042   5.9379   6.0245
     6.1346   6.1391   6.2143   6.2884   6.3375   6.3642   6.5368   6.5812

     occupation numbers 
     1.0000   1.0000   1.0000   1.0000   1.0000   1.0000   1.0000   1.0000
     1.0000   1.0000   1.0000   1.0000   1.0000   1.0000   1.0000   1.0000
     1.0000   1.0000   1.0000   1.0000   1.0000   1.0000   1.0000   1.0000
     1.0000   1.0000   1.0000   1.0000   1.0000   1.0000   1.0000   1.0000
     1.0000   1.0000   1.0000   1.0000   1.0000   1.0000   1.0000   1.0000
     1.0000   1.0000   1.0000   1.0000   1.0000   1.0000   1.0000   1.0000
     1.0000   1.0000   1.0000   1.0000   1.0000   1.0000   1.0000   1.0000
     1.0000   1.0000   1.0000   1.0000   1.0000   1.0000   1.0000   1.0000
     1.0000   1.0000   1.0000   1.0000   1.0000   1.0000   1.0000   1.0000
     1.0000   1.0000   1.0000   1.0000   1.0000   1.0000   1.0000   1.0000
     1.0000   1.0000   1.0000   1.0000   1.0000   1.0000   1.0000   1.0000
     1.0000   1.0000   1.0000   1.0000   1.0000   1.0000   1.0000   1.0000
     1.0000   1.0000   1.0000   1.0000   1.0000   1.0000   1.0000   1.0000
     1.0000   1.0000   1.0000   1.0000   1.0000   1.0000   1.0000   1.0000
     1.0000   1.0000   1.0000   1.0000   1.0000   1.0000   0.7424   0.6016
     0.2345   0.1856   0.0000   0.0000   0.0000   0.0000   0.0000   0.0000
     0.0000   0.0000   0.0000   0.0000   0.0000   0.0000   0.0000   0.0000
     0.0000   0.0000   0.0000   0.0000   0.0000   0.0000   0.0000   0.0000

     the Fermi energy is     2.8461 ev

!    total energy              =   -1843.02368621 Ry
     Harris-Foulkes estimate   =   -1843.02368625 Ry
     estimated scf accuracy    <       0.00000004 Ry

     total all-electron energy =    -18549.184090 Ry

     The total energy is the sum of the following terms:

     one-electron contribution =    -530.70271448 Ry
     hartree contribution      =     373.77643868 Ry
     xc contribution           =    -330.06573859 Ry
     ewald contribution        =    -464.74063260 Ry
     one-center paw contrib.   =    -891.27693695 Ry
     smearing contrib. (-TS)   =      -0.01410227 Ry

     convergence has been achieved in  21 iterations

     Forces acting on atoms (Ry/au):

     atom    1 type  2   force =    -0.01754532   -0.09630909    0.00945996
     atom    2 type  2   force =     0.01754532    0.09630909    0.00945996
     atom    3 type  2   force =     0.09631641   -0.01754855    0.00947787
     atom    4 type  2   force =     0.09630909   -0.01754532    0.00945996
     atom    5 type  2   force =    -0.09630909    0.01754532    0.00945996
     atom    6 type  2   force =     0.01754855    0.09631641    0.00947787
     atom    7 type  2   force =    -0.01754855   -0.09631641    0.00947787
     atom    8 type  2   force =    -0.09631641    0.01754855    0.00947787
     atom    9 type  5   force =     0.00000000    0.00000000    0.03174284
     atom   10 type  5   force =     0.00000000    0.00000000    0.01832354
     atom   11 type  5   force =     0.00000000    0.00000000    0.03173287
     atom   12 type  5   force =     0.00000000    0.00000000    0.01830469
     atom   13 type  1   force =    -2.29738794   -2.29681588   -2.08539392
     atom   14 type  1   force =     0.03824029    0.00154861    0.12790682
     atom   15 type  1   force =    -2.29681526    2.29738722   -2.08539529
     atom   16 type  1   force =     2.29681526   -2.29738722   -2.08539529
     atom   17 type  1   force =    -0.02241571    0.10482802   -0.07230382
     atom   18 type  1   force =     0.02241571   -0.10482802   -0.07230382
     atom   19 type  1   force =     0.10482802    0.02241571   -0.07230382
     atom   20 type  1   force =    -0.10482802   -0.02241571   -0.07230382
     atom   21 type  1   force =    -1.64361290   -0.59747347    0.95284164
     atom   22 type  1   force =     0.59747347   -1.64361290    0.95284164
     atom   23 type  1   force =    -0.00154861    0.03824029    0.12790682
     atom   24 type  1   force =     0.00154956   -0.03823904    0.12790384
     atom   25 type  1   force =    -0.00154956    0.03823904    0.12790384
     atom   26 type  1   force =    -0.59747497    1.64362054    0.95284915
     atom   27 type  1   force =     0.59747497   -1.64362054    0.95284915
     atom   28 type  1   force =    -1.64362054   -0.59747497    0.95284915
     atom   29 type  1   force =     1.64362054    0.59747497    0.95284915
     atom   30 type  1   force =    -0.10482718   -0.02241801   -0.07230175
     atom   31 type  1   force =    -0.02241801    0.10482718   -0.07230175
     atom   32 type  1   force =     2.29681588   -2.29738794   -2.08539392
     atom   33 type  1   force =     0.03823904    0.00154956    0.12790384
     atom   34 type  1   force =    -0.03823904   -0.00154956    0.12790384
     atom   35 type  1   force =    -2.29738722   -2.29681526   -2.08539529
     atom   36 type  1   force =     2.29738722    2.29681526   -2.08539529
     atom   37 type  1   force =    -2.29681588    2.29738794   -2.08539392
     atom   38 type  1   force =     0.02241801   -0.10482718   -0.07230175
     atom   39 type  1   force =     0.10482718    0.02241801   -0.07230175
     atom   40 type  1   force =     0.00154861   -0.03824029    0.12790682
     atom   41 type  1   force =    -0.59747347    1.64361290    0.95284164
     atom   42 type  1   force =     1.64361290    0.59747347    0.95284164
     atom   43 type  1   force =    -0.03824029   -0.00154861    0.12790682
     atom   44 type  1   force =     2.29738794    2.29681588   -2.08539392
     atom   45 type  3   force =     2.21221243    2.32214945    1.96763993
     atom   46 type  3   force =     2.32214460   -2.21221124    1.96763805
     atom   47 type  3   force =    -2.32214460    2.21221124    1.96763805
     atom   48 type  3   force =    -0.47946560    1.73079839   -0.91794879
     atom   49 type  3   force =     0.47946560   -1.73079839   -0.91794879
     atom   50 type  3   force =    -1.73080698   -0.47946264   -0.91794955
     atom   51 type  3   force =    -1.73079839   -0.47946560   -0.91794879
     atom   52 type  3   force =     1.73079839    0.47946560   -0.91794879
     atom   53 type  3   force =     0.47946264   -1.73080698   -0.91794955
     atom   54 type  3   force =    -2.32214945    2.21221243    1.96763993
     atom   55 type  3   force =    -2.21221124   -2.32214460    1.96763805
     atom   56 type  3   force =     2.21221124    2.32214460    1.96763805
     atom   57 type  3   force =     2.32214945   -2.21221243    1.96763993
     atom   58 type  3   force =    -0.47946264    1.73080698   -0.91794955
     atom   59 type  3   force =     1.73080698    0.47946264   -0.91794955
     atom   60 type  3   force =    -2.21221243   -2.32214945    1.96763993
     atom   61 type  6   force =     0.00000000    0.00000000   -0.01887944
     atom   62 type  6   force =     0.00000000    0.00000000   -0.01873167
     atom   63 type  4   force =     0.00225071   -0.02636243    0.00998436
     atom   64 type  4   force =    -0.00225071    0.02636243    0.00998436
     atom   65 type  4   force =     0.02638390    0.00223527    0.00996829
     atom   66 type  4   force =     0.02636243    0.00225071    0.00998436
     atom   67 type  4   force =    -0.02636243   -0.00225071    0.00998436
     atom   68 type  4   force =    -0.00223527    0.02638390    0.00996829
     atom   69 type  4   force =     0.00223527   -0.02638390    0.00996829
     atom   70 type  4   force =    -0.02638390   -0.00223527    0.00996829
     The non-local contrib.  to forces
     atom    1 type  2   force =     0.11405243   -0.06111562    0.25257310
     atom    2 type  2   force =    -0.11405243    0.06111562    0.25257310
     atom    3 type  2   force =     0.06109296    0.11403855    0.25260414
     atom    4 type  2   force =     0.06111562    0.11405243    0.25257310
     atom    5 type  2   force =    -0.06111562   -0.11405243    0.25257310
     atom    6 type  2   force =    -0.11403855    0.06109296    0.25260414
     atom    7 type  2   force =     0.11403855   -0.06109296    0.25260414
     atom    8 type  2   force =    -0.06109296   -0.11403855    0.25260414
     atom    9 type  5   force =     0.00000000    0.00000000    0.20491453
     atom   10 type  5   force =     0.00000000    0.00000000   -0.02791534
     atom   11 type  5   force =     0.00000000    0.00000000    0.20489941
     atom   12 type  5   force =     0.00000000    0.00000000   -0.02788215
     atom   13 type  1   force =     0.25843886    0.22404608    0.23761249
     atom   14 type  1   force =     0.00519605   -0.01139230    0.02310521
     atom   15 type  1   force =     0.22404560   -0.25843854    0.23761145
     atom   16 type  1   force =    -0.22404560    0.25843854    0.23761145
     atom   17 type  1   force =    -0.01325373    0.02559084   -0.01290058
     atom   18 type  1   force =     0.01325373   -0.02559084   -0.01290058
     atom   19 type  1   force =     0.02559084    0.01325373   -0.01290058
     atom   20 type  1   force =    -0.02559084   -0.01325373   -0.01290058
     atom   21 type  1   force =     0.21374335    0.10922648   -0.15433951
     atom   22 type  1   force =    -0.10922648    0.21374335   -0.15433951
     atom   23 type  1   force =     0.01139230    0.00519605    0.02310521
     atom   24 type  1   force =    -0.01139224   -0.00519594    0.02310507
     atom   25 type  1   force =     0.01139224    0.00519594    0.02310507
     atom   26 type  1   force =     0.10922821   -0.21374718   -0.15434125
     atom   27 type  1   force =    -0.10922821    0.21374718   -0.15434125
     atom   28 type  1   force =     0.21374718    0.10922821   -0.15434125
     atom   29 type  1   force =    -0.21374718   -0.10922821   -0.15434125
     atom   30 type  1   force =    -0.02559044   -0.01325373   -0.01290033
     atom   31 type  1   force =    -0.01325373    0.02559044   -0.01290033
     atom   32 type  1   force =    -0.22404608    0.25843886    0.23761249
     atom   33 type  1   force =     0.00519594   -0.01139224    0.02310507
     atom   34 type  1   force =    -0.00519594    0.01139224    0.02310507
     atom   35 type  1   force =     0.25843854    0.22404560    0.23761145
     atom   36 type  1   force =    -0.25843854   -0.22404560    0.23761145
     atom   37 type  1   force =     0.22404608   -0.25843886    0.23761249
     atom   38 type  1   force =     0.01325373   -0.02559044   -0.01290033
     atom   39 type  1   force =     0.02559044    0.01325373   -0.01290033
     atom   40 type  1   force =    -0.01139230   -0.00519605    0.02310521
     atom   41 type  1   force =     0.10922648   -0.21374335   -0.15433951
     atom   42 type  1   force =    -0.21374335   -0.10922648   -0.15433951
     atom   43 type  1   force =    -0.00519605    0.01139230    0.02310521
     atom   44 type  1   force =    -0.25843886   -0.22404608    0.23761249
     atom   45 type  3   force =     1.97245021    0.48077542   -0.29140976
     atom   46 type  3   force =     0.48076038   -1.97245388   -0.29140019
     atom   47 type  3   force =    -0.48076038    1.97245388   -0.29140019
     atom   48 type  3   force =     0.08093102    1.15875598   -0.76487438
     atom   49 type  3   force =    -0.08093102   -1.15875598   -0.76487438
     atom   50 type  3   force =    -1.15876562    0.08093043   -0.76483691
     atom   51 type  3   force =    -1.15875598    0.08093102   -0.76487438
     atom   52 type  3   force =     1.15875598   -0.08093102   -0.76487438
     atom   53 type  3   force =    -0.08093043   -1.15876562   -0.76483691
     atom   54 type  3   force =    -0.48077542    1.97245021   -0.29140976
     atom   55 type  3   force =    -1.97245388   -0.48076038   -0.29140019
     atom   56 type  3   force =     1.97245388    0.48076038   -0.29140019
     atom   57 type  3   force =     0.48077542   -1.97245021   -0.29140976
     atom   58 type  3   force =     0.08093043    1.15876562   -0.76483691
     atom   59 type  3   force =     1.15876562   -0.08093043   -0.76483691
     atom   60 type  3   force =    -1.97245021   -0.48077542   -0.29140976
     atom   61 type  6   force =     0.00000000    0.00000000   -0.01367192
     atom   62 type  6   force =     0.00000000    0.00000000   -0.01357184
     atom   63 type  4   force =     0.12449659   -0.09995230    0.19015470
     atom   64 type  4   force =    -0.12449659    0.09995230    0.19015470
     atom   65 type  4   force =     0.09994261    0.12451206    0.19014326
     atom   66 type  4   force =     0.09995230    0.12449659    0.19015470
     atom   67 type  4   force =    -0.09995230   -0.12449659    0.19015470
     atom   68 type  4   force =    -0.12451206    0.09994261    0.19014326
     atom   69 type  4   force =     0.12451206   -0.09994261    0.19014326
     atom   70 type  4   force =    -0.09994261   -0.12451206    0.19014326
     The ionic contribution  to forces
     atom    1 type  2   force =    -1.73721233   -0.08591796   -1.04308642
     atom    2 type  2   force =     1.73721233    0.08591796   -1.04308642
     atom    3 type  2   force =     0.08591796   -1.73721233   -1.04308642
     atom    4 type  2   force =     0.08591796   -1.73721233   -1.04308642
     atom    5 type  2   force =    -0.08591796    1.73721233   -1.04308642
     atom    6 type  2   force =     1.73721233    0.08591796   -1.04308642
     atom    7 type  2   force =    -1.73721233   -0.08591796   -1.04308642
     atom    8 type  2   force =    -0.08591796    1.73721233   -1.04308642
     atom    9 type  5   force =    -0.00000000   -0.00000000   -5.77033098
     atom   10 type  5   force =     0.00000000    0.00000000    6.79985126
     atom   11 type  5   force =     0.00000000    0.00000000   -5.77033098
     atom   12 type  5   force =     0.00000000    0.00000000    6.79985126
     atom   13 type  1   force =    -5.67978283   -4.81334153   -4.76568557
     atom   14 type  1   force =    -0.31141380    0.62295295   -1.12324621
     atom   15 type  1   force =    -4.81334153    5.67978283   -4.76568557
     atom   16 type  1   force =     4.81334153   -5.67978283   -4.76568557
     atom   17 type  1   force =     0.29159258   -0.84580510    0.42204936
     atom   18 type  1   force =    -0.29159258    0.84580510    0.42204936
     atom   19 type  1   force =    -0.84580510   -0.29159258    0.42204936
     atom   20 type  1   force =     0.84580510    0.29159258    0.42204936
     atom   21 type  1   force =    -5.06972731   -2.22674766    3.43827073
     atom   22 type  1   force =     2.22674766   -5.06972731    3.43827073
     atom   23 type  1   force =    -0.62295295   -0.31141380   -1.12324621
     atom   24 type  1   force =     0.62295295    0.31141380   -1.12324621
     atom   25 type  1   force =    -0.62295295   -0.31141380   -1.12324621
     atom   26 type  1   force =    -2.22674766    5.06972731    3.43827073
     atom   27 type  1   force =     2.22674766   -5.06972731    3.43827073
     atom   28 type  1   force =    -5.06972731   -2.22674766    3.43827073
     atom   29 type  1   force =     5.06972731    2.22674766    3.43827073
     atom   30 type  1   force =     0.84580510    0.29159258    0.42204936
     atom   31 type  1   force =     0.29159258   -0.84580510    0.42204936
     atom   32 type  1   force =     4.81334153   -5.67978283   -4.76568557
     atom   33 type  1   force =    -0.31141380    0.62295295   -1.12324621
     atom   34 type  1   force =     0.31141380   -0.62295295   -1.12324621
     atom   35 type  1   force =    -5.67978283   -4.81334153   -4.76568557
     atom   36 type  1   force =     5.67978283    4.81334153   -4.76568557
     atom   37 type  1   force =    -4.81334153    5.67978283   -4.76568557
     atom   38 type  1   force =    -0.29159258    0.84580510    0.42204936
     atom   39 type  1   force =    -0.84580510   -0.29159258    0.42204936
     atom   40 type  1   force =     0.62295295    0.31141380   -1.12324621
     atom   41 type  1   force =    -2.22674766    5.06972731    3.43827073
     atom   42 type  1   force =     5.06972731    2.22674766    3.43827073
     atom   43 type  1   force =     0.31141380   -0.62295295   -1.12324621
     atom   44 type  1   force =     5.67978283    4.81334153   -4.76568557
     atom   45 type  3   force =    -2.22325893    5.82501482    3.29579552
     atom   46 type  3   force =     5.82501482    2.22325893    3.29579552
     atom   47 type  3   force =    -5.82501482   -2.22325893    3.29579552
     atom   48 type  3   force =    -0.20635621    1.08016023    2.69763829
     atom   49 type  3   force =     0.20635621   -1.08016023    2.69763829
     atom   50 type  3   force =    -1.08016023   -0.20635621    2.69763829
     atom   51 type  3   force =    -1.08016023   -0.20635621    2.69763829
     atom   52 type  3   force =     1.08016023    0.20635621    2.69763829
     atom   53 type  3   force =     0.20635621   -1.08016023    2.69763829
     atom   54 type  3   force =    -5.82501482   -2.22325893    3.29579552
     atom   55 type  3   force =     2.22325893   -5.82501482    3.29579552
     atom   56 type  3   force =    -2.22325893    5.82501482    3.29579552
     atom   57 type  3   force =     5.82501482    2.22325893    3.29579552
     atom   58 type  3   force =    -0.20635621    1.08016023    2.69763829
     atom   59 type  3   force =     1.08016023    0.20635621    2.69763829
     atom   60 type  3   force =     2.22325893   -5.82501482    3.29579552
     atom   61 type  6   force =    -0.00000000   -0.00000000    0.32284503
     atom   62 type  6   force =    -0.00000000   -0.00000000    0.32284503
     atom   63 type  4   force =    -3.04111889    3.38668167   -3.25982702
     atom   64 type  4   force =     3.04111889   -3.38668167   -3.25982702
     atom   65 type  4   force =    -3.38668167   -3.04111889   -3.25982702
     atom   66 type  4   force =    -3.38668167   -3.04111889   -3.25982702
     atom   67 type  4   force =     3.38668167    3.04111889   -3.25982702
     atom   68 type  4   force =     3.04111889   -3.38668167   -3.25982702
     atom   69 type  4   force =    -3.04111889    3.38668167   -3.25982702
     atom   70 type  4   force =     3.38668167    3.04111889   -3.25982702
     The local contribution  to forces
     atom    1 type  2   force =     1.60660804    0.04832435    0.80483767
     atom    2 type  2   force =    -1.60660804   -0.04832435    0.80483767
     atom    3 type  2   force =    -0.04826353    1.60656837    0.80471535
     atom    4 type  2   force =    -0.04832435    1.60660804    0.80483767
     atom    5 type  2   force =     0.04832435   -1.60660804    0.80483767
     atom    6 type  2   force =    -1.60656837   -0.04826353    0.80471535
     atom    7 type  2   force =     1.60656837    0.04826353    0.80471535
     atom    8 type  2   force =     0.04826353   -1.60656837    0.80471535
     atom    9 type  5   force =    -0.00000000   -0.00000000    5.60646052
     atom   10 type  5   force =    -0.00000000   -0.00000000   -6.75467905
     atom   11 type  5   force =    -0.00000000    0.00000000    5.60662051
     atom   12 type  5   force =    -0.00000000    0.00000000   -6.75483378
     atom   13 type  1   force =     3.12395522    2.29247566    2.44266749
     atom   14 type  1   force =     0.34445835   -0.61001259    1.22803711
     atom   15 type  1   force =     2.29248496   -3.12395863    2.44268684
     atom   16 type  1   force =    -2.29248496    3.12395863    2.44268684
     atom   17 type  1   force =    -0.30076047    0.92504833   -0.48145863
     atom   18 type  1   force =     0.30076047   -0.92504833   -0.48145863
     atom   19 type  1   force =     0.92504833    0.30076047   -0.48145863
     atom   20 type  1   force =    -0.92504833   -0.30076047   -0.48145863
     atom   21 type  1   force =     3.21238148    1.52004973   -2.33109128
     atom   22 type  1   force =    -1.52004973    3.21238148   -2.33109128
     atom   23 type  1   force =     0.61001259    0.34445835    1.22803711
     atom   24 type  1   force =    -0.61000344   -0.34445624    1.22804637
     atom   25 type  1   force =     0.61000344    0.34445624    1.22804637
     atom   26 type  1   force =     1.52005125   -3.21234761   -2.33108475
     atom   27 type  1   force =    -1.52005125    3.21234761   -2.33108475
     atom   28 type  1   force =     3.21234761    1.52005125   -2.33108475
     atom   29 type  1   force =    -3.21234761   -1.52005125   -2.33108475
     atom   30 type  1   force =    -0.92504170   -0.30075370   -0.48145044
     atom   31 type  1   force =    -0.30075370    0.92504170   -0.48145044
     atom   32 type  1   force =    -2.29247566    3.12395522    2.44266749
     atom   33 type  1   force =     0.34445624   -0.61000344    1.22804637
     atom   34 type  1   force =    -0.34445624    0.61000344    1.22804637
     atom   35 type  1   force =     3.12395863    2.29248496    2.44268684
     atom   36 type  1   force =    -3.12395863   -2.29248496    2.44268684
     atom   37 type  1   force =     2.29247566   -3.12395522    2.44266749
     atom   38 type  1   force =     0.30075370   -0.92504170   -0.48145044
     atom   39 type  1   force =     0.92504170    0.30075370   -0.48145044
     atom   40 type  1   force =    -0.61001259   -0.34445835    1.22803711
     atom   41 type  1   force =     1.52004973   -3.21238148   -2.33109128
     atom   42 type  1   force =    -3.21238148   -1.52004973   -2.33109128
     atom   43 type  1   force =    -0.34445835    0.61001259    1.22803711
     atom   44 type  1   force =    -3.12395522   -2.29247566    2.44266749
     atom   45 type  3   force =     2.48924458   -3.96685879   -1.02934932
     atom   46 type  3   force =    -3.96680720   -2.48924980   -1.02925169
     atom   47 type  3   force =     3.96680720    2.48924980   -1.02925169
     atom   48 type  3   force =    -0.35684351   -0.48940528   -2.86154143
     atom   49 type  3   force =     0.35684351    0.48940528   -2.86154143
     atom   50 type  3   force =     0.48947220   -0.35688081   -2.86164322
     atom   51 type  3   force =     0.48940528   -0.35684351   -2.86154143
     atom   52 type  3   force =    -0.48940528    0.35684351   -2.86154143
     atom   53 type  3   force =     0.35688081    0.48947220   -2.86164322
     atom   54 type  3   force =     3.96685879    2.48924458   -1.02934932
     atom   55 type  3   force =    -2.48924980    3.96680720   -1.02925169
     atom   56 type  3   force =     2.48924980   -3.96680720   -1.02925169
     atom   57 type  3   force =    -3.96685879   -2.48924458   -1.02934932
     atom   58 type  3   force =    -0.35688081   -0.48947220   -2.86164322
     atom   59 type  3   force =    -0.48947220    0.35688081   -2.86164322
     atom   60 type  3   force =    -2.48924458    3.96685879   -1.02934932
     atom   61 type  6   force =    -0.00000000   -0.00000000   -0.32272188
     atom   62 type  6   force =     0.00000000    0.00000000   -0.32293110
     atom   63 type  4   force =     2.92188296   -3.31920928    3.08630167
     atom   64 type  4   force =    -2.92188296    3.31920928    3.08630167
     atom   65 type  4   force =     3.31936795    2.92182161    3.08618133
     atom   66 type  4   force =     3.31920928    2.92188296    3.08630167
     atom   67 type  4   force =    -3.31920928   -2.92188296    3.08630167
     atom   68 type  4   force =    -2.92182161    3.31936795    3.08618133
     atom   69 type  4   force =     2.92182161   -3.31936795    3.08618133
     atom   70 type  4   force =    -3.31936795   -2.92182161    3.08618133
     The core correction contribution to forces
     atom    1 type  2   force =    -0.00096696    0.00240430   -0.00479931
     atom    2 type  2   force =     0.00096696   -0.00240430   -0.00479931
     atom    3 type  2   force =    -0.00240345   -0.00096666   -0.00480039
     atom    4 type  2   force =    -0.00240430   -0.00096696   -0.00479931
     atom    5 type  2   force =     0.00240430    0.00096696   -0.00479931
     atom    6 type  2   force =     0.00096666   -0.00240345   -0.00480039
     atom    7 type  2   force =    -0.00096666    0.00240345   -0.00480039
     atom    8 type  2   force =     0.00240345    0.00096666   -0.00480039
     atom    9 type  5   force =     0.00000000    0.00000000   -0.00937179
     atom   10 type  5   force =     0.00000000    0.00000000    0.00108609
     atom   11 type  5   force =    -0.00000000   -0.00000000   -0.00937081
     atom   12 type  5   force =    -0.00000000   -0.00000000    0.00108362
     atom   13 type  1   force =     0.00000000    0.00000000    0.00000000
     atom   14 type  1   force =     0.00000000    0.00000000    0.00000000
     atom   15 type  1   force =     0.00000000    0.00000000    0.00000000
     atom   16 type  1   force =     0.00000000    0.00000000    0.00000000
     atom   17 type  1   force =     0.00000000    0.00000000    0.00000000
     atom   18 type  1   force =     0.00000000    0.00000000    0.00000000
     atom   19 type  1   force =     0.00000000    0.00000000    0.00000000
     atom   20 type  1   force =     0.00000000    0.00000000    0.00000000
     atom   21 type  1   force =     0.00000000    0.00000000    0.00000000
     atom   22 type  1   force =     0.00000000    0.00000000    0.00000000
     atom   23 type  1   force =     0.00000000    0.00000000    0.00000000
     atom   24 type  1   force =     0.00000000    0.00000000    0.00000000
     atom   25 type  1   force =     0.00000000    0.00000000    0.00000000
     atom   26 type  1   force =     0.00000000    0.00000000    0.00000000
     atom   27 type  1   force =     0.00000000    0.00000000    0.00000000
     atom   28 type  1   force =     0.00000000    0.00000000    0.00000000
     atom   29 type  1   force =     0.00000000    0.00000000    0.00000000
     atom   30 type  1   force =     0.00000000    0.00000000    0.00000000
     atom   31 type  1   force =     0.00000000    0.00000000    0.00000000
     atom   32 type  1   force =     0.00000000    0.00000000    0.00000000
     atom   33 type  1   force =     0.00000000    0.00000000    0.00000000
     atom   34 type  1   force =     0.00000000    0.00000000    0.00000000
     atom   35 type  1   force =     0.00000000    0.00000000    0.00000000
     atom   36 type  1   force =     0.00000000    0.00000000    0.00000000
     atom   37 type  1   force =     0.00000000    0.00000000    0.00000000
     atom   38 type  1   force =     0.00000000    0.00000000    0.00000000
     atom   39 type  1   force =     0.00000000    0.00000000    0.00000000
     atom   40 type  1   force =     0.00000000    0.00000000    0.00000000
     atom   41 type  1   force =     0.00000000    0.00000000    0.00000000
     atom   42 type  1   force =     0.00000000    0.00000000    0.00000000
[...]
     atom    4 type  2   force =     0.00000000    0.00000000    0.00000000
     atom    5 type  2   force =     0.00000000    0.00000000    0.00000000
     atom    6 type  2   force =     0.00000000    0.00000000    0.00000000
     atom    7 type  2   force =     0.00000000    0.00000000    0.00000000
     atom    8 type  2   force =     0.00000000    0.00000000    0.00000000
     atom    9 type  5   force =     0.00000000    0.00000000    0.00000000
     atom   10 type  5   force =     0.00000000    0.00000000    0.00000000
     atom   11 type  5   force =     0.00000000    0.00000000    0.00000000
     atom   12 type  5   force =     0.00000000    0.00000000    0.00000000
     atom   13 type  1   force =     0.00000000    0.00000000    0.00000000
     atom   14 type  1   force =     0.00000000    0.00000000    0.00000000
     atom   15 type  1   force =     0.00000000    0.00000000    0.00000000
     atom   16 type  1   force =     0.00000000    0.00000000    0.00000000
     atom   17 type  1   force =     0.00000000    0.00000000    0.00000000
     atom   18 type  1   force =     0.00000000    0.00000000    0.00000000
     atom   19 type  1   force =     0.00000000    0.00000000    0.00000000
     atom   20 type  1   force =     0.00000000    0.00000000    0.00000000
     atom   21 type  1   force =     0.00000000    0.00000000    0.00000000
     atom   22 type  1   force =     0.00000000    0.00000000    0.00000000
     atom   23 type  1   force =     0.00000000    0.00000000    0.00000000
     atom   24 type  1   force =     0.00000000    0.00000000    0.00000000
     atom   25 type  1   force =     0.00000000    0.00000000    0.00000000
     atom   26 type  1   force =     0.00000000    0.00000000    0.00000000
     atom   27 type  1   force =     0.00000000    0.00000000    0.00000000
     atom   28 type  1   force =     0.00000000    0.00000000    0.00000000
     atom   29 type  1   force =     0.00000000    0.00000000    0.00000000
     atom   30 type  1   force =     0.00000000    0.00000000    0.00000000
     atom   31 type  1   force =     0.00000000    0.00000000    0.00000000
     atom   32 type  1   force =     0.00000000    0.00000000    0.00000000
     atom   33 type  1   force =     0.00000000    0.00000000    0.00000000
     atom   34 type  1   force =     0.00000000    0.00000000    0.00000000
     atom   35 type  1   force =     0.00000000    0.00000000    0.00000000
     atom   36 type  1   force =     0.00000000    0.00000000    0.00000000
     atom   37 type  1   force =     0.00000000    0.00000000    0.00000000
     atom   38 type  1   force =     0.00000000    0.00000000    0.00000000
     atom   39 type  1   force =     0.00000000    0.00000000    0.00000000
     atom   40 type  1   force =     0.00000000    0.00000000    0.00000000
     atom   41 type  1   force =     0.00000000    0.00000000    0.00000000
     atom   42 type  1   force =     0.00000000    0.00000000    0.00000000
     atom   43 type  1   force =     0.00000000    0.00000000    0.00000000
     atom   44 type  1   force =     0.00000000    0.00000000    0.00000000
     atom   45 type  3   force =     0.00000000    0.00000000    0.00000000
     atom   46 type  3   force =     0.00000000    0.00000000    0.00000000
     atom   47 type  3   force =     0.00000000    0.00000000    0.00000000
     atom   48 type  3   force =     0.00000000    0.00000000    0.00000000
     atom   49 type  3   force =     0.00000000    0.00000000    0.00000000
     atom   50 type  3   force =     0.00000000    0.00000000    0.00000000
     atom   51 type  3   force =     0.00000000    0.00000000    0.00000000
     atom   52 type  3   force =     0.00000000    0.00000000    0.00000000
     atom   53 type  3   force =     0.00000000    0.00000000    0.00000000
     atom   54 type  3   force =     0.00000000    0.00000000    0.00000000
     atom   55 type  3   force =     0.00000000    0.00000000    0.00000000
     atom   56 type  3   force =     0.00000000    0.00000000    0.00000000
     atom   57 type  3   force =     0.00000000    0.00000000    0.00000000
     atom   58 type  3   force =     0.00000000    0.00000000    0.00000000
     atom   59 type  3   force =     0.00000000    0.00000000    0.00000000
     atom   60 type  3   force =     0.00000000    0.00000000    0.00000000
     atom   61 type  6   force =     0.00000000    0.00000000    0.00000000
     atom   62 type  6   force =     0.00000000    0.00000000    0.00000000
     atom   63 type  4   force =     0.00000000    0.00000000    0.00000000
     atom   64 type  4   force =     0.00000000    0.00000000    0.00000000
     atom   65 type  4   force =     0.00000000    0.00000000    0.00000000
     atom   66 type  4   force =     0.00000000    0.00000000    0.00000000
     atom   67 type  4   force =     0.00000000    0.00000000    0.00000000
     atom   68 type  4   force =     0.00000000    0.00000000    0.00000000
     atom   69 type  4   force =     0.00000000    0.00000000    0.00000000
     atom   70 type  4   force =     0.00000000    0.00000000    0.00000000
     The SCF correction term to forces
     atom    1 type  2   force =     0.00000464    0.00000005    0.00001224
     atom    2 type  2   force =    -0.00000464   -0.00000005    0.00001224
     atom    3 type  2   force =    -0.00000296   -0.00000085   -0.00000991
     atom    4 type  2   force =    -0.00000005    0.00000464    0.00001224
     atom    5 type  2   force =     0.00000005   -0.00000464    0.00001224
     atom    6 type  2   force =     0.00000085   -0.00000296   -0.00000991
     atom    7 type  2   force =    -0.00000085    0.00000296   -0.00000991
     atom    8 type  2   force =     0.00000296    0.00000085   -0.00000991
     atom    9 type  5   force =    -0.00000000   -0.00000000   -0.00003805
     atom   10 type  5   force =     0.00000000    0.00000000    0.00002820
     atom   11 type  5   force =    -0.00000000   -0.00000000    0.00000537
     atom   12 type  5   force =    -0.00000000    0.00000000    0.00001294
     atom   13 type  1   force =     0.00000044    0.00000076    0.00000042
     atom   14 type  1   force =     0.00000024   -0.00000004   -0.00000255
     atom   15 type  1   force =     0.00000026    0.00000034   -0.00000013
     atom   16 type  1   force =    -0.00000026   -0.00000034   -0.00000013
     atom   17 type  1   force =    -0.00000004    0.00000009   -0.00000129
     atom   18 type  1   force =     0.00000004   -0.00000009   -0.00000129
     atom   19 type  1   force =     0.00000009    0.00000004   -0.00000129
     atom   20 type  1   force =    -0.00000009   -0.00000004   -0.00000129
     atom   21 type  1   force =     0.00000213   -0.00000145    0.00000163
     atom   22 type  1   force =     0.00000145    0.00000213    0.00000163
     atom   23 type  1   force =     0.00000004    0.00000024   -0.00000255
     atom   24 type  1   force =     0.00000216    0.00000023    0.00000181
     atom   25 type  1   force =    -0.00000216   -0.00000023    0.00000181
     atom   26 type  1   force =     0.00000086    0.00000143   -0.00000015
     atom   27 type  1   force =    -0.00000086   -0.00000143   -0.00000015
     atom   28 type  1   force =    -0.00000143    0.00000086   -0.00000015
     atom   29 type  1   force =     0.00000143   -0.00000086   -0.00000015
     atom   30 type  1   force =    -0.00000126   -0.00000076   -0.00000038
     atom   31 type  1   force =    -0.00000076    0.00000126   -0.00000038
     atom   32 type  1   force =    -0.00000076    0.00000044    0.00000042
     atom   33 type  1   force =    -0.00000023    0.00000216    0.00000181
     atom   34 type  1   force =     0.00000023   -0.00000216    0.00000181
     atom   35 type  1   force =    -0.00000034    0.00000026   -0.00000013
     atom   36 type  1   force =     0.00000034   -0.00000026   -0.00000013
     atom   37 type  1   force =     0.00000076   -0.00000044    0.00000042
     atom   38 type  1   force =     0.00000076   -0.00000126   -0.00000038
     atom   39 type  1   force =     0.00000126    0.00000076   -0.00000038
     atom   40 type  1   force =    -0.00000004   -0.00000024   -0.00000255
     atom   41 type  1   force =    -0.00000145   -0.00000213    0.00000163
     atom   42 type  1   force =    -0.00000213    0.00000145    0.00000163
     atom   43 type  1   force =    -0.00000024    0.00000004   -0.00000255
     atom   44 type  1   force =    -0.00000044   -0.00000076    0.00000042
     atom   45 type  3   force =    -0.00000260    0.00000057   -0.00000949
     atom   46 type  3   force =     0.00000655   -0.00000259    0.00000996
     atom   47 type  3   force =    -0.00000655    0.00000259    0.00000996
     atom   48 type  3   force =     0.00000671    0.00000368    0.00001268
     atom   49 type  3   force =    -0.00000671   -0.00000368    0.00001268
     atom   50 type  3   force =    -0.00000094    0.00000127   -0.00000562
     atom   51 type  3   force =    -0.00000368    0.00000671    0.00001268
     atom   52 type  3   force =     0.00000368   -0.00000671    0.00001268
     atom   53 type  3   force =    -0.00000127   -0.00000094   -0.00000562
     atom   54 type  3   force =    -0.00000057   -0.00000260   -0.00000949
     atom   55 type  3   force =    -0.00000259   -0.00000655    0.00000996
     atom   56 type  3   force =     0.00000259    0.00000655    0.00000996
     atom   57 type  3   force =     0.00000057    0.00000260   -0.00000949
     atom   58 type  3   force =     0.00000127    0.00000094   -0.00000562
     atom   59 type  3   force =     0.00000094   -0.00000127   -0.00000562
     atom   60 type  3   force =     0.00000260   -0.00000057   -0.00000949
     atom   61 type  6   force =     0.00000000    0.00000000    0.00002938
     atom   62 type  6   force =     0.00000000   -0.00000000   -0.00002553
     atom   63 type  4   force =     0.00000147    0.00001507    0.00000712
     atom   64 type  4   force =    -0.00000147   -0.00001507    0.00000712
     atom   65 type  4   force =     0.00000669   -0.00000049   -0.00000827
     atom   66 type  4   force =    -0.00001507    0.00000147    0.00000712
     atom   67 type  4   force =     0.00001507   -0.00000147    0.00000712
     atom   68 type  4   force =     0.00000049    0.00000669   -0.00000827
     atom   69 type  4   force =    -0.00000049   -0.00000669   -0.00000827
     atom   70 type  4   force =    -0.00000669    0.00000049   -0.00000827

     Total force =     0.070528     Total SCF correction =     0.000094


     entering subroutine stress ...

          total   stress  (Ry/bohr**3)                   (kbar)     P=   11.11
   0.00001930   0.00000000   0.00000000          2.84      0.00      0.00
   0.00000000   0.00001930   0.00000000          0.00      2.84      0.00
   0.00000000   0.00000000   0.00018807          0.00      0.00     27.67

     kinetic stress (kbar)   7573.05      0.00      0.00
                                0.00   7573.05      0.00
                                0.00      0.00   7703.65

     local   stress (kbar)  -8335.89      0.00     -0.00
                                0.00  -8335.89      0.00
                               -0.00      0.00  -7073.36

     nonloc. stress (kbar)   3262.41      0.00      0.00
                                0.00   3262.41      0.00
                                0.00      0.00   3260.78

     hartree stress (kbar)   3511.46      0.00      0.00
                                0.00   3511.46     -0.00
                                0.00     -0.00   3132.24

     exc-cor stress (kbar)    626.79     -0.00      0.00
                               -0.00    626.79     -0.00
                                0.00     -0.00    625.25

     corecor stress (kbar)  -2742.62      0.00     -0.00
                                0.00  -2742.62      0.00
                               -0.00      0.00  -2759.10

     ewald   stress (kbar)  -3892.37      0.00      0.00
                                0.00  -3892.37     -0.00
                                0.00     -0.00  -4861.79

     hubbard stress (kbar)      0.00      0.00      0.00
                                0.00      0.00      0.00
                                0.00      0.00      0.00

     london  stress (kbar)      0.00      0.00      0.00
                                0.00      0.00      0.00
                                0.00      0.00      0.00

     XDM     stress (kbar)      0.00      0.00      0.00
                                0.00      0.00      0.00
                                0.00      0.00      0.00

     dft-nl  stress (kbar)      0.00      0.00      0.00
                                0.00      0.00      0.00
                                0.00      0.00      0.00

     TS-vdW  stress (kbar)      0.00      0.00      0.00
                                0.00      0.00      0.00
                                0.00      0.00      0.00



     number of scf cycles    =  50
     number of bfgs steps    =  49

     energy   old            =   -1856.9205729622 Ry
     energy   new            =   -1856.9290397512 Ry

     CASE: energy  _new < energy  _old

     new trust radius        =       0.1469164999 bohr
     new conv_thr            =       0.0000000130 Ry


ATOMIC_POSITIONS (crystal)
C        0.158684441   0.308074507   0.079731168
C       -0.158684441  -0.308074507   0.079731168
C        0.191973530   0.658846121   0.579680591
C       -0.308074507   0.158684441   0.079731168
C        0.308074507  -0.158684441   0.079731168
C        0.341153879   0.191973530   0.579680591
C        0.658846121   0.808026470   0.579680591
C        0.808026470   0.341153879   0.579680591
Cl       0.000000000   0.000000000  -0.313496686
Cl       0.000000000   0.000000000   0.302984951
Cl       0.500000000   0.500000000   0.186779508
Cl       0.500000000   0.500000000   0.802788681
H        0.025188927   0.662857759   0.440860127
H        0.021632694   0.791501249   0.581924737
H        0.162940096   0.474930642  -0.059332757
H       -0.162940096  -0.474930642  -0.059332757
H       -0.205456329   0.211810519  -0.235222541
H        0.205456329  -0.211810519  -0.235222541
H        0.211810519   0.205456329  -0.235222541
H       -0.211810519  -0.205456329  -0.235222541
H        0.158819603   0.833955151   0.239230870
H        0.166044849   0.158819603   0.239230870
H        0.208498751   0.021632694   0.581924737
H        0.291481575   0.478152012   0.081875110
H       -0.291481575  -0.478152012   0.081875110
H        0.334088719   0.341157032  -0.260989661
H       -0.334088719  -0.341157032  -0.260989661
H       -0.341157032   0.334088719  -0.260989661
H        0.341157032  -0.334088719  -0.260989661
H        0.288070661   0.294441483   0.264963596
H        0.294441483   0.711929339   0.264963596
H        0.337142241   0.025188927   0.440860127
H       -0.478152012   0.291481575   0.081875110
H        0.478152012  -0.291481575   0.081875110
H       -0.474930642   0.162940096  -0.059332757
H        0.474930642  -0.162940096  -0.059332757
H        0.662857759   0.974811073   0.440860127
H        0.705558517   0.288070661   0.264963596
H        0.711929339   0.705558517   0.264963596
H        0.791501249   0.978367306   0.581924737
H        0.833955151   0.841180397   0.239230870
H        0.841180397   0.166044849   0.239230870
H        0.978367306   0.208498751   0.581924737
H        0.974811073   0.337142241   0.440860127
N        0.063510440   0.700088473   0.538739045
N        0.200084106   0.436629859   0.038652800
N       -0.200084106  -0.436629859   0.038652800
N        0.212573116   0.248330923   0.200844955
N       -0.212573116  -0.248330923   0.200844955
N        0.251571898   0.712444979   0.700922057
N       -0.248330923   0.212573116   0.200844955
N        0.248330923  -0.212573116   0.200844955
N        0.287555021   0.251571898   0.700922057
N        0.299911527   0.063510440   0.538739045
N        0.436629859  -0.200084106   0.038652800
N       -0.436629859   0.200084106   0.038652800
N        0.700088473   0.936489560   0.538739045
N        0.712444979   0.748428102   0.700922057
N        0.748428102   0.287555021   0.700922057
N        0.936489560   0.299911527   0.538739045
Ni       0.000000000   0.000000000   0.025708681
Ni       0.500000000   0.500000000   0.525765519
S        0.030564669   0.227305403  -0.024823611
S       -0.030564669  -0.227305403  -0.024823611
S        0.272683284   0.530551279   0.475210850
S       -0.227305403   0.030564669  -0.024823611
S        0.227305403  -0.030564669  -0.024823611
S        0.469448721   0.272683284   0.475210850
S        0.530551279   0.727316716   0.475210850
S        0.727316716   0.469448721   0.475210850



     Writing output data file ec70.n8.save
     NEW-OLD atomic charge density approx. for the potential

     Writing output data file ec70.n8.save

     init_run     :    172.78s CPU    156.57s WALL (       1 calls)
     electrons    : 200427.61s CPU 161615.30s WALL (      50 calls)
     update_pot   :   3272.90s CPU   3465.15s WALL (      50 calls)
     forces       :   5602.72s CPU   4816.53s WALL (      50 calls)
     stress       :  15141.31s CPU  15085.31s WALL (      50 calls)

     Called by init_run:
     wfcinit      :     97.38s CPU     73.65s WALL (       1 calls)
     potinit      :     23.73s CPU     25.15s WALL (       1 calls)

     Called by electrons:
     c_bands      : 166235.80s CPU 125714.46s WALL (     724 calls)
     sum_band     :  26996.96s CPU  27183.87s WALL (     724 calls)
     v_of_rho     :   1226.85s CPU   1297.35s WALL (     775 calls)
     v_h          :     91.76s CPU     96.02s WALL (     775 calls)
     v_xc         :   1284.00s CPU   1357.90s WALL (     875 calls)
     newd         :   4962.11s CPU   6059.34s WALL (     775 calls)
     PAW_pot      :   1110.36s CPU   1517.60s WALL (     825 calls)
     mix_rho      :    264.52s CPU    281.98s WALL (     724 calls)

     Called by c_bands:
     init_us_2    :    912.04s CPU    914.77s WALL (   12792 calls)
     cegterg      : 163930.41s CPU 123176.58s WALL (    5792 calls)

     Called by sum_band:
     sum_band:bec :     12.49s CPU     12.77s WALL (    6192 calls)
     addusdens    :   6135.90s CPU   8446.06s WALL (     724 calls)

     Called by *egterg:
     h_psi        :  82907.22s CPU  70017.97s WALL (   25786 calls)
     s_psi        :  17717.11s CPU   9432.33s WALL (   25786 calls)
     g_psi        :    281.70s CPU    282.54s WALL (   19986 calls)
     cdiaghg      :  12539.76s CPU  10737.25s WALL (   25386 calls)
     cegterg:over :  21516.55s CPU  12526.51s WALL (   19986 calls)
     cegterg:upda :  13347.35s CPU   7125.28s WALL (   19986 calls)
     cegterg:last :   8376.28s CPU   4468.99s WALL (    6240 calls)

     Called by h_psi:
     h_psi:vloc   :  43825.37s CPU  48324.86s WALL (   25786 calls)
     h_psi:vnl    :  38660.94s CPU  21269.29s WALL (   25786 calls)
     add_vuspsi   :  17848.18s CPU   9527.26s WALL (   25786 calls)

     General routines
     calbec       :  32016.42s CPU  18291.55s WALL (   33978 calls)
     fft          :   1413.38s CPU   1972.94s WALL (   13498 calls)
     ffts         :     23.94s CPU     28.40s WALL (    1499 calls)
     fftw         :  38361.45s CPU  43739.86s WALL ( 5134626 calls)
     interpolate  :    209.52s CPU    224.47s WALL (    1499 calls)
     davcio       :      0.26s CPU     14.55s WALL (       8 calls)

     Parallel routines
     fft_scatter  :  13070.00s CPU  18612.68s WALL ( 5149623 calls)

     PAW routines
     PAW_pot      :   1110.36s CPU   1517.60s WALL (     825 calls)
     PAW_symme    :      1.78s CPU      2.30s WALL (    1549 calls)

     PWSCF        :     2d   14h41m CPU        2d    3h46m WALL


   This run was terminated on:  18:26:25   5Feb2016            

=------------------------------------------------------------------------------=
   JOB DONE.
=------------------------------------------------------------------------------=
