
     Program PWSCF v.5.3.0 (svn rev. 11974) starts on  1Apr2017 at  9:11:31 

     This program is part of the open-source Quantum ESPRESSO suite
     for quantum simulation of materials; please cite
         "P. Giannozzi et al., J. Phys.:Condens. Matter 21 395502 (2009);
          URL http://www.quantum-espresso.org", 
     in publications or presentations arising from this work. More details at
     http://www.quantum-espresso.org/quote

     Parallel version (MPI), running on    24 processors
     R & G space division:  proc/nbgrp/npool/nimage =      24
     Waiting for input...
     Reading input from standard input
Warning: card    &IONS ignored
Warning: card TRUST_RADIUS_MAX=0.2 ignored
Warning: card / ignored
Warning: card     &CELL ignored
Warning: card CELL_DYNAMICS='BFGS' ignored
Warning: card / ignored

     Current dimensions of program PWSCF are:
     Max number of different atomic species (ntypx) = 10
     Max number of k-points (npk) =  40000
     Max angular momentum in pseudopotentials (lmaxx) =  3
               file C.pbe-n-kjpaw_psl.1.0.0.UPF: wavefunction(s)  2S 2P renormalized
               file Cl.pbe-n-kjpaw_psl.1.0.0.UPF: wavefunction(s)  3S 3P renormalized
               file H.pbe-kjpaw_psl.1.0.0.UPF: wavefunction(s)  1S renormalized

     Subspace diagonalization in iterative solution of the eigenvalue problem:
     a serial algorithm will be used


     Parallelization info
     --------------------
     sticks:   dense  smooth     PW     G-vecs:    dense   smooth      PW
     Min        4736    1894    480              1201224   303822   38826
     Max        4737    1895    481              1201227   303855   38831
     Sum      113681   45461  11537             28829397  7292125  931881


     Program PWSCF v.5.3.0 (svn rev. 11974) starts on  1Apr2017 at  9:14:47 

     This program is part of the open-source Quantum ESPRESSO suite
     for quantum simulation of materials; please cite
         "P. Giannozzi et al., J. Phys.:Condens. Matter 21 395502 (2009);
          URL http://www.quantum-espresso.org", 
     in publications or presentations arising from this work. More details at
     http://www.quantum-espresso.org/quote

     Parallel version (MPI), running on    24 processors
     R & G space division:  proc/nbgrp/npool/nimage =      24
     Waiting for input...
     Reading input from standard input
Warning: card    &IONS ignored
Warning: card TRUST_RADIUS_MAX=0.2 ignored
Warning: card / ignored
Warning: card     &CELL ignored
Warning: card CELL_DYNAMICS='BFGS' ignored
Warning: card / ignored

     Current dimensions of program PWSCF are:
     Max number of different atomic species (ntypx) = 10
     Max number of k-points (npk) =  40000
     Max angular momentum in pseudopotentials (lmaxx) =  3
               file C.pbe-n-kjpaw_psl.1.0.0.UPF: wavefunction(s)  2S 2P renormalized
               file Cl.pbe-n-kjpaw_psl.1.0.0.UPF: wavefunction(s)  3S 3P renormalized
               file H.pbe-kjpaw_psl.1.0.0.UPF: wavefunction(s)  1S renormalized

     Subspace diagonalization in iterative solution of the eigenvalue problem:
     a serial algorithm will be used


     Parallelization info
     --------------------
     sticks:   dense  smooth     PW     G-vecs:    dense   smooth      PW
     Min        2842    1136    295               558282   141198   18661
     Max        2844    1137    296               558285   141243   18664
     Sum       68237   27281   7089             13398795  3389267  447895


     Title: 
     pcl2b-pbe-scf-kp-111-ec-60-default-conv-thr                                


     bravais-lattice index     =            0
     lattice parameter (alat)  =       1.8897  a.u.
     unit-cell volume          =   53986.6653 (a.u.)^3
     number of atoms/cell      =           12
     number of atomic types    =            3
     number of electrons       =        42.00
     number of Kohn-Sham states=           21
     kinetic-energy cutoff     =      60.0000  Ry
     charge density cutoff     =     600.0000  Ry
     convergence threshold     =      1.0E-06
     mixing beta               =       0.7000
     number of iterations used =            8  plain     mixing
     Exchange-correlation      =  SLA  PW   PBX  PBC ( 1  4  3  4 0 0)

     celldm(1)=   1.889726  celldm(2)=   0.000000  celldm(3)=   0.000000
     celldm(4)=   0.000000  celldm(5)=   0.000000  celldm(6)=   0.000000

     crystal axes: (cart. coord. in units of alat)
               a(1) = (  20.000000   0.000000   0.000000 )  
               a(2) = (   0.000000  20.000000   0.000000 )  
               a(3) = (   0.000000   0.000000  20.000000 )  

     reciprocal axes: (cart. coord. in units 2 pi/alat)
               b(1) = (  0.050000  0.000000  0.000000 )  
               b(2) = (  0.000000  0.050000  0.000000 )  
               b(3) = (  0.000000  0.000000  0.050000 )  


     PseudoPot. # 1 for  C read from file:
     /users/majewski/.data/PSEUDOPOTENTIALS/C.pbe-n-kjpaw_psl.1.0.0.UPF
     MD5 check sum: 2ba8448e293caca687844dde9a1b88a8
     Pseudo is Projector augmented-wave + core cor, Zval =  4.0
     Generated using "atomic" code by A. Dal Corso  v.5.3.0 svn rev. 11974
     Shape of augmentation charge: PSQ
     Using radial grid of 1073 points,  4 beta functions with: 
                l(1) =   0
                l(2) =   0
                l(3) =   1
                l(4) =   1
     Q(r) pseudized with 0 coefficients 


     PseudoPot. # 2 for Cl read from file:
     /users/majewski/.data/PSEUDOPOTENTIALS/Cl.pbe-n-kjpaw_psl.1.0.0.UPF
     MD5 check sum: dca63699d6b897c5771335df08a09219
     Pseudo is Projector augmented-wave + core cor, Zval =  7.0
     Generated using "atomic" code by A. Dal Corso  v.5.3.0 svn rev. 11974
     Shape of augmentation charge: PSQ
     Using radial grid of 1157 points,  6 beta functions with: 
                l(1) =   0
                l(2) =   0
                l(3) =   1
                l(4) =   1
                l(5) =   2
                l(6) =   2
     Q(r) pseudized with 0 coefficients 


     PseudoPot. # 3 for  H read from file:
     /users/majewski/.data/PSEUDOPOTENTIALS/H.pbe-kjpaw_psl.1.0.0.UPF
     MD5 check sum: bc0feb48a24907a0b97fa6ee2d589a29
     Pseudo is Projector augmented-wave, Zval =  1.0
     Generated using "atomic" code by A. Dal Corso  v.5.3.0 svn rev. 11974
     Shape of augmentation charge: PSQ
     Using radial grid of  929 points,  2 beta functions with: 
                l(1) =   0
                l(2) =   0
     Q(r) pseudized with 0 coefficients 


     atomic species   valence    mass     pseudopotential
        C              4.00    12.01100      C( 1.00)
        Cl             7.00    35.45270     Cl( 1.00)
        H              1.00     1.00790      H( 1.00)

      2 Sym. Ops., with inversion, found


                                    s                        frac. trans.

      isym =  1     identity                                     

 cryst.   s( 1) = (     1          0          0      )
                  (     0          1          0      )
                  (     0          0          1      )

 cart.    s( 1) = (  1.0000000  0.0000000  0.0000000 )
                  (  0.0000000  1.0000000  0.0000000 )
                  (  0.0000000  0.0000000  1.0000000 )


      isym =  2     inversion                                    

 cryst.   s( 2) = (    -1          0          0      )
                  (     0         -1          0      )
                  (     0          0         -1      )

 cart.    s( 2) = ( -1.0000000  0.0000000  0.0000000 )
                  (  0.0000000 -1.0000000  0.0000000 )
                  (  0.0000000  0.0000000 -1.0000000 )


   Cartesian axes

     site n.     atom                  positions (alat units)
         1           C   tau(   1) = (  10.0059622   9.9824550   8.6203270  )
         2           C   tau(   2) = (  10.0031726  11.2058494   9.2875168  )
         3           C   tau(   3) = (   9.9972356  11.2238318  10.6811884  )
         4           C   tau(   4) = (   9.9940378  10.0175450  11.3796730  )
         5           C   tau(   5) = (   9.9968274   8.7941506  10.7124832  )
         6           C   tau(   6) = (  10.0027644   8.7761682   9.3188116  )
         7           H   tau(   7) = (  10.0106166  12.1412608   8.7310028  )
         8           H   tau(   8) = (  10.0007890  12.1745728  11.2111170  )
         9           H   tau(   9) = (   9.9893834   7.8587392  11.2689972  )
        10           H   tau(  10) = (   9.9992110   7.8254274   8.7888830  )
        11           Cl  tau(  11) = (  10.0130702   9.9595328   6.8754462  )
        12           Cl  tau(  12) = (   9.9869298  10.0404672  13.1245538  )

   Crystallographic axes

     site n.     atom                  positions (cryst. coord.)
         1           C   tau(   1) = (  0.5002981  0.4991228  0.4310163  )
         2           C   tau(   2) = (  0.5001586  0.5602925  0.4643758  )
         3           C   tau(   3) = (  0.4998618  0.5611916  0.5340594  )
         4           C   tau(   4) = (  0.4997019  0.5008773  0.5689836  )
         5           C   tau(   5) = (  0.4998414  0.4397075  0.5356242  )
         6           C   tau(   6) = (  0.5001382  0.4388084  0.4659406  )
         7           H   tau(   7) = (  0.5005308  0.6070630  0.4365501  )
         8           H   tau(   8) = (  0.5000395  0.6087286  0.5605558  )
         9           H   tau(   9) = (  0.4994692  0.3929370  0.5634499  )
        10           H   tau(  10) = (  0.4999606  0.3912714  0.4394442  )
        11           Cl  tau(  11) = (  0.5006535  0.4979766  0.3437723  )
        12           Cl  tau(  12) = (  0.4993465  0.5020234  0.6562277  )

     number of k points=     1
                       cart. coord. in units 2pi/alat
        k(    1) = (  -0.0250000  -0.0250000  -0.0250000), wk =   2.0000000

                       cryst. coord.
        k(    1) = (  -0.5000000  -0.5000000  -0.5000000), wk =   2.0000000

     Dense  grid: 13398795 G-vectors     FFT dimensions: ( 300, 300, 300)

     Smooth grid:  3389267 G-vectors     FFT dimensions: ( 192, 192, 192)

     Largest allocated arrays     est. size (Mb)     dimensions
        Kohn-Sham Wavefunctions         5.65 Mb     (   17644,   21)
        NL pseudopotentials            24.77 Mb     (   17644,   92)
        Each V/rho on FFT grid         17.85 Mb     ( 1170000)
        Each G-vector array             4.26 Mb     (  558283)
        G-vector shells                 0.14 Mb     (   17873)
     Largest temporary arrays     est. size (Mb)     dimensions
        Auxiliary wavefunctions        22.61 Mb     (   17644,   84)
        Each subspace H/S matrix        0.11 Mb     (      84,   84)
        Each <psi_i|beta_j> matrix      0.03 Mb     (      92,   21)
        Arrays for rho mixing         142.82 Mb     ( 1170000,    8)

     Initial potential from superposition of free atoms
     Check: negative starting charge=   -0.000252

     starting charge   41.99969, renormalised to   42.00000

     negative rho (up, down):  2.519E-04 0.000E+00
