
     Program PWSCF v.5.3.0 (svn rev. 11974) starts on 26May2016 at  7: 1:48 

     This program is part of the open-source Quantum ESPRESSO suite
     for quantum simulation of materials; please cite
         "P. Giannozzi et al., J. Phys.:Condens. Matter 21 395502 (2009);
          URL http://www.quantum-espresso.org", 
     in publications or presentations arising from this work. More details at
     http://www.quantum-espresso.org/quote

     Parallel version (MPI), running on     8 processors
     R & G space division:  proc/nbgrp/npool/nimage =       8
     Waiting for input...
     Reading input from standard input
Warning: card    &IONS ignored
Warning: card TRUST_RADIUS_MAX=0.2 ignored
Warning: card / ignored
Warning: card     &CELL ignored
Warning: card CELL_DYNAMICS='BFGS' ignored
Warning: card / ignored

     Current dimensions of program PWSCF are:
     Max number of different atomic species (ntypx) = 10
     Max number of k-points (npk) =  40000
     Max angular momentum in pseudopotentials (lmaxx) =  3
               file N.pbe-n-kjpaw_psl.1.0.0.UPF: wavefunction(s)  2S renormalized
               file C.pbe-n-kjpaw_psl.1.0.0.UPF: wavefunction(s)  2S 2P renormalized
               file H.pbe-kjpaw_psl.1.0.0.UPF: wavefunction(s)  1S renormalized
               file O.pbe-n-kjpaw_psl.1.0.0.UPF: wavefunction(s)  2S 2P renormalized

     Subspace diagonalization in iterative solution of the eigenvalue problem:
     a serial algorithm will be used


     Parallelization info
     --------------------
     sticks:   dense  smooth     PW     G-vecs:    dense   smooth      PW
     Min        3517    1407    370               377551    95473   12902
     Max        3518    1408    371               377553    95532   12903
     Sum       28137   11259   2961              3020421   763919  103221


     Title: 
     HMX-scf--kp-444-ec-140-default-conv-thr                                    


     bravais-lattice index     =            0
     lattice parameter (alat)  =       1.8897  a.u.
     unit-cell volume          =    3414.4567 (a.u.)^3
     number of atoms/cell      =           56
     number of atomic types    =            4
     number of electrons       =       224.00
     number of Kohn-Sham states=          112
     kinetic-energy cutoff     =     140.0000  Ry
     charge density cutoff     =    1400.0000  Ry
     convergence threshold     =      1.0E-06
     mixing beta               =       0.7000
     number of iterations used =            8  plain     mixing
     Exchange-correlation      =  SLA  PW   PBX  PBC ( 1  4  3  4 0 0)

     celldm(1)=   1.889726  celldm(2)=   0.000000  celldm(3)=   0.000000
     celldm(4)=   0.000000  celldm(5)=   0.000000  celldm(6)=   0.000000

     crystal axes: (cart. coord. in units of alat)
               a(1) = (   6.525000   0.000000   0.000000 )  
               a(2) = (   0.000000  10.840000   0.000000 )  
               a(3) = (  -1.555911   0.000000   7.153446 )  

     reciprocal axes: (cart. coord. in units 2 pi/alat)
               b(1) = (  0.153257 -0.000000  0.033334 )  
               b(2) = (  0.000000  0.092251 -0.000000 )  
               b(3) = (  0.000000  0.000000  0.139793 )  


     PseudoPot. # 1 for  N read from file:
     /users/majewski/.data/PSEUDOPOTENTIALS/N.pbe-n-kjpaw_psl.1.0.0.UPF
     MD5 check sum: c21df8f53e59d08c3548513d559cdda6
     Pseudo is Projector augmented-wave + core cor, Zval =  5.0
     Generated using "atomic" code by A. Dal Corso  v.5.3.0 svn rev. 11974
     Shape of augmentation charge: PSQ
     Using radial grid of 1085 points,  4 beta functions with: 
                l(1) =   0
                l(2) =   0
                l(3) =   1
                l(4) =   1
     Q(r) pseudized with 0 coefficients 


     PseudoPot. # 2 for  C read from file:
     /users/majewski/.data/PSEUDOPOTENTIALS/C.pbe-n-kjpaw_psl.1.0.0.UPF
     MD5 check sum: 2ba8448e293caca687844dde9a1b88a8
     Pseudo is Projector augmented-wave + core cor, Zval =  4.0
     Generated using "atomic" code by A. Dal Corso  v.5.3.0 svn rev. 11974
     Shape of augmentation charge: PSQ
     Using radial grid of 1073 points,  4 beta functions with: 
                l(1) =   0
                l(2) =   0
                l(3) =   1
                l(4) =   1
     Q(r) pseudized with 0 coefficients 


     PseudoPot. # 3 for  H read from file:
     /users/majewski/.data/PSEUDOPOTENTIALS/H.pbe-kjpaw_psl.1.0.0.UPF
     MD5 check sum: bc0feb48a24907a0b97fa6ee2d589a29
     Pseudo is Projector augmented-wave, Zval =  1.0
     Generated using "atomic" code by A. Dal Corso  v.5.3.0 svn rev. 11974
     Shape of augmentation charge: PSQ
     Using radial grid of  929 points,  2 beta functions with: 
                l(1) =   0
                l(2) =   0
     Q(r) pseudized with 0 coefficients 


     PseudoPot. # 4 for  O read from file:
     /users/majewski/.data/PSEUDOPOTENTIALS/O.pbe-n-kjpaw_psl.1.0.0.UPF
     MD5 check sum: 9c0ade6c043cf4a781bde3908a3a8206
     Pseudo is Projector augmented-wave + core cor, Zval =  6.0
     Generated using "atomic" code by A. Dal Corso  v.5.3.0 svn rev. 11974
     Shape of augmentation charge: PSQ
     Using radial grid of 1095 points,  4 beta functions with: 
                l(1) =   0
                l(2) =   0
                l(3) =   1
                l(4) =   1
     Q(r) pseudized with 0 coefficients 


     atomic species   valence    mass     pseudopotential
        N              5.00    14.00670      N( 1.00)
        C              4.00    12.01100      C( 1.00)
        H              1.00     1.00790      H( 1.00)
        O              6.00    15.99940      O( 1.00)

      2 Sym. Ops., with inversion, found
          (note:  2 additional sym.ops. were found but ignored
           their fractional translations are incommensurate with FFT grid)

                                    s                        frac. trans.

      isym =  1     identity                                     

 cryst.   s( 1) = (     1          0          0      )
                  (     0          1          0      )
                  (     0          0          1      )

 cart.    s( 1) = (  1.0000000  0.0000000  0.0000000 )
                  (  0.0000000  1.0000000  0.0000000 )
                  (  0.0000000  0.0000000  1.0000000 )


      isym =  2     inversion                                    

 cryst.   s( 2) = (    -1          0          0      )
                  (     0         -1          0      )
                  (     0          0         -1      )

 cart.    s( 2) = ( -1.0000000  0.0000000  0.0000000 )
                  (  0.0000000 -1.0000000  0.0000000 )
                  (  0.0000000  0.0000000 -1.0000000 )


   Cartesian axes

     site n.     atom                  positions (alat units)
         1           N   tau(   1) = (   5.6886823   6.7601492   3.2843616  )
         2           O   tau(   2) = (   7.6345424   7.8128216   3.1053824  )
         3           N   tau(   3) = (   6.6234393   7.6327692   3.7848167  )
         4           N   tau(   4) = (   4.4891047   5.7135472   5.0604192  )
         5           O   tau(   5) = (   3.2863227   4.6538288   6.6112148  )
         6           N   tau(   6) = (   3.3004890   5.4507856   5.6779047  )
         7           O   tau(   7) = (   6.3913497   8.1227372   4.8818692  )
         8           C   tau(   8) = (   4.4127564   6.6880632   3.9477722  )
         9           H   tau(   9) = (   3.7158703   6.4064400   3.3034613  )
        10           H   tau(  10) = (   4.1672919   7.5804120   4.2999364  )
        11           O   tau(  11) = (   2.3241568   6.0900204   5.2677976  )
        12           C   tau(  12) = (   5.9475335   6.1238412   1.9976713  )
        13           H   tau(  13) = (   5.1187040   5.7029240   1.7196884  )
        14           H   tau(  14) = (   6.2049380   6.7630760   1.3155187  )
        15           H   tau(  15) = (   3.7203935  -1.3430760  -2.2612043  )
        16           H   tau(  16) = (   2.6341595  -0.2829240  -1.8570346  )
        17           C   tau(  17) = (   3.4629891  -0.7038412  -1.5790517  )
        18           O   tau(  18) = (  -0.1603876  -0.6700204   1.6910746  )
        19           H   tau(  19) = (   1.6827474  -2.1604120   0.7232134  )
        20           H   tau(  20) = (   1.2313258  -0.9864400  -0.2732616  )
        21           C   tau(  21) = (   1.9282119  -1.2680632   0.3710492  )
        22           O   tau(  22) = (   3.9068053  -2.7027372   1.3051462  )
        23           N   tau(  23) = (   0.8159445  -0.0307856   2.1011817  )
        24           O   tau(  24) = (   0.8017783   0.7661712   3.0344918  )
        25           N   tau(  25) = (   2.0045602  -0.2935472   1.4836962  )
        26           N   tau(  26) = (   4.1388948  -2.2127692   0.2080937  )
        27           O   tau(  27) = (   5.1499980  -2.3928216  -0.4713406  )
        28           N   tau(  28) = (   3.2041378  -1.3401492  -0.2923613  )
        29           H   tau(  29) = (   5.2891510   4.0769240   5.8379273  )
        30           H   tau(  30) = (   6.3753850   5.1370760   5.4337576  )
        31           C   tau(  31) = (   5.5465554   4.7161588   5.1557746  )
        32           O   tau(  32) = (   9.1699321   4.7499796   1.8856484  )
        33           H   tau(  33) = (   7.3267971   3.2595880   2.8535096  )
        34           H   tau(  34) = (   7.7782187   4.4335600   3.8499846  )
        35           C   tau(  35) = (   7.0813326   4.1519368   3.2056737  )
        36           O   tau(  36) = (   5.1027392   2.7172628   2.2715768  )
        37           N   tau(  37) = (   8.1936000   5.3892144   1.4755413  )
        38           O   tau(  38) = (   8.2077662   6.1861712   0.5422312  )
        39           N   tau(  39) = (   7.0049842   5.1264528   2.0930268  )
        40           N   tau(  40) = (   4.8706497   3.2072308   3.3686292  )
        41           O   tau(  41) = (   3.8595465   3.0271784   4.0480635  )
        42           N   tau(  42) = (   5.8054066   4.0798508   3.8690843  )
        43           H   tau(  43) = (   2.8046065   1.3430760   2.2612043  )
        44           H   tau(  44) = (   3.8908405   0.2829240   1.8570346  )
        45           C   tau(  45) = (   3.0620109   0.7038412   1.5790517  )
        46           O   tau(  46) = (   6.6853876   0.6700204  -1.6910746  )
        47           H   tau(  47) = (   4.8422526   2.1604120  -0.7232134  )
        48           H   tau(  48) = (   5.2936742   0.9864400   0.2732616  )
        49           C   tau(  49) = (   4.5967881   1.2680632  -0.3710492  )
        50           O   tau(  50) = (   2.6181947   2.7027372  -1.3051462  )
        51           N   tau(  51) = (   5.7090555   0.0307856  -2.1011817  )
        52           O   tau(  52) = (   5.7232217  -0.7661712  -3.0344918  )
        53           N   tau(  53) = (   4.5204398   0.2935472  -1.4836962  )
        54           N   tau(  54) = (   2.3861052   2.2127692  -0.2080937  )
        55           O   tau(  55) = (   1.3750020   2.3928216   0.4713406  )
        56           N   tau(  56) = (   3.3208622   1.3401492   0.2923613  )

   Crystallographic axes

     site n.     atom                  positions (cryst. coord.)
         1           N   tau(   1) = (  0.9813100  0.6236300  0.4591300  )
         2           O   tau(   2) = (  1.2735600  0.7207400  0.4341100  )
         3           N   tau(   3) = (  1.1412500  0.7041300  0.5290900  )
         4           N   tau(   4) = (  0.8566700  0.5270800  0.7074100  )
         5           O   tau(   5) = (  0.7240300  0.4293200  0.9242000  )
         6           N   tau(   6) = (  0.6950900  0.5028400  0.7937300  )
         7           O   tau(   7) = (  1.1422500  0.7493300  0.6824500  )
         8           C   tau(   8) = (  0.8078800  0.6169800  0.5518700  )
         9           H   tau(   9) = (  0.6796000  0.5910000  0.4618000  )
        10           H   tau(  10) = (  0.7820000  0.6993000  0.6011000  )
        11           O   tau(  11) = (  0.5317900  0.5618100  0.7364000  )
        12           C   tau(  12) = (  0.9780900  0.5649300  0.2792600  )
        13           H   tau(  13) = (  0.8418000  0.5261000  0.2404000  )
        14           H   tau(  14) = (  0.9948000  0.6239000  0.1839000  )
        15           H   tau(  15) = (  0.4948000 -0.1239000 -0.3161000  )
        16           H   tau(  16) = (  0.3418000 -0.0261000 -0.2596000  )
        17           C   tau(  17) = (  0.4780900 -0.0649300 -0.2207400  )
        18           O   tau(  18) = (  0.0317900 -0.0618100  0.2364000  )
        19           H   tau(  19) = (  0.2820000 -0.1993000  0.1011000  )
        20           H   tau(  20) = (  0.1796000 -0.0910000 -0.0382000  )
        21           C   tau(  21) = (  0.3078800 -0.1169800  0.0518700  )
        22           O   tau(  22) = (  0.6422500 -0.2493300  0.1824500  )
        23           N   tau(  23) = (  0.1950900 -0.0028400  0.2937300  )
        24           O   tau(  24) = (  0.2240300  0.0706800  0.4242000  )
        25           N   tau(  25) = (  0.3566700 -0.0270800  0.2074100  )
        26           N   tau(  26) = (  0.6412500 -0.2041300  0.0290900  )
        27           O   tau(  27) = (  0.7735600 -0.2207400 -0.0658900  )
        28           N   tau(  28) = (  0.4813100 -0.1236300 -0.0408700  )
        29           H   tau(  29) = (  1.0052000  0.3761000  0.8161000  )
        30           H   tau(  30) = (  1.1582000  0.4739000  0.7596000  )
        31           C   tau(  31) = (  1.0219100  0.4350700  0.7207400  )
        32           O   tau(  32) = (  1.4682100  0.4381900  0.2636000  )
        33           H   tau(  33) = (  1.2180000  0.3007000  0.3989000  )
        34           H   tau(  34) = (  1.3204000  0.4090000  0.5382000  )
        35           C   tau(  35) = (  1.1921200  0.3830200  0.4481300  )
        36           O   tau(  36) = (  0.8577500  0.2506700  0.3175500  )
        37           N   tau(  37) = (  1.3049100  0.4971600  0.2062700  )
        38           O   tau(  38) = (  1.2759700  0.5706800  0.0758000  )
        39           N   tau(  39) = (  1.1433300  0.4729200  0.2925900  )
        40           N   tau(  40) = (  0.8587500  0.2958700  0.4709100  )
        41           O   tau(  41) = (  0.7264400  0.2792600  0.5658900  )
        42           N   tau(  42) = (  1.0186900  0.3763700  0.5408700  )
        43           H   tau(  43) = (  0.5052000  0.1239000  0.3161000  )
        44           H   tau(  44) = (  0.6582000  0.0261000  0.2596000  )
        45           C   tau(  45) = (  0.5219100  0.0649300  0.2207400  )
        46           O   tau(  46) = (  0.9682100  0.0618100 -0.2364000  )
        47           H   tau(  47) = (  0.7180000  0.1993000 -0.1011000  )
        48           H   tau(  48) = (  0.8204000  0.0910000  0.0382000  )
        49           C   tau(  49) = (  0.6921200  0.1169800 -0.0518700  )
        50           O   tau(  50) = (  0.3577500  0.2493300 -0.1824500  )
        51           N   tau(  51) = (  0.8049100  0.0028400 -0.2937300  )
        52           O   tau(  52) = (  0.7759700 -0.0706800 -0.4242000  )
        53           N   tau(  53) = (  0.6433300  0.0270800 -0.2074100  )
        54           N   tau(  54) = (  0.3587500  0.2041300 -0.0290900  )
        55           O   tau(  55) = (  0.2264400  0.2207400  0.0658900  )
        56           N   tau(  56) = (  0.5186900  0.1236300  0.0408700  )

     number of k points=    32
                       cart. coord. in units 2pi/alat
        k(    1) = (   0.0191571   0.0115314   0.0216409), wk =   0.0625000
        k(    2) = (   0.0191571   0.0115314   0.0565891), wk =   0.0625000
        k(    3) = (   0.0191571   0.0115314  -0.0482555), wk =   0.0625000
        k(    4) = (   0.0191571   0.0115314  -0.0133073), wk =   0.0625000
        k(    5) = (   0.0191571   0.0345941   0.0216409), wk =   0.0625000
        k(    6) = (   0.0191571   0.0345941   0.0565891), wk =   0.0625000
        k(    7) = (   0.0191571   0.0345941  -0.0482555), wk =   0.0625000
        k(    8) = (   0.0191571   0.0345941  -0.0133073), wk =   0.0625000
        k(    9) = (   0.0574713   0.0115314   0.0299744), wk =   0.0625000
        k(   10) = (   0.0574713   0.0115314   0.0649226), wk =   0.0625000
        k(   11) = (   0.0574713   0.0115314  -0.0399220), wk =   0.0625000
        k(   12) = (   0.0574713   0.0115314  -0.0049738), wk =   0.0625000
        k(   13) = (   0.0574713   0.0345941   0.0299744), wk =   0.0625000
        k(   14) = (   0.0574713   0.0345941   0.0649226), wk =   0.0625000
        k(   15) = (   0.0574713   0.0345941  -0.0399220), wk =   0.0625000
        k(   16) = (   0.0574713   0.0345941  -0.0049738), wk =   0.0625000
        k(   17) = (  -0.0191571   0.0115314  -0.0216409), wk =   0.0625000
        k(   18) = (  -0.0191571   0.0115314  -0.0565891), wk =   0.0625000
        k(   19) = (  -0.0191571   0.0115314   0.0482555), wk =   0.0625000
        k(   20) = (  -0.0191571   0.0115314   0.0133073), wk =   0.0625000
        k(   21) = (  -0.0191571   0.0345941  -0.0216409), wk =   0.0625000
        k(   22) = (  -0.0191571   0.0345941  -0.0565891), wk =   0.0625000
        k(   23) = (  -0.0191571   0.0345941   0.0482555), wk =   0.0625000
        k(   24) = (  -0.0191571   0.0345941   0.0133073), wk =   0.0625000
        k(   25) = (  -0.0574713   0.0115314  -0.0299744), wk =   0.0625000
        k(   26) = (  -0.0574713   0.0115314  -0.0649226), wk =   0.0625000
        k(   27) = (  -0.0574713   0.0115314   0.0399220), wk =   0.0625000
        k(   28) = (  -0.0574713   0.0115314   0.0049738), wk =   0.0625000
        k(   29) = (  -0.0574713   0.0345941  -0.0299744), wk =   0.0625000
        k(   30) = (  -0.0574713   0.0345941  -0.0649226), wk =   0.0625000
        k(   31) = (  -0.0574713   0.0345941   0.0399220), wk =   0.0625000
        k(   32) = (  -0.0574713   0.0345941   0.0049738), wk =   0.0625000

                       cryst. coord.
        k(    1) = (   0.1250000   0.1250000   0.1250000), wk =   0.0625000
        k(    2) = (   0.1250000   0.1250000   0.3750000), wk =   0.0625000
        k(    3) = (   0.1250000   0.1250000  -0.3750000), wk =   0.0625000
        k(    4) = (   0.1250000   0.1250000  -0.1250000), wk =   0.0625000
        k(    5) = (   0.1250000   0.3750000   0.1250000), wk =   0.0625000
        k(    6) = (   0.1250000   0.3750000   0.3750000), wk =   0.0625000
        k(    7) = (   0.1250000   0.3750000  -0.3750000), wk =   0.0625000
        k(    8) = (   0.1250000   0.3750000  -0.1250000), wk =   0.0625000
        k(    9) = (   0.3750000   0.1250000   0.1250000), wk =   0.0625000
        k(   10) = (   0.3750000   0.1250000   0.3750000), wk =   0.0625000
        k(   11) = (   0.3750000   0.1250000  -0.3750000), wk =   0.0625000
        k(   12) = (   0.3750000   0.1250000  -0.1250000), wk =   0.0625000
        k(   13) = (   0.3750000   0.3750000   0.1250000), wk =   0.0625000
        k(   14) = (   0.3750000   0.3750000   0.3750000), wk =   0.0625000
        k(   15) = (   0.3750000   0.3750000  -0.3750000), wk =   0.0625000
        k(   16) = (   0.3750000   0.3750000  -0.1250000), wk =   0.0625000
        k(   17) = (  -0.1250000   0.1250000  -0.1250000), wk =   0.0625000
        k(   18) = (  -0.1250000   0.1250000  -0.3750000), wk =   0.0625000
        k(   19) = (  -0.1250000   0.1250000   0.3750000), wk =   0.0625000
        k(   20) = (  -0.1250000   0.1250000   0.1250000), wk =   0.0625000
        k(   21) = (  -0.1250000   0.3750000  -0.1250000), wk =   0.0625000
        k(   22) = (  -0.1250000   0.3750000  -0.3750000), wk =   0.0625000
        k(   23) = (  -0.1250000   0.3750000   0.3750000), wk =   0.0625000
        k(   24) = (  -0.1250000   0.3750000   0.1250000), wk =   0.0625000
        k(   25) = (  -0.3750000   0.1250000  -0.1250000), wk =   0.0625000
        k(   26) = (  -0.3750000   0.1250000  -0.3750000), wk =   0.0625000
        k(   27) = (  -0.3750000   0.1250000   0.3750000), wk =   0.0625000
        k(   28) = (  -0.3750000   0.1250000   0.1250000), wk =   0.0625000
        k(   29) = (  -0.3750000   0.3750000  -0.1250000), wk =   0.0625000
        k(   30) = (  -0.3750000   0.3750000  -0.3750000), wk =   0.0625000
        k(   31) = (  -0.3750000   0.3750000   0.3750000), wk =   0.0625000
        k(   32) = (  -0.3750000   0.3750000   0.1250000), wk =   0.0625000

     Dense  grid:  3020421 G-vectors     FFT dimensions: ( 150, 243, 180)

     Smooth grid:   763919 G-vectors     FFT dimensions: (  96, 160, 108)

     Largest allocated arrays     est. size (Mb)     dimensions
        Kohn-Sham Wavefunctions        20.49 Mb     (   11987,  112)
        NL pseudopotentials            64.38 Mb     (   11987,  352)
        Each V/rho on FFT grid         12.79 Mb     (  838350)
        Each G-vector array             2.88 Mb     (  377553)
        G-vector shells                 2.66 Mb     (  348965)
     Largest temporary arrays     est. size (Mb)     dimensions
        Auxiliary wavefunctions        81.94 Mb     (   11987,  448)
        Each subspace H/S matrix        3.06 Mb     (     448,  448)
        Each <psi_i|beta_j> matrix      0.60 Mb     (     352,  112)
        Arrays for rho mixing         102.34 Mb     (  838350,    8)

     Initial potential from superposition of free atoms

     starting charge  223.99937, renormalised to  224.00000
     Starting wfc are  176 randomized atomic wfcs
     Checking if some PAW data can be deallocated... 
       node    0, deallocated PAW data for type:  2
       node    0, deallocated PAW data for type:  3
       node    1, deallocated PAW data for type:  1
       node    2, deallocated PAW data for type:  1
       node    3, deallocated PAW data for type:  2
       node    3, deallocated PAW data for type:  3
       node    4, deallocated PAW data for type:  1
       node    5, deallocated PAW data for type:  2
       node    5, deallocated PAW data for type:  3
       node    6, deallocated PAW data for type:  1
       node    7, deallocated PAW data for type:  2
       node    7, deallocated PAW data for type:  3

     total cpu time spent up to now is     1074.9 secs

     per-process dynamical memory:   940.0 Mb

     Self-consistent Calculation

     iteration #  1     ecut=   140.00 Ry     beta=0.70
     Davidson diagonalization with overlap
     ethr =  1.00E-02,  avg # of iterations =  3.0

     total cpu time spent up to now is     3882.7 secs

     total energy              =   -1279.68126045 Ry
     Harris-Foulkes estimate   =   -1283.97536848 Ry
     estimated scf accuracy    <       6.61398063 Ry

     iteration #  2     ecut=   140.00 Ry     beta=0.70
     Davidson diagonalization with overlap
     ethr =  2.95E-03,  avg # of iterations =  4.0

     total cpu time spent up to now is     6870.7 secs

     total energy              =   -1280.31688330 Ry
     Harris-Foulkes estimate   =   -1283.86402880 Ry
     estimated scf accuracy    <       7.20425185 Ry

     iteration #  3     ecut=   140.00 Ry     beta=0.70
     Davidson diagonalization with overlap
     ethr =  2.95E-03,  avg # of iterations =  4.5

     total cpu time spent up to now is     9050.8 secs

     total energy              =   -1281.85171040 Ry
     Harris-Foulkes estimate   =   -1282.09454480 Ry
     estimated scf accuracy    <       0.45191188 Ry

     iteration #  4     ecut=   140.00 Ry     beta=0.70
     Davidson diagonalization with overlap
     ethr =  2.02E-04,  avg # of iterations =  4.9

     total cpu time spent up to now is    11867.5 secs

     total energy              =   -1281.99830904 Ry
     Harris-Foulkes estimate   =   -1282.09516903 Ry
     estimated scf accuracy    <       0.21845730 Ry

     iteration #  5     ecut=   140.00 Ry     beta=0.70
     Davidson diagonalization with overlap
     ethr =  9.75E-05,  avg # of iterations =  4.0

     total cpu time spent up to now is    14082.2 secs

     total energy              =   -1282.04193840 Ry
     Harris-Foulkes estimate   =   -1282.05102057 Ry
     estimated scf accuracy    <       0.02211893 Ry

     iteration #  6     ecut=   140.00 Ry     beta=0.70
     Davidson diagonalization with overlap
     ethr =  9.87E-06,  avg # of iterations =  7.1

     total cpu time spent up to now is    16094.1 secs

     total energy              =   -1282.04542048 Ry
     Harris-Foulkes estimate   =   -1282.04705726 Ry
     estimated scf accuracy    <       0.00370060 Ry

     iteration #  7     ecut=   140.00 Ry     beta=0.70
     Davidson diagonalization with overlap
     ethr =  1.65E-06,  avg # of iterations =  4.5

     total cpu time spent up to now is    18833.1 secs

     total energy              =   -1282.04713187 Ry
     Harris-Foulkes estimate   =   -1282.04749794 Ry
     estimated scf accuracy    <       0.00083425 Ry

     iteration #  8     ecut=   140.00 Ry     beta=0.70
     Davidson diagonalization with overlap
     ethr =  3.72E-07,  avg # of iterations =  7.9

     total cpu time spent up to now is    20897.0 secs

     total energy              =   -1282.04729116 Ry
     Harris-Foulkes estimate   =   -1282.04734641 Ry
     estimated scf accuracy    <       0.00013151 Ry

     iteration #  9     ecut=   140.00 Ry     beta=0.70
     Davidson diagonalization with overlap
     ethr =  5.87E-08,  avg # of iterations =  4.6

     total cpu time spent up to now is    23628.0 secs

     total energy              =   -1282.04734443 Ry
     Harris-Foulkes estimate   =   -1282.04735827 Ry
     estimated scf accuracy    <       0.00003866 Ry

     iteration # 10     ecut=   140.00 Ry     beta=0.70
     Davidson diagonalization with overlap
     ethr =  1.73E-08,  avg # of iterations =  1.7

     total cpu time spent up to now is    25249.2 secs

     total energy              =   -1282.04733988 Ry
     Harris-Foulkes estimate   =   -1282.04734639 Ry
     estimated scf accuracy    <       0.00001463 Ry

     iteration # 11     ecut=   140.00 Ry     beta=0.70
     Davidson diagonalization with overlap
     ethr =  6.53E-09,  avg # of iterations =  4.2

     total cpu time spent up to now is    28171.6 secs

     total energy              =   -1282.04735169 Ry
     Harris-Foulkes estimate   =   -1282.04735774 Ry
     estimated scf accuracy    <       0.00003550 Ry

     iteration # 12     ecut=   140.00 Ry     beta=0.70
     Davidson diagonalization with overlap
     ethr =  6.53E-09,  avg # of iterations =  1.0

     total cpu time spent up to now is    29802.2 secs

     total energy              =   -1282.04734397 Ry
     Harris-Foulkes estimate   =   -1282.04735190 Ry
     estimated scf accuracy    <       0.00002567 Ry

     iteration # 13     ecut=   140.00 Ry     beta=0.70
     Davidson diagonalization with overlap
     ethr =  6.53E-09,  avg # of iterations =  4.9

     total cpu time spent up to now is    32151.4 secs

     total energy              =   -1282.04735049 Ry
     Harris-Foulkes estimate   =   -1282.04735178 Ry
     estimated scf accuracy    <       0.00000440 Ry

     iteration # 14     ecut=   140.00 Ry     beta=0.70
     Davidson diagonalization with overlap
     ethr =  1.96E-09,  avg # of iterations =  1.4

     total cpu time spent up to now is    33766.1 secs

     total energy              =   -1282.04734954 Ry
     Harris-Foulkes estimate   =   -1282.04735060 Ry
     estimated scf accuracy    <       0.00000225 Ry

     iteration # 15     ecut=   140.00 Ry     beta=0.70
     Davidson diagonalization with overlap
     ethr =  1.00E-09,  avg # of iterations =  5.0

     total cpu time spent up to now is    36338.4 secs

     total energy              =   -1282.04735045 Ry
     Harris-Foulkes estimate   =   -1282.04735187 Ry
     estimated scf accuracy    <       0.00000474 Ry

     iteration # 16     ecut=   140.00 Ry     beta=0.70
     Davidson diagonalization with overlap
     ethr =  1.00E-09,  avg # of iterations =  6.2

     total cpu time spent up to now is    38369.6 secs

     End of self-consistent calculation

          k = 0.0192 0.0115 0.0216 ( 95531 PWs)   bands (ev):

   -23.7604 -23.7357 -23.7248 -23.7147 -23.4325 -23.4211 -23.4201 -23.4179
   -18.9880 -18.9824 -18.9750 -18.9619 -18.6477 -18.6471 -18.6431 -18.6418
   -18.0830 -18.0537 -17.0512 -16.9950 -16.9106 -16.9067 -15.8951 -15.8819
   -11.9541 -11.9253 -11.9156 -11.8231 -11.7584 -11.6775 -11.6036 -11.5817
    -8.7483  -8.7065  -8.1151  -8.0743  -7.4134  -7.3629  -7.2823  -7.2789
    -6.7192  -6.6093  -6.4703  -6.3663  -6.3430  -6.2708  -6.2156  -6.1199
    -5.9842  -5.9484  -5.9255  -5.7883  -5.7485  -5.6653  -5.5905  -5.5544
    -5.4947  -5.4718  -5.4065  -5.3573  -5.0111  -4.8929  -4.7905  -4.7763
    -4.3047  -4.2924  -4.2625  -4.2149  -4.0655  -3.9590  -3.7293  -3.7188
    -3.5519  -3.4127  -3.3513  -3.3055  -3.0291  -2.9900  -2.8986  -2.8771
    -0.6672  -0.6624  -0.1902  -0.1795  -0.0784  -0.0328   0.0292   0.0528
     0.1132   0.1467   0.2970   0.3359   0.3542   0.3868   0.5104   0.5204
     0.5558   0.5896   0.7564   0.8187   0.9053   0.9518   1.0083   1.0199
     1.0645   1.1620   1.1965   1.2591   1.3294   1.4742   1.4912   1.5158

     occupation numbers 
     1.0000   1.0000   1.0000   1.0000   1.0000   1.0000   1.0000   1.0000
     1.0000   1.0000   1.0000   1.0000   1.0000   1.0000   1.0000   1.0000
     1.0000   1.0000   1.0000   1.0000   1.0000   1.0000   1.0000   1.0000
     1.0000   1.0000   1.0000   1.0000   1.0000   1.0000   1.0000   1.0000
     1.0000   1.0000   1.0000   1.0000   1.0000   1.0000   1.0000   1.0000
     1.0000   1.0000   1.0000   1.0000   1.0000   1.0000   1.0000   1.0000
     1.0000   1.0000   1.0000   1.0000   1.0000   1.0000   1.0000   1.0000
     1.0000   1.0000   1.0000   1.0000   1.0000   1.0000   1.0000   1.0000
     1.0000   1.0000   1.0000   1.0000   1.0000   1.0000   1.0000   1.0000
     1.0000   1.0000   1.0000   1.0000   1.0000   1.0000   1.0000   1.0000
     1.0000   1.0000   1.0000   1.0000   1.0000   1.0000   1.0000   1.0000
     1.0000   1.0000   1.0000   1.0000   1.0000   1.0000   1.0000   1.0000
     1.0000   1.0000   1.0000   1.0000   1.0000   1.0000   1.0000   1.0000
     1.0000   1.0000   1.0000   1.0000   1.0000   1.0000   1.0000   1.0000

          k = 0.0192 0.0115 0.0566 ( 95517 PWs)   bands (ev):

   -23.7518 -23.7418 -23.7210 -23.7198 -23.4329 -23.4288 -23.4178 -23.4135
   -18.9864 -18.9812 -18.9760 -18.9654 -18.6544 -18.6534 -18.6375 -18.6355
   -18.0698 -18.0690 -17.0242 -17.0214 -16.9061 -16.9028 -15.8907 -15.8879
   -11.9346 -11.9256 -11.8963 -11.8718 -11.7153 -11.6990 -11.6129 -11.6010
    -8.7287  -8.6895  -8.0974  -8.0693  -7.4234  -7.3662  -7.2615  -7.1730
    -6.7694  -6.6373  -6.4589  -6.4011  -6.3935  -6.2906  -6.2438  -6.2005
    -6.0384  -6.0072  -5.8042  -5.7528  -5.7239  -5.6811  -5.6506  -5.6007
    -5.5474  -5.4897  -5.3247  -5.2727  -5.0153  -4.9343  -4.7833  -4.7450
    -4.2635  -4.2554  -4.1977  -4.1256  -3.9899  -3.9552  -3.8429  -3.8415
    -3.5270  -3.4642  -3.2895  -3.2773  -3.0575  -3.0529  -2.8780  -2.8505
    -0.6294  -0.5972  -0.2025  -0.1874  -0.0910  -0.0638  -0.0022   0.0179
     0.0504   0.0921   0.2071   0.2710   0.3667   0.4273   0.4782   0.4919
     0.6713   0.7338   0.7860   0.8248   0.9110   0.9276   0.9648   1.0225
     1.1144   1.1594   1.2397   1.2608   1.3449   1.4267   1.4918   1.5181

     occupation numbers 
     1.0000   1.0000   1.0000   1.0000   1.0000   1.0000   1.0000   1.0000
     1.0000   1.0000   1.0000   1.0000   1.0000   1.0000   1.0000   1.0000
     1.0000   1.0000   1.0000   1.0000   1.0000   1.0000   1.0000   1.0000
     1.0000   1.0000   1.0000   1.0000   1.0000   1.0000   1.0000   1.0000
     1.0000   1.0000   1.0000   1.0000   1.0000   1.0000   1.0000   1.0000
     1.0000   1.0000   1.0000   1.0000   1.0000   1.0000   1.0000   1.0000
     1.0000   1.0000   1.0000   1.0000   1.0000   1.0000   1.0000   1.0000
     1.0000   1.0000   1.0000   1.0000   1.0000   1.0000   1.0000   1.0000
     1.0000   1.0000   1.0000   1.0000   1.0000   1.0000   1.0000   1.0000
     1.0000   1.0000   1.0000   1.0000   1.0000   1.0000   1.0000   1.0000
     1.0000   1.0000   1.0000   1.0000   1.0000   1.0000   1.0000   1.0000
     1.0000   1.0000   1.0000   1.0000   1.0000   1.0000   1.0000   1.0000
     1.0000   1.0000   1.0000   1.0000   1.0000   1.0000   1.0000   1.0000
     1.0000   1.0000   1.0000   1.0000   1.0000   1.0000   1.0000   1.0000

          k = 0.0192 0.0115-0.0483 ( 95494 PWs)   bands (ev):

   -23.7528 -23.7412 -23.7249 -23.7154 -23.4343 -23.4308 -23.4146 -23.4132
   -18.9834 -18.9822 -18.9721 -18.9715 -18.6556 -18.6550 -18.6359 -18.6342
   -18.0826 -18.0546 -17.0485 -16.9964 -16.9086 -16.9075 -15.8942 -15.8769
   -11.9626 -11.9253 -11.9140 -11.8387 -11.7391 -11.6683 -11.6122 -11.6041
    -8.7374  -8.6475  -8.0835  -8.0787  -7.4179  -7.4004  -7.2711  -7.1463
    -6.7831  -6.6625  -6.4495  -6.4088  -6.3643  -6.3366  -6.2487  -6.2153
    -6.0643  -6.0318  -5.8000  -5.7649  -5.6834  -5.6468  -5.6247  -5.6067
    -5.5435  -5.4728  -5.3305  -5.2688  -5.0120  -4.9315  -4.7713  -4.7365
    -4.2945  -4.2210  -4.1890  -4.1190  -4.0189  -3.9893  -3.8546  -3.7876
    -3.5254  -3.4739  -3.3452  -3.2549  -3.0667  -3.0369  -2.8740  -2.8576
    -0.5570  -0.4966  -0.1899  -0.1789  -0.1645  -0.1264  -0.0425  -0.0260
     0.0400   0.0459   0.1768   0.2649   0.3859   0.4282   0.4324   0.4841
     0.7113   0.7966   0.8249   0.8362   0.8882   0.9764   0.9791   1.0038
     1.1105   1.1661   1.2427   1.3052   1.3537   1.3844   1.4812   1.5044

     occupation numbers 
     1.0000   1.0000   1.0000   1.0000   1.0000   1.0000   1.0000   1.0000
     1.0000   1.0000   1.0000   1.0000   1.0000   1.0000   1.0000   1.0000
     1.0000   1.0000   1.0000   1.0000   1.0000   1.0000   1.0000   1.0000
     1.0000   1.0000   1.0000   1.0000   1.0000   1.0000   1.0000   1.0000
     1.0000   1.0000   1.0000   1.0000   1.0000   1.0000   1.0000   1.0000
     1.0000   1.0000   1.0000   1.0000   1.0000   1.0000   1.0000   1.0000
     1.0000   1.0000   1.0000   1.0000   1.0000   1.0000   1.0000   1.0000
     1.0000   1.0000   1.0000   1.0000   1.0000   1.0000   1.0000   1.0000
     1.0000   1.0000   1.0000   1.0000   1.0000   1.0000   1.0000   1.0000
     1.0000   1.0000   1.0000   1.0000   1.0000   1.0000   1.0000   1.0000
     1.0000   1.0000   1.0000   1.0000   1.0000   1.0000   1.0000   1.0000
     1.0000   1.0000   1.0000   1.0000   1.0000   1.0000   1.0000   1.0000
     1.0000   1.0000   1.0000   1.0000   1.0000   1.0000   1.0000   1.0000
     1.0000   1.0000   1.0000   1.0000   1.0000   1.0000   1.0000   1.0000

          k = 0.0192 0.0115-0.0133 ( 95460 PWs)   bands (ev):

   -23.7609 -23.7360 -23.7259 -23.7128 -23.4346 -23.4248 -23.4168 -23.4154
   -18.9866 -18.9809 -18.9753 -18.9647 -18.6509 -18.6506 -18.6391 -18.6390
   -18.0879 -18.0472 -17.0611 -16.9844 -16.9134 -16.9111 -15.8955 -15.8740
   -11.9778 -11.9317 -11.9113 -11.8155 -11.7590 -11.6653 -11.6023 -11.5840
    -8.7595  -8.6620  -8.1074  -8.0779  -7.4191  -7.3902  -7.3177  -7.2249
    -6.6874  -6.6717  -6.4607  -6.3616  -6.3560  -6.3066  -6.2167  -6.1423
    -6.0377  -5.9823  -5.8458  -5.7906  -5.7108  -5.6685  -5.5779  -5.5406
    -5.5073  -5.4587  -5.3743  -5.3664  -4.9767  -4.9297  -4.7793  -4.7539
    -4.3069  -4.2872  -4.2544  -4.2333  -4.0789  -3.9659  -3.7406  -3.6753
    -3.5780  -3.4262  -3.3623  -3.3020  -3.0389  -2.9824  -2.8895  -2.8865
    -0.6141  -0.5945  -0.1777  -0.1678  -0.0830  -0.0516   0.0124   0.0379
     0.0515   0.0918   0.1992   0.2646   0.3187   0.4064   0.4495   0.5208
     0.6815   0.7206   0.7604   0.8390   0.9007   0.9576   1.0182   1.0347
     1.0670   1.1385   1.2226   1.2854   1.3204   1.4536   1.4750   1.5095

     occupation numbers 
     1.0000   1.0000   1.0000   1.0000   1.0000   1.0000   1.0000   1.0000
     1.0000   1.0000   1.0000   1.0000   1.0000   1.0000   1.0000   1.0000
     1.0000   1.0000   1.0000   1.0000   1.0000   1.0000   1.0000   1.0000
     1.0000   1.0000   1.0000   1.0000   1.0000   1.0000   1.0000   1.0000
     1.0000   1.0000   1.0000   1.0000   1.0000   1.0000   1.0000   1.0000
     1.0000   1.0000   1.0000   1.0000   1.0000   1.0000   1.0000   1.0000
     1.0000   1.0000   1.0000   1.0000   1.0000   1.0000   1.0000   1.0000
     1.0000   1.0000   1.0000   1.0000   1.0000   1.0000   1.0000   1.0000
     1.0000   1.0000   1.0000   1.0000   1.0000   1.0000   1.0000   1.0000
     1.0000   1.0000   1.0000   1.0000   1.0000   1.0000   1.0000   1.0000
     1.0000   1.0000   1.0000   1.0000   1.0000   1.0000   1.0000   1.0000
     1.0000   1.0000   1.0000   1.0000   1.0000   1.0000   1.0000   1.0000
     1.0000   1.0000   1.0000   1.0000   1.0000   1.0000   1.0000   1.0000
     1.0000   1.0000   1.0000   1.0000   1.0000   1.0000   1.0000   1.0000

          k = 0.0192 0.0346 0.0216 ( 95462 PWs)   bands (ev):

   -23.7546 -23.7452 -23.7198 -23.7164 -23.4285 -23.4232 -23.4200 -23.4196
   -18.9877 -18.9861 -18.9691 -18.9644 -18.6476 -18.6473 -18.6427 -18.6422
   -18.0747 -18.0626 -17.0347 -17.0115 -16.9093 -16.9076 -15.8912 -15.8857
   -11.9385 -11.9283 -11.9060 -11.8717 -11.7188 -11.6907 -11.5970 -11.5879
    -8.7372  -8.7198  -8.1040  -8.0870  -7.4032  -7.3820  -7.2723  -7.2707
    -6.6969  -6.6481  -6.4112  -6.3625  -6.3520  -6.3190  -6.1885  -6.1581
    -5.9992  -5.9772  -5.8393  -5.8040  -5.7470  -5.6959  -5.6123  -5.5945
    -5.4544  -5.4387  -5.3825  -5.3570  -4.9625  -4.8896  -4.8443  -4.8134
    -4.3158  -4.3050  -4.2259  -4.2063  -4.0432  -3.9916  -3.7237  -3.7159
    -3.5111  -3.4503  -3.3388  -3.3174  -3.0220  -3.0063  -2.8886  -2.8806
    -0.6619  -0.6595  -0.1799  -0.1673  -0.0981  -0.0634   0.0082   0.0142
     0.1508   0.1612   0.3290   0.3400   0.3766   0.3845   0.5193   0.5314
     0.5403   0.5798   0.7646   0.7973   0.8860   0.9095   1.0269   1.0494
     1.0815   1.1296   1.2247   1.2475   1.3744   1.4349   1.4982   1.5052

     occupation numbers 
     1.0000   1.0000   1.0000   1.0000   1.0000   1.0000   1.0000   1.0000
     1.0000   1.0000   1.0000   1.0000   1.0000   1.0000   1.0000   1.0000
     1.0000   1.0000   1.0000   1.0000   1.0000   1.0000   1.0000   1.0000
     1.0000   1.0000   1.0000   1.0000   1.0000   1.0000   1.0000   1.0000
     1.0000   1.0000   1.0000   1.0000   1.0000   1.0000   1.0000   1.0000
     1.0000   1.0000   1.0000   1.0000   1.0000   1.0000   1.0000   1.0000
     1.0000   1.0000   1.0000   1.0000   1.0000   1.0000   1.0000   1.0000
     1.0000   1.0000   1.0000   1.0000   1.0000   1.0000   1.0000   1.0000
     1.0000   1.0000   1.0000   1.0000   1.0000   1.0000   1.0000   1.0000
     1.0000   1.0000   1.0000   1.0000   1.0000   1.0000   1.0000   1.0000
     1.0000   1.0000   1.0000   1.0000   1.0000   1.0000   1.0000   1.0000
     1.0000   1.0000   1.0000   1.0000   1.0000   1.0000   1.0000   1.0000
     1.0000   1.0000   1.0000   1.0000   1.0000   1.0000   1.0000   1.0000
     1.0000   1.0000   1.0000   1.0000   1.0000   1.0000   1.0000   1.0000

          k = 0.0192 0.0346 0.0566 ( 95577 PWs)   bands (ev):

   -23.7485 -23.7442 -23.7213 -23.7207 -23.4309 -23.4293 -23.4172 -23.4154
   -18.9863 -18.9848 -18.9708 -18.9671 -18.6541 -18.6537 -18.6369 -18.6361
   -18.0696 -18.0692 -17.0238 -17.0227 -16.9046 -16.9033 -15.8899 -15.8888
   -11.9309 -11.9260 -11.8937 -11.8822 -11.7071 -11.6999 -11.6107 -11.6056
    -8.7175  -8.7012  -8.0898  -8.0780  -7.4056  -7.3825  -7.2342  -7.1989
    -6.7495  -6.7015  -6.4321  -6.4143  -6.3495  -6.3034  -6.2499  -6.2264
    -5.9960  -5.9587  -5.8229  -5.7625  -5.7162  -5.6819  -5.6516  -5.6309
    -5.5375  -5.4979  -5.3345  -5.3080  -4.9457  -4.8919  -4.8381  -4.7960
    -4.2355  -4.2189  -4.1931  -4.1584  -3.9865  -3.9728  -3.8435  -3.8418
    -3.5020  -3.4758  -3.2874  -3.2821  -3.0521  -3.0470  -2.8791  -2.8653
    -0.6186  -0.6053  -0.1926  -0.1808  -0.1075  -0.0805  -0.0206  -0.0053
     0.0789   0.0965   0.2604   0.2816   0.3737   0.4037   0.4679   0.4823
     0.6910   0.7177   0.7969   0.8158   0.9158   0.9312   0.9693   1.0052
     1.1141   1.1383   1.2507   1.2587   1.3749   1.4075   1.4976   1.5084

     occupation numbers 
     1.0000   1.0000   1.0000   1.0000   1.0000   1.0000   1.0000   1.0000
     1.0000   1.0000   1.0000   1.0000   1.0000   1.0000   1.0000   1.0000
     1.0000   1.0000   1.0000   1.0000   1.0000   1.0000   1.0000   1.0000
     1.0000   1.0000   1.0000   1.0000   1.0000   1.0000   1.0000   1.0000
     1.0000   1.0000   1.0000   1.0000   1.0000   1.0000   1.0000   1.0000
     1.0000   1.0000   1.0000   1.0000   1.0000   1.0000   1.0000   1.0000
     1.0000   1.0000   1.0000   1.0000   1.0000   1.0000   1.0000   1.0000
     1.0000   1.0000   1.0000   1.0000   1.0000   1.0000   1.0000   1.0000
     1.0000   1.0000   1.0000   1.0000   1.0000   1.0000   1.0000   1.0000
     1.0000   1.0000   1.0000   1.0000   1.0000   1.0000   1.0000   1.0000
     1.0000   1.0000   1.0000   1.0000   1.0000   1.0000   1.0000   1.0000
     1.0000   1.0000   1.0000   1.0000   1.0000   1.0000   1.0000   1.0000
     1.0000   1.0000   1.0000   1.0000   1.0000   1.0000   1.0000   1.0000
     1.0000   1.0000   1.0000   1.0000   1.0000   1.0000   1.0000   1.0000

          k = 0.0192 0.0346-0.0483 ( 95548 PWs)   bands (ev):

   -23.7495 -23.7447 -23.7222 -23.7182 -23.4327 -23.4312 -23.4147 -23.4140
   -18.9842 -18.9837 -18.9707 -18.9705 -18.6554 -18.6552 -18.6354 -18.6347
   -18.0746 -18.0631 -17.0334 -17.0119 -16.9080 -16.9075 -15.8890 -15.8819
   -11.9519 -11.9375 -11.8974 -11.8697 -11.7090 -11.6820 -11.6102 -11.6064
    -8.7122  -8.6750  -8.0838  -8.0815  -7.4087  -7.4026  -7.2381  -7.1851
    -6.7455  -6.6943  -6.4582  -6.4252  -6.3461  -6.3278  -6.2823  -6.2630
    -5.9719  -5.9529  -5.8399  -5.8040  -5.6754  -5.6544  -5.6266  -5.5979
    -5.5388  -5.4981  -5.3215  -5.2887  -4.9805  -4.9248  -4.7981  -4.7626
    -4.2804  -4.2487  -4.1437  -4.1168  -4.0200  -4.0077  -3.8355  -3.8081
    -3.5017  -3.4803  -3.3187  -3.2812  -3.0508  -3.0370  -2.8805  -2.8743
    -0.5402  -0.5156  -0.1912  -0.1854  -0.1318  -0.1123  -0.0675  -0.0468
     0.0224   0.0357   0.2308   0.2658   0.3915   0.4099   0.4433   0.4731
     0.7349   0.7705   0.8455   0.8598   0.8795   0.9259   0.9930   1.0035
     1.1233   1.1406   1.2712   1.2943   1.3600   1.3739   1.4868   1.4970

     occupation numbers 
     1.0000   1.0000   1.0000   1.0000   1.0000   1.0000   1.0000   1.0000
     1.0000   1.0000   1.0000   1.0000   1.0000   1.0000   1.0000   1.0000
     1.0000   1.0000   1.0000   1.0000   1.0000   1.0000   1.0000   1.0000
     1.0000   1.0000   1.0000   1.0000   1.0000   1.0000   1.0000   1.0000
     1.0000   1.0000   1.0000   1.0000   1.0000   1.0000   1.0000   1.0000
     1.0000   1.0000   1.0000   1.0000   1.0000   1.0000   1.0000   1.0000
     1.0000   1.0000   1.0000   1.0000   1.0000   1.0000   1.0000   1.0000
     1.0000   1.0000   1.0000   1.0000   1.0000   1.0000   1.0000   1.0000
     1.0000   1.0000   1.0000   1.0000   1.0000   1.0000   1.0000   1.0000
     1.0000   1.0000   1.0000   1.0000   1.0000   1.0000   1.0000   1.0000
     1.0000   1.0000   1.0000   1.0000   1.0000   1.0000   1.0000   1.0000
     1.0000   1.0000   1.0000   1.0000   1.0000   1.0000   1.0000   1.0000
     1.0000   1.0000   1.0000   1.0000   1.0000   1.0000   1.0000   1.0000
     1.0000   1.0000   1.0000   1.0000   1.0000   1.0000   1.0000   1.0000

          k = 0.0192 0.0346-0.0133 ( 95461 PWs)   bands (ev):

   -23.7552 -23.7459 -23.7196 -23.7152 -23.4312 -23.4270 -23.4168 -23.4163
   -18.9864 -18.9848 -18.9700 -18.9663 -18.6508 -18.6507 -18.6391 -18.6390
   -18.0765 -18.0597 -17.0383 -17.0065 -16.9128 -16.9118 -15.8890 -15.8801
   -11.9604 -11.9413 -11.8989 -11.8666 -11.7134 -11.6815 -11.5961 -11.5886
    -8.7329  -8.6926  -8.1007  -8.0885  -7.4119  -7.3984  -7.2861  -7.2494
    -6.6603  -6.6417  -6.4569  -6.4011  -6.3475  -6.3235  -6.2425  -6.2068
    -5.9725  -5.9464  -5.8529  -5.8235  -5.7006  -5.6771  -5.5856  -5.5822
    -5.4547  -5.4398  -5.3645  -5.3541  -4.9735  -4.9383  -4.7979  -4.7761
    -4.3209  -4.3142  -4.2271  -4.2050  -4.0576  -4.0022  -3.7189  -3.6920
    -3.5214  -3.4571  -3.3487  -3.3227  -3.0258  -3.0026  -2.8881  -2.8870
    -0.6046  -0.5964  -0.1699  -0.1569  -0.0994  -0.0654   0.0031   0.0135
     0.0521   0.0735   0.2334   0.2641   0.3471   0.3869   0.4891   0.5202
     0.6970   0.7302   0.7549   0.8137   0.8727   0.9125   1.0396   1.0443
     1.0936   1.1219   1.2532   1.2774   1.3535   1.4126   1.4856   1.4954

     occupation numbers 
     1.0000   1.0000   1.0000   1.0000   1.0000   1.0000   1.0000   1.0000
     1.0000   1.0000   1.0000   1.0000   1.0000   1.0000   1.0000   1.0000
     1.0000   1.0000   1.0000   1.0000   1.0000   1.0000   1.0000   1.0000
     1.0000   1.0000   1.0000   1.0000   1.0000   1.0000   1.0000   1.0000
     1.0000   1.0000   1.0000   1.0000   1.0000   1.0000   1.0000   1.0000
     1.0000   1.0000   1.0000   1.0000   1.0000   1.0000   1.0000   1.0000
     1.0000   1.0000   1.0000   1.0000   1.0000   1.0000   1.0000   1.0000
     1.0000   1.0000   1.0000   1.0000   1.0000   1.0000   1.0000   1.0000
     1.0000   1.0000   1.0000   1.0000   1.0000   1.0000   1.0000   1.0000
     1.0000   1.0000   1.0000   1.0000   1.0000   1.0000   1.0000   1.0000
     1.0000   1.0000   1.0000   1.0000   1.0000   1.0000   1.0000   1.0000
     1.0000   1.0000   1.0000   1.0000   1.0000   1.0000   1.0000   1.0000
     1.0000   1.0000   1.0000   1.0000   1.0000   1.0000   1.0000   1.0000
     1.0000   1.0000   1.0000   1.0000   1.0000   1.0000   1.0000   1.0000

          k = 0.0575 0.0115 0.0300 ( 95543 PWs)   bands (ev):

   -23.7492 -23.7385 -23.7217 -23.7210 -23.4305 -23.4262 -23.4216 -23.4175
   -18.9859 -18.9815 -18.9766 -18.9663 -18.6515 -18.6501 -18.6407 -18.6391
   -18.0756 -18.0749 -17.0231 -17.0209 -16.9093 -16.9069 -15.8917 -15.8885
   -11.9201 -11.9158 -11.8622 -11.8424 -11.6866 -11.6622 -11.6177 -11.5968
    -8.7492  -8.7133  -8.1150  -8.0898  -7.4121  -7.3729  -7.3508  -7.2915
    -6.8420  -6.7708  -6.5487  -6.4166  -6.3108  -6.2642  -6.1113  -6.0768
    -6.0555  -6.0024  -5.8587  -5.7952  -5.7400  -5.6957  -5.6020  -5.5747
    -5.4864  -5.4465  -5.4010  -5.3793  -5.0160  -4.8979  -4.7749  -4.7717
    -4.2909  -4.2690  -4.2235  -4.1717  -3.8737  -3.8170  -3.6726  -3.6267
    -3.5884  -3.4601  -3.4208  -3.4114  -3.0255  -3.0225  -2.9006  -2.8650
    -0.6154  -0.6058  -0.1694  -0.1600  -0.0765  -0.0554   0.0076   0.0331
     0.0708   0.0995   0.2431   0.2649   0.3329   0.3508   0.4939   0.5132
     0.7010   0.7152   0.7914   0.8354   0.9107   0.9159   1.0116   1.0254
     1.0814   1.1271   1.1533   1.2019   1.4095   1.4451   1.4633   1.5045

     occupation numbers 
     1.0000   1.0000   1.0000   1.0000   1.0000   1.0000   1.0000   1.0000
     1.0000   1.0000   1.0000   1.0000   1.0000   1.0000   1.0000   1.0000
     1.0000   1.0000   1.0000   1.0000   1.0000   1.0000   1.0000   1.0000
     1.0000   1.0000   1.0000   1.0000   1.0000   1.0000   1.0000   1.0000
     1.0000   1.0000   1.0000   1.0000   1.0000   1.0000   1.0000   1.0000
     1.0000   1.0000   1.0000   1.0000   1.0000   1.0000   1.0000   1.0000
     1.0000   1.0000   1.0000   1.0000   1.0000   1.0000   1.0000   1.0000
     1.0000   1.0000   1.0000   1.0000   1.0000   1.0000   1.0000   1.0000
     1.0000   1.0000   1.0000   1.0000   1.0000   1.0000   1.0000   1.0000
     1.0000   1.0000   1.0000   1.0000   1.0000   1.0000   1.0000   1.0000
     1.0000   1.0000   1.0000   1.0000   1.0000   1.0000   1.0000   1.0000
     1.0000   1.0000   1.0000   1.0000   1.0000   1.0000   1.0000   1.0000
     1.0000   1.0000   1.0000   1.0000   1.0000   1.0000   1.0000   1.0000
     1.0000   1.0000   1.0000   1.0000   1.0000   1.0000   1.0000   1.0000

          k = 0.0575 0.0115 0.0649 ( 95555 PWs)   bands (ev):

   -23.7448 -23.7416 -23.7258 -23.7170 -23.4278 -23.4277 -23.4255 -23.4158
   -18.9869 -18.9837 -18.9768 -18.9647 -18.6620 -18.6594 -18.6328 -18.6287
   -18.0917 -18.0648 -17.0451 -16.9958 -16.8992 -16.8954 -15.9089 -15.8869
   -11.9393 -11.9221 -11.8908 -11.8138 -11.6788 -11.6412 -11.6217 -11.5979
    -8.7984  -8.6676  -8.1121  -8.0693  -7.4030  -7.3865  -7.3025  -7.1641
    -6.9518  -6.7166  -6.5527  -6.3535  -6.3327  -6.2985  -6.2801  -6.1664
    -6.1139  -6.0217  -5.8515  -5.8092  -5.7641  -5.6893  -5.6263  -5.5591
    -5.4605  -5.4137  -5.3623  -5.2751  -5.0310  -4.8642  -4.8496  -4.7760
    -4.2336  -4.2196  -4.1541  -4.1148  -3.8308  -3.8144  -3.7585  -3.7350
    -3.6070  -3.4895  -3.4263  -3.3210  -3.0786  -3.0391  -2.8995  -2.8300
    -0.6932  -0.6576  -0.1769  -0.1346  -0.0742  -0.0437   0.0150   0.0542
     0.1078   0.1459   0.3032   0.3328   0.3624   0.3780   0.4570   0.5615
     0.6210   0.6292   0.6859   0.7860   0.9154   0.9433   0.9957   1.0179
     1.1152   1.1514   1.1612   1.1897   1.4221   1.4634   1.4731   1.5212

     occupation numbers 
     1.0000   1.0000   1.0000   1.0000   1.0000   1.0000   1.0000   1.0000
     1.0000   1.0000   1.0000   1.0000   1.0000   1.0000   1.0000   1.0000
     1.0000   1.0000   1.0000   1.0000   1.0000   1.0000   1.0000   1.0000
     1.0000   1.0000   1.0000   1.0000   1.0000   1.0000   1.0000   1.0000
     1.0000   1.0000   1.0000   1.0000   1.0000   1.0000   1.0000   1.0000
     1.0000   1.0000   1.0000   1.0000   1.0000   1.0000   1.0000   1.0000
     1.0000   1.0000   1.0000   1.0000   1.0000   1.0000   1.0000   1.0000
     1.0000   1.0000   1.0000   1.0000   1.0000   1.0000   1.0000   1.0000
     1.0000   1.0000   1.0000   1.0000   1.0000   1.0000   1.0000   1.0000
     1.0000   1.0000   1.0000   1.0000   1.0000   1.0000   1.0000   1.0000
     1.0000   1.0000   1.0000   1.0000   1.0000   1.0000   1.0000   1.0000
     1.0000   1.0000   1.0000   1.0000   1.0000   1.0000   1.0000   1.0000
     1.0000   1.0000   1.0000   1.0000   1.0000   1.0000   1.0000   1.0000
     1.0000   1.0000   1.0000   1.0000   1.0000   1.0000   1.0000   1.0000

          k = 0.0575 0.0115-0.0399 ( 95527 PWs)   bands (ev):

   -23.7466 -23.7404 -23.7275 -23.7147 -23.4315 -23.4305 -23.4206 -23.4143
   -18.9847 -18.9823 -18.9775 -18.9677 -18.6628 -18.6603 -18.6318 -18.6278
   -18.0968 -18.0581 -17.0560 -16.9839 -16.9024 -16.8996 -15.9080 -15.8802
   -11.9506 -11.9290 -11.9060 -11.7911 -11.6959 -11.6235 -11.6150 -11.6026
    -8.7923  -8.6407  -8.1055  -8.0704  -7.4068  -7.3859  -7.3289  -7.1512
    -6.9734  -6.7159  -6.5409  -6.3906  -6.3368  -6.3208  -6.2673  -6.1998
    -6.1158  -6.0386  -5.8361  -5.7833  -5.7083  -5.6983  -5.6271  -5.5783
    -5.4350  -5.4090  -5.3687  -5.2752  -5.0221  -4.8874  -4.8216  -4.7627
    -4.2366  -4.1933  -4.1560  -4.1269  -3.8731  -3.8615  -3.7106  -3.6934
    -3.5581  -3.5231  -3.4795  -3.3239  -3.0832  -3.0359  -2.8949  -2.8361
    -0.6479  -0.5890  -0.1680  -0.1072  -0.0924  -0.0657   0.0072   0.0299
     0.0421   0.0875   0.2393   0.3333   0.3531   0.4036   0.4170   0.4443
     0.6647   0.7300   0.7732   0.7948   0.9160   0.9430   1.0131   1.0301
     1.1044   1.1317   1.1769   1.2469   1.4336   1.4527   1.4587   1.4871

     occupation numbers 
     1.0000   1.0000   1.0000   1.0000   1.0000   1.0000   1.0000   1.0000
     1.0000   1.0000   1.0000   1.0000   1.0000   1.0000   1.0000   1.0000
     1.0000   1.0000   1.0000   1.0000   1.0000   1.0000   1.0000   1.0000
     1.0000   1.0000   1.0000   1.0000   1.0000   1.0000   1.0000   1.0000
     1.0000   1.0000   1.0000   1.0000   1.0000   1.0000   1.0000   1.0000
     1.0000   1.0000   1.0000   1.0000   1.0000   1.0000   1.0000   1.0000
     1.0000   1.0000   1.0000   1.0000   1.0000   1.0000   1.0000   1.0000
     1.0000   1.0000   1.0000   1.0000   1.0000   1.0000   1.0000   1.0000
     1.0000   1.0000   1.0000   1.0000   1.0000   1.0000   1.0000   1.0000
     1.0000   1.0000   1.0000   1.0000   1.0000   1.0000   1.0000   1.0000
     1.0000   1.0000   1.0000   1.0000   1.0000   1.0000   1.0000   1.0000
     1.0000   1.0000   1.0000   1.0000   1.0000   1.0000   1.0000   1.0000
     1.0000   1.0000   1.0000   1.0000   1.0000   1.0000   1.0000   1.0000
     1.0000   1.0000   1.0000   1.0000   1.0000   1.0000   1.0000   1.0000

          k = 0.0575 0.0115-0.0050 ( 95497 PWs)   bands (ev):

   -23.7501 -23.7383 -23.7257 -23.7164 -23.4328 -23.4290 -23.4179 -23.4162
   -18.9831 -18.9818 -18.9730 -18.9726 -18.6535 -18.6524 -18.6384 -18.6370
   -18.0885 -18.0604 -17.0479 -16.9952 -16.9119 -16.9117 -15.8951 -15.8776
   -11.9350 -11.9167 -11.8984 -11.8011 -11.7074 -11.6381 -11.6107 -11.6044
    -8.7584  -8.6704  -8.1019  -8.0981  -7.4031  -7.3959  -7.3825  -7.2658
    -6.8626  -6.7633  -6.5050  -6.4777  -6.3025  -6.2966  -6.1528  -6.1258
    -6.0325  -6.0235  -5.7986  -5.7508  -5.7100  -5.6829  -5.6139  -5.6069
    -5.4664  -5.4466  -5.3932  -5.3824  -4.9750  -4.9516  -4.7529  -4.7491
    -4.2920  -4.2642  -4.2179  -4.1809  -3.8880  -3.8462  -3.6317  -3.6202
    -3.5439  -3.5143  -3.4625  -3.4003  -3.0457  -3.0059  -2.8939  -2.8720
    -0.5559  -0.5082  -0.1757  -0.1615  -0.0896  -0.0789  -0.0519  -0.0489
     0.0546   0.0877   0.2002   0.2735   0.3123   0.3600   0.4623   0.5024
     0.6812   0.7512   0.8559   0.8774   0.9141   0.9442   1.0245   1.0472
     1.0786   1.0947   1.1634   1.2514   1.4267   1.4335   1.4432   1.4652

     occupation numbers 
     1.0000   1.0000   1.0000   1.0000   1.0000   1.0000   1.0000   1.0000
     1.0000   1.0000   1.0000   1.0000   1.0000   1.0000   1.0000   1.0000
     1.0000   1.0000   1.0000   1.0000   1.0000   1.0000   1.0000   1.0000
     1.0000   1.0000   1.0000   1.0000   1.0000   1.0000   1.0000   1.0000
     1.0000   1.0000   1.0000   1.0000   1.0000   1.0000   1.0000   1.0000
     1.0000   1.0000   1.0000   1.0000   1.0000   1.0000   1.0000   1.0000
     1.0000   1.0000   1.0000   1.0000   1.0000   1.0000   1.0000   1.0000
     1.0000   1.0000   1.0000   1.0000   1.0000   1.0000   1.0000   1.0000
     1.0000   1.0000   1.0000   1.0000   1.0000   1.0000   1.0000   1.0000
     1.0000   1.0000   1.0000   1.0000   1.0000   1.0000   1.0000   1.0000
     1.0000   1.0000   1.0000   1.0000   1.0000   1.0000   1.0000   1.0000
     1.0000   1.0000   1.0000   1.0000   1.0000   1.0000   1.0000   1.0000
     1.0000   1.0000   1.0000   1.0000   1.0000   1.0000   1.0000   1.0000
     1.0000   1.0000   1.0000   1.0000   1.0000   1.0000   1.0000   1.0000

          k = 0.0575 0.0346 0.0300 ( 95513 PWs)   bands (ev):

   -23.7458 -23.7413 -23.7221 -23.7216 -23.4281 -23.4264 -23.4214 -23.4197
   -18.9859 -18.9848 -18.9717 -18.9680 -18.6511 -18.6505 -18.6403 -18.6396
   -18.0754 -18.0751 -17.0226 -17.0217 -16.9084 -16.9074 -15.8908 -15.8895
   -11.9192 -11.9174 -11.8546 -11.8462 -11.6816 -11.6714 -11.6113 -11.6026
    -8.7387  -8.7238  -8.1036  -8.0929  -7.3999  -7.3846  -7.3382  -7.3131
    -6.8472  -6.8241  -6.4667  -6.4194  -6.2891  -6.2608  -6.1439  -6.1114
    -6.0402  -6.0112  -5.8296  -5.8039  -5.7310  -5.7083  -5.6066  -5.5787
    -5.4673  -5.4576  -5.3914  -5.3803  -4.9851  -4.9362  -4.7815  -4.7782
    -4.2827  -4.2686  -4.2126  -4.1928  -3.8483  -3.8237  -3.6591  -3.6374
    -3.5545  -3.5007  -3.4190  -3.4113  -3.0245  -3.0213  -2.8957  -2.8799
    -0.6082  -0.6042  -0.1605  -0.1512  -0.1160  -0.0935   0.0304   0.0546
     0.0763   0.0925   0.2526   0.2742   0.3426   0.3589   0.4921   0.5022
     0.7343   0.7370   0.7650   0.7985   0.9036   0.9134   1.0157   1.0372
     1.0885   1.1199   1.1595   1.1819   1.4210   1.4347   1.4773   1.4933

     occupation numbers 
     1.0000   1.0000   1.0000   1.0000   1.0000   1.0000   1.0000   1.0000
     1.0000   1.0000   1.0000   1.0000   1.0000   1.0000   1.0000   1.0000
     1.0000   1.0000   1.0000   1.0000   1.0000   1.0000   1.0000   1.0000
     1.0000   1.0000   1.0000   1.0000   1.0000   1.0000   1.0000   1.0000
     1.0000   1.0000   1.0000   1.0000   1.0000   1.0000   1.0000   1.0000
     1.0000   1.0000   1.0000   1.0000   1.0000   1.0000   1.0000   1.0000
     1.0000   1.0000   1.0000   1.0000   1.0000   1.0000   1.0000   1.0000
     1.0000   1.0000   1.0000   1.0000   1.0000   1.0000   1.0000   1.0000
     1.0000   1.0000   1.0000   1.0000   1.0000   1.0000   1.0000   1.0000
     1.0000   1.0000   1.0000   1.0000   1.0000   1.0000   1.0000   1.0000
     1.0000   1.0000   1.0000   1.0000   1.0000   1.0000   1.0000   1.0000
     1.0000   1.0000   1.0000   1.0000   1.0000   1.0000   1.0000   1.0000
     1.0000   1.0000   1.0000   1.0000   1.0000   1.0000   1.0000   1.0000
     1.0000   1.0000   1.0000   1.0000   1.0000   1.0000   1.0000   1.0000

          k = 0.0575 0.0346 0.0649 ( 95532 PWs)   bands (ev):

   -23.7434 -23.7421 -23.7239 -23.7202 -23.4275 -23.4273 -23.4230 -23.4188
   -18.9873 -18.9864 -18.9714 -18.9669 -18.6613 -18.6602 -18.6316 -18.6299
   -18.0840 -18.0729 -17.0307 -17.0103 -16.8979 -16.8964 -15.9023 -15.8932
   -11.9393 -11.9340 -11.8612 -11.8316 -11.6680 -11.6525 -11.6148 -11.6050
    -8.7614  -8.7073  -8.0978  -8.0799  -7.3775  -7.3683  -7.2966  -7.2332
    -6.9083  -6.8270  -6.4505  -6.3892  -6.3182  -6.3051  -6.2340  -6.1742
    -6.0933  -6.0386  -5.8294  -5.8057  -5.7474  -5.7164  -5.6459  -5.6022
    -5.4554  -5.4366  -5.3245  -5.2896  -4.9909  -4.9187  -4.8292  -4.7969
    -4.2170  -4.1953  -4.1539  -4.1163  -3.8201  -3.8134  -3.7592  -3.7486
    -3.5815  -3.5398  -3.3861  -3.3465  -3.0686  -3.0524  -2.8795  -2.8506
    -0.6786  -0.6642  -0.1630  -0.1435  -0.1062  -0.0953   0.0427   0.0554
     0.1381   0.1526   0.3216   0.3308   0.3778   0.3911   0.4801   0.5302
     0.6005   0.6098   0.7408   0.7977   0.8806   0.9177   1.0059   1.0195
     1.1016   1.1241   1.1857   1.1994   1.4338   1.4502   1.4872   1.5065

     occupation numbers 
     1.0000   1.0000   1.0000   1.0000   1.0000   1.0000   1.0000   1.0000
     1.0000   1.0000   1.0000   1.0000   1.0000   1.0000   1.0000   1.0000
     1.0000   1.0000   1.0000   1.0000   1.0000   1.0000   1.0000   1.0000
     1.0000   1.0000   1.0000   1.0000   1.0000   1.0000   1.0000   1.0000
     1.0000   1.0000   1.0000   1.0000   1.0000   1.0000   1.0000   1.0000
     1.0000   1.0000   1.0000   1.0000   1.0000   1.0000   1.0000   1.0000
     1.0000   1.0000   1.0000   1.0000   1.0000   1.0000   1.0000   1.0000
     1.0000   1.0000   1.0000   1.0000   1.0000   1.0000   1.0000   1.0000
     1.0000   1.0000   1.0000   1.0000   1.0000   1.0000   1.0000   1.0000
     1.0000   1.0000   1.0000   1.0000   1.0000   1.0000   1.0000   1.0000
     1.0000   1.0000   1.0000   1.0000   1.0000   1.0000   1.0000   1.0000
     1.0000   1.0000   1.0000   1.0000   1.0000   1.0000   1.0000   1.0000
     1.0000   1.0000   1.0000   1.0000   1.0000   1.0000   1.0000   1.0000
     1.0000   1.0000   1.0000   1.0000   1.0000   1.0000   1.0000   1.0000

          k = 0.0575 0.0346-0.0399 ( 95480 PWs)   bands (ev):

   -23.7449 -23.7424 -23.7237 -23.7185 -23.4309 -23.4304 -23.4191 -23.4164
   -18.9855 -18.9851 -18.9725 -18.9690 -18.6621 -18.6610 -18.6306 -18.6290
   -18.0859 -18.0699 -17.0347 -17.0049 -16.9016 -16.9005 -15.8996 -15.8880
   -11.9489 -11.9419 -11.8707 -11.8278 -11.6682 -11.6411 -11.6100 -11.6055
    -8.7500  -8.6874  -8.0950  -8.0803  -7.3843  -7.3639  -7.3141  -7.2278
    -6.9155  -6.8246  -6.4493  -6.4047  -6.3382  -6.3133  -6.2814  -6.2253
    -6.0566  -6.0118  -5.8236  -5.7918  -5.7279  -5.7184  -5.6376  -5.6030
    -5.4349  -5.4237  -5.3240  -5.2858  -5.0076  -4.9517  -4.7930  -4.7681
    -4.2372  -4.2200  -4.1205  -4.1027  -3.8656  -3.8609  -3.7082  -3.7018
    -3.5626  -3.5490  -3.4237  -3.3634  -3.0669  -3.0462  -2.8826  -2.8573
    -0.6273  -0.6025  -0.1589  -0.1358  -0.1157  -0.0970   0.0289   0.0388
     0.0704   0.0980   0.2715   0.3084   0.3605   0.3815   0.4246   0.4511
     0.6880   0.7181   0.8038   0.8097   0.9020   0.9137   1.0003   1.0051
     1.1121   1.1330   1.2052   1.2313   1.4373   1.4466   1.4646   1.4778

     occupation numbers 
     1.0000   1.0000   1.0000   1.0000   1.0000   1.0000   1.0000   1.0000
     1.0000   1.0000   1.0000   1.0000   1.0000   1.0000   1.0000   1.0000
     1.0000   1.0000   1.0000   1.0000   1.0000   1.0000   1.0000   1.0000
     1.0000   1.0000   1.0000   1.0000   1.0000   1.0000   1.0000   1.0000
     1.0000   1.0000   1.0000   1.0000   1.0000   1.0000   1.0000   1.0000
     1.0000   1.0000   1.0000   1.0000   1.0000   1.0000   1.0000   1.0000
     1.0000   1.0000   1.0000   1.0000   1.0000   1.0000   1.0000   1.0000
     1.0000   1.0000   1.0000   1.0000   1.0000   1.0000   1.0000   1.0000
     1.0000   1.0000   1.0000   1.0000   1.0000   1.0000   1.0000   1.0000
     1.0000   1.0000   1.0000   1.0000   1.0000   1.0000   1.0000   1.0000
     1.0000   1.0000   1.0000   1.0000   1.0000   1.0000   1.0000   1.0000
     1.0000   1.0000   1.0000   1.0000   1.0000   1.0000   1.0000   1.0000
     1.0000   1.0000   1.0000   1.0000   1.0000   1.0000   1.0000   1.0000
     1.0000   1.0000   1.0000   1.0000   1.0000   1.0000   1.0000   1.0000

          k = 0.0575 0.0346-0.0050 ( 95478 PWs)   bands (ev):

   -23.7468 -23.7420 -23.7228 -23.7190 -23.4312 -23.4295 -23.4179 -23.4171
   -18.9839 -18.9834 -18.9717 -18.9716 -18.6532 -18.6527 -18.6380 -18.6374
   -18.0806 -18.0689 -17.0324 -17.0106 -16.9118 -16.9117 -15.8899 -15.8826
   -11.9317 -11.9258 -11.8708 -11.8338 -11.6820 -11.6555 -11.6079 -11.6048
    -8.7333  -8.6970  -8.0994  -8.0957  -7.3995  -7.3975  -7.3535  -7.3049
    -6.8501  -6.8109  -6.4589  -6.4466  -6.2932  -6.2807  -6.2105  -6.2010
    -5.9828  -5.9754  -5.8058  -5.7811  -5.7072  -5.6964  -5.5917  -5.5875
    -5.4699  -5.4514  -5.3893  -5.3849  -4.9810  -4.9679  -4.7509  -4.7495
    -4.2936  -4.2761  -4.2116  -4.1858  -3.8615  -3.8437  -3.6339  -3.6303
    -3.5181  -3.4939  -3.4692  -3.4298  -3.0315  -3.0137  -2.8959  -2.8878
    -0.5400  -0.5201  -0.1634  -0.1523  -0.1039  -0.0817  -0.0706  -0.0517
     0.0566   0.0790   0.2227   0.2537   0.3387   0.3618   0.4742   0.4966
     0.7124   0.7509   0.8362   0.8623   0.9006   0.9308   1.0335   1.0386
     1.0968   1.1080   1.1797   1.2203   1.4287   1.4299   1.4498   1.4595

     occupation numbers 
     1.0000   1.0000   1.0000   1.0000   1.0000   1.0000   1.0000   1.0000
     1.0000   1.0000   1.0000   1.0000   1.0000   1.0000   1.0000   1.0000
     1.0000   1.0000   1.0000   1.0000   1.0000   1.0000   1.0000   1.0000
     1.0000   1.0000   1.0000   1.0000   1.0000   1.0000   1.0000   1.0000
     1.0000   1.0000   1.0000   1.0000   1.0000   1.0000   1.0000   1.0000
     1.0000   1.0000   1.0000   1.0000   1.0000   1.0000   1.0000   1.0000
     1.0000   1.0000   1.0000   1.0000   1.0000   1.0000   1.0000   1.0000
     1.0000   1.0000   1.0000   1.0000   1.0000   1.0000   1.0000   1.0000
     1.0000   1.0000   1.0000   1.0000   1.0000   1.0000   1.0000   1.0000
     1.0000   1.0000   1.0000   1.0000   1.0000   1.0000   1.0000   1.0000
     1.0000   1.0000   1.0000   1.0000   1.0000   1.0000   1.0000   1.0000
     1.0000   1.0000   1.0000   1.0000   1.0000   1.0000   1.0000   1.0000
     1.0000   1.0000   1.0000   1.0000   1.0000   1.0000   1.0000   1.0000
     1.0000   1.0000   1.0000   1.0000   1.0000   1.0000   1.0000   1.0000

          k =-0.0192 0.0115-0.0216 ( 95531 PWs)   bands (ev):

   -23.7604 -23.7357 -23.7248 -23.7147 -23.4325 -23.4211 -23.4201 -23.4179
   -18.9880 -18.9824 -18.9750 -18.9619 -18.6477 -18.6471 -18.6431 -18.6418
   -18.0830 -18.0537 -17.0512 -16.9950 -16.9106 -16.9067 -15.8951 -15.8819
   -11.9541 -11.9253 -11.9156 -11.8231 -11.7584 -11.6775 -11.6036 -11.5817
    -8.7483  -8.7065  -8.1151  -8.0743  -7.4134  -7.3629  -7.2823  -7.2789
    -6.7192  -6.6093  -6.4703  -6.3663  -6.3430  -6.2708  -6.2156  -6.1199
    -5.9842  -5.9484  -5.9255  -5.7883  -5.7485  -5.6653  -5.5905  -5.5544
    -5.4947  -5.4717  -5.4065  -5.3573  -5.0111  -4.8929  -4.7905  -4.7763
    -4.3047  -4.2924  -4.2625  -4.2149  -4.0655  -3.9590  -3.7293  -3.7188
    -3.5519  -3.4127  -3.3513  -3.3055  -3.0292  -2.9900  -2.8986  -2.8771
    -0.6672  -0.6624  -0.1902  -0.1795  -0.0784  -0.0328   0.0292   0.0528
     0.1133   0.1467   0.2970   0.3359   0.3542   0.3868   0.5104   0.5204
     0.5559   0.5896   0.7564   0.8187   0.9053   0.9519   1.0083   1.0199
     1.0645   1.1620   1.1965   1.2591   1.3294   1.4742   1.4912   1.5158

     occupation numbers 
     1.0000   1.0000   1.0000   1.0000   1.0000   1.0000   1.0000   1.0000
     1.0000   1.0000   1.0000   1.0000   1.0000   1.0000   1.0000   1.0000
     1.0000   1.0000   1.0000   1.0000   1.0000   1.0000   1.0000   1.0000
     1.0000   1.0000   1.0000   1.0000   1.0000   1.0000   1.0000   1.0000
     1.0000   1.0000   1.0000   1.0000   1.0000   1.0000   1.0000   1.0000
     1.0000   1.0000   1.0000   1.0000   1.0000   1.0000   1.0000   1.0000
     1.0000   1.0000   1.0000   1.0000   1.0000   1.0000   1.0000   1.0000
     1.0000   1.0000   1.0000   1.0000   1.0000   1.0000   1.0000   1.0000
     1.0000   1.0000   1.0000   1.0000   1.0000   1.0000   1.0000   1.0000
     1.0000   1.0000   1.0000   1.0000   1.0000   1.0000   1.0000   1.0000
     1.0000   1.0000   1.0000   1.0000   1.0000   1.0000   1.0000   1.0000
     1.0000   1.0000   1.0000   1.0000   1.0000   1.0000   1.0000   1.0000
     1.0000   1.0000   1.0000   1.0000   1.0000   1.0000   1.0000   1.0000
     1.0000   1.0000   1.0000   1.0000   1.0000   1.0000   1.0000   1.0000

          k =-0.0192 0.0115-0.0566 ( 95517 PWs)   bands (ev):

   -23.7518 -23.7418 -23.7210 -23.7198 -23.4329 -23.4288 -23.4178 -23.4135
   -18.9864 -18.9812 -18.9760 -18.9654 -18.6544 -18.6534 -18.6375 -18.6355
   -18.0698 -18.0690 -17.0242 -17.0214 -16.9061 -16.9028 -15.8907 -15.8879
   -11.9346 -11.9256 -11.8963 -11.8718 -11.7152 -11.6990 -11.6129 -11.6010
    -8.7287  -8.6895  -8.0974  -8.0693  -7.4234  -7.3662  -7.2615  -7.1730
    -6.7694  -6.6373  -6.4589  -6.4011  -6.3934  -6.2906  -6.2438  -6.2005
    -6.0384  -6.0072  -5.8042  -5.7528  -5.7239  -5.6811  -5.6506  -5.6008
    -5.5474  -5.4897  -5.3247  -5.2727  -5.0153  -4.9343  -4.7833  -4.7450
    -4.2635  -4.2554  -4.1977  -4.1256  -3.9898  -3.9553  -3.8429  -3.8415
    -3.5270  -3.4642  -3.2895  -3.2774  -3.0575  -3.0528  -2.8780  -2.8505
    -0.6294  -0.5972  -0.2025  -0.1874  -0.0910  -0.0638  -0.0022   0.0179
     0.0504   0.0921   0.2071   0.2710   0.3667   0.4273   0.4782   0.4919
     0.6713   0.7338   0.7861   0.8248   0.9111   0.9276   0.9648   1.0225
     1.1144   1.1594   1.2397   1.2608   1.3449   1.4267   1.4917   1.5181

     occupation numbers 
     1.0000   1.0000   1.0000   1.0000   1.0000   1.0000   1.0000   1.0000
     1.0000   1.0000   1.0000   1.0000   1.0000   1.0000   1.0000   1.0000
     1.0000   1.0000   1.0000   1.0000   1.0000   1.0000   1.0000   1.0000
     1.0000   1.0000   1.0000   1.0000   1.0000   1.0000   1.0000   1.0000
     1.0000   1.0000   1.0000   1.0000   1.0000   1.0000   1.0000   1.0000
     1.0000   1.0000   1.0000   1.0000   1.0000   1.0000   1.0000   1.0000
     1.0000   1.0000   1.0000   1.0000   1.0000   1.0000   1.0000   1.0000
     1.0000   1.0000   1.0000   1.0000   1.0000   1.0000   1.0000   1.0000
     1.0000   1.0000   1.0000   1.0000   1.0000   1.0000   1.0000   1.0000
     1.0000   1.0000   1.0000   1.0000   1.0000   1.0000   1.0000   1.0000
     1.0000   1.0000   1.0000   1.0000   1.0000   1.0000   1.0000   1.0000
     1.0000   1.0000   1.0000   1.0000   1.0000   1.0000   1.0000   1.0000
     1.0000   1.0000   1.0000   1.0000   1.0000   1.0000   1.0000   1.0000
     1.0000   1.0000   1.0000   1.0000   1.0000   1.0000   1.0000   1.0000

          k =-0.0192 0.0115 0.0483 ( 95494 PWs)   bands (ev):

   -23.7528 -23.7412 -23.7250 -23.7154 -23.4343 -23.4308 -23.4146 -23.4132
   -18.9834 -18.9822 -18.9721 -18.9716 -18.6556 -18.6550 -18.6359 -18.6342
   -18.0826 -18.0546 -17.0485 -16.9964 -16.9086 -16.9075 -15.8942 -15.8769
   -11.9626 -11.9252 -11.9140 -11.8387 -11.7391 -11.6683 -11.6122 -11.6041
    -8.7374  -8.6475  -8.0835  -8.0787  -7.4179  -7.4004  -7.2711  -7.1463
    -6.7831  -6.6625  -6.4495  -6.4088  -6.3643  -6.3366  -6.2487  -6.2153
    -6.0643  -6.0318  -5.8000  -5.7649  -5.6834  -5.6468  -5.6247  -5.6067
    -5.5435  -5.4728  -5.3305  -5.2688  -5.0120  -4.9314  -4.7713  -4.7365
    -4.2945  -4.2210  -4.1890  -4.1190  -4.0189  -3.9893  -3.8545  -3.7876
    -3.5254  -3.4739  -3.3452  -3.2549  -3.0667  -3.0369  -2.8740  -2.8576
    -0.5570  -0.4966  -0.1899  -0.1789  -0.1645  -0.1264  -0.0425  -0.0260
     0.0400   0.0458   0.1768   0.2649   0.3859   0.4282   0.4324   0.4841
     0.7113   0.7966   0.8249   0.8362   0.8882   0.9764   0.9791   1.0039
     1.1105   1.1661   1.2427   1.3052   1.3537   1.3844   1.4812   1.5044

     occupation numbers 
     1.0000   1.0000   1.0000   1.0000   1.0000   1.0000   1.0000   1.0000
     1.0000   1.0000   1.0000   1.0000   1.0000   1.0000   1.0000   1.0000
     1.0000   1.0000   1.0000   1.0000   1.0000   1.0000   1.0000   1.0000
     1.0000   1.0000   1.0000   1.0000   1.0000   1.0000   1.0000   1.0000
     1.0000   1.0000   1.0000   1.0000   1.0000   1.0000   1.0000   1.0000
     1.0000   1.0000   1.0000   1.0000   1.0000   1.0000   1.0000   1.0000
     1.0000   1.0000   1.0000   1.0000   1.0000   1.0000   1.0000   1.0000
     1.0000   1.0000   1.0000   1.0000   1.0000   1.0000   1.0000   1.0000
     1.0000   1.0000   1.0000   1.0000   1.0000   1.0000   1.0000   1.0000
     1.0000   1.0000   1.0000   1.0000   1.0000   1.0000   1.0000   1.0000
     1.0000   1.0000   1.0000   1.0000   1.0000   1.0000   1.0000   1.0000
     1.0000   1.0000   1.0000   1.0000   1.0000   1.0000   1.0000   1.0000
     1.0000   1.0000   1.0000   1.0000   1.0000   1.0000   1.0000   1.0000
     1.0000   1.0000   1.0000   1.0000   1.0000   1.0000   1.0000   1.0000

          k =-0.0192 0.0115 0.0133 ( 95460 PWs)   bands (ev):

   -23.7609 -23.7360 -23.7259 -23.7128 -23.4346 -23.4248 -23.4168 -23.4154
   -18.9866 -18.9809 -18.9753 -18.9647 -18.6509 -18.6506 -18.6391 -18.6390
   -18.0879 -18.0472 -17.0611 -16.9844 -16.9134 -16.9111 -15.8955 -15.8740
   -11.9778 -11.9317 -11.9113 -11.8155 -11.7590 -11.6653 -11.6023 -11.5840
    -8.7595  -8.6620  -8.1075  -8.0779  -7.4191  -7.3902  -7.3177  -7.2249
    -6.6874  -6.6717  -6.4607  -6.3617  -6.3560  -6.3066  -6.2167  -6.1423
    -6.0377  -5.9824  -5.8459  -5.7906  -5.7108  -5.6685  -5.5779  -5.5406
    -5.5073  -5.4586  -5.3743  -5.3664  -4.9767  -4.9297  -4.7793  -4.7539
    -4.3069  -4.2872  -4.2544  -4.2333  -4.0789  -3.9659  -3.7406  -3.6753
    -3.5780  -3.4262  -3.3623  -3.3020  -3.0389  -2.9824  -2.8895  -2.8865
    -0.6141  -0.5945  -0.1777  -0.1678  -0.0830  -0.0516   0.0124   0.0379
     0.0515   0.0918   0.1992   0.2646   0.3187   0.4064   0.4495   0.5208
     0.6815   0.7206   0.7604   0.8390   0.9007   0.9576   1.0182   1.0347
     1.0670   1.1385   1.2226   1.2854   1.3204   1.4536   1.4750   1.5095

     occupation numbers 
     1.0000   1.0000   1.0000   1.0000   1.0000   1.0000   1.0000   1.0000
     1.0000   1.0000   1.0000   1.0000   1.0000   1.0000   1.0000   1.0000
     1.0000   1.0000   1.0000   1.0000   1.0000   1.0000   1.0000   1.0000
     1.0000   1.0000   1.0000   1.0000   1.0000   1.0000   1.0000   1.0000
     1.0000   1.0000   1.0000   1.0000   1.0000   1.0000   1.0000   1.0000
     1.0000   1.0000   1.0000   1.0000   1.0000   1.0000   1.0000   1.0000
     1.0000   1.0000   1.0000   1.0000   1.0000   1.0000   1.0000   1.0000
     1.0000   1.0000   1.0000   1.0000   1.0000   1.0000   1.0000   1.0000
     1.0000   1.0000   1.0000   1.0000   1.0000   1.0000   1.0000   1.0000
     1.0000   1.0000   1.0000   1.0000   1.0000   1.0000   1.0000   1.0000
     1.0000   1.0000   1.0000   1.0000   1.0000   1.0000   1.0000   1.0000
     1.0000   1.0000   1.0000   1.0000   1.0000   1.0000   1.0000   1.0000
     1.0000   1.0000   1.0000   1.0000   1.0000   1.0000   1.0000   1.0000
     1.0000   1.0000   1.0000   1.0000   1.0000   1.0000   1.0000   1.0000

          k =-0.0192 0.0346-0.0216 ( 95462 PWs)   bands (ev):

   -23.7546 -23.7452 -23.7198 -23.7164 -23.4285 -23.4232 -23.4200 -23.4196
   -18.9877 -18.9861 -18.9691 -18.9643 -18.6476 -18.6473 -18.6427 -18.6422
   -18.0747 -18.0626 -17.0347 -17.0115 -16.9093 -16.9076 -15.8912 -15.8857
   -11.9385 -11.9283 -11.9060 -11.8717 -11.7188 -11.6907 -11.5970 -11.5880
    -8.7372  -8.7198  -8.1040  -8.0870  -7.4032  -7.3820  -7.2723  -7.2707
    -6.6969  -6.6481  -6.4112  -6.3625  -6.3520  -6.3190  -6.1885  -6.1581
    -5.9992  -5.9772  -5.8393  -5.8040  -5.7470  -5.6959  -5.6123  -5.5945
    -5.4544  -5.4387  -5.3825  -5.3570  -4.9625  -4.8896  -4.8443  -4.8134
    -4.3158  -4.3050  -4.2259  -4.2063  -4.0432  -3.9916  -3.7237  -3.7159
    -3.5111  -3.4503  -3.3388  -3.3174  -3.0220  -3.0063  -2.8887  -2.8806
    -0.6619  -0.6595  -0.1799  -0.1673  -0.0981  -0.0634   0.0082   0.0142
     0.1508   0.1612   0.3290   0.3400   0.3766   0.3845   0.5193   0.5314
     0.5402   0.5798   0.7646   0.7973   0.8860   0.9095   1.0270   1.0494
     1.0815   1.1296   1.2247   1.2475   1.3744   1.4349   1.4982   1.5052

     occupation numbers 
     1.0000   1.0000   1.0000   1.0000   1.0000   1.0000   1.0000   1.0000
     1.0000   1.0000   1.0000   1.0000   1.0000   1.0000   1.0000   1.0000
     1.0000   1.0000   1.0000   1.0000   1.0000   1.0000   1.0000   1.0000
     1.0000   1.0000   1.0000   1.0000   1.0000   1.0000   1.0000   1.0000
     1.0000   1.0000   1.0000   1.0000   1.0000   1.0000   1.0000   1.0000
     1.0000   1.0000   1.0000   1.0000   1.0000   1.0000   1.0000   1.0000
     1.0000   1.0000   1.0000   1.0000   1.0000   1.0000   1.0000   1.0000
     1.0000   1.0000   1.0000   1.0000   1.0000   1.0000   1.0000   1.0000
     1.0000   1.0000   1.0000   1.0000   1.0000   1.0000   1.0000   1.0000
     1.0000   1.0000   1.0000   1.0000   1.0000   1.0000   1.0000   1.0000
     1.0000   1.0000   1.0000   1.0000   1.0000   1.0000   1.0000   1.0000
     1.0000   1.0000   1.0000   1.0000   1.0000   1.0000   1.0000   1.0000
     1.0000   1.0000   1.0000   1.0000   1.0000   1.0000   1.0000   1.0000
     1.0000   1.0000   1.0000   1.0000   1.0000   1.0000   1.0000   1.0000

          k =-0.0192 0.0346-0.0566 ( 95577 PWs)   bands (ev):

   -23.7485 -23.7442 -23.7213 -23.7207 -23.4309 -23.4293 -23.4172 -23.4154
   -18.9863 -18.9848 -18.9708 -18.9671 -18.6541 -18.6537 -18.6369 -18.6361
   -18.0696 -18.0692 -17.0238 -17.0227 -16.9046 -16.9033 -15.8899 -15.8888
   -11.9309 -11.9260 -11.8937 -11.8822 -11.7071 -11.7000 -11.6107 -11.6056
    -8.7175  -8.7012  -8.0898  -8.0780  -7.4056  -7.3825  -7.2342  -7.1989
    -6.7495  -6.7015  -6.4321  -6.4143  -6.3495  -6.3034  -6.2499  -6.2264
    -5.9960  -5.9587  -5.8229  -5.7625  -5.7162  -5.6819  -5.6516  -5.6310
    -5.5375  -5.4978  -5.3345  -5.3081  -4.9458  -4.8919  -4.8382  -4.7960
    -4.2355  -4.2189  -4.1930  -4.1584  -3.9865  -3.9728  -3.8435  -3.8418
    -3.5020  -3.4757  -3.2874  -3.2821  -3.0521  -3.0470  -2.8791  -2.8653
    -0.6186  -0.6053  -0.1926  -0.1808  -0.1075  -0.0805  -0.0206  -0.0053
     0.0790   0.0965   0.2604   0.2816   0.3737   0.4037   0.4679   0.4823
     0.6910   0.7178   0.7969   0.8158   0.9158   0.9312   0.9693   1.0052
     1.1141   1.1383   1.2507   1.2588   1.3749   1.4075   1.4976   1.5084

     occupation numbers 
     1.0000   1.0000   1.0000   1.0000   1.0000   1.0000   1.0000   1.0000
     1.0000   1.0000   1.0000   1.0000   1.0000   1.0000   1.0000   1.0000
     1.0000   1.0000   1.0000   1.0000   1.0000   1.0000   1.0000   1.0000
     1.0000   1.0000   1.0000   1.0000   1.0000   1.0000   1.0000   1.0000
     1.0000   1.0000   1.0000   1.0000   1.0000   1.0000   1.0000   1.0000
     1.0000   1.0000   1.0000   1.0000   1.0000   1.0000   1.0000   1.0000
     1.0000   1.0000   1.0000   1.0000   1.0000   1.0000   1.0000   1.0000
     1.0000   1.0000   1.0000   1.0000   1.0000   1.0000   1.0000   1.0000
     1.0000   1.0000   1.0000   1.0000   1.0000   1.0000   1.0000   1.0000
     1.0000   1.0000   1.0000   1.0000   1.0000   1.0000   1.0000   1.0000
     1.0000   1.0000   1.0000   1.0000   1.0000   1.0000   1.0000   1.0000
     1.0000   1.0000   1.0000   1.0000   1.0000   1.0000   1.0000   1.0000
     1.0000   1.0000   1.0000   1.0000   1.0000   1.0000   1.0000   1.0000
     1.0000   1.0000   1.0000   1.0000   1.0000   1.0000   1.0000   1.0000

          k =-0.0192 0.0346 0.0483 ( 95548 PWs)   bands (ev):

   -23.7495 -23.7447 -23.7222 -23.7182 -23.4327 -23.4312 -23.4147 -23.4140
   -18.9842 -18.9837 -18.9707 -18.9705 -18.6554 -18.6552 -18.6354 -18.6347
   -18.0746 -18.0631 -17.0334 -17.0119 -16.9080 -16.9075 -15.8890 -15.8819
   -11.9519 -11.9375 -11.8974 -11.8697 -11.7090 -11.6820 -11.6102 -11.6064
    -8.7122  -8.6750  -8.0839  -8.0815  -7.4087  -7.4026  -7.2381  -7.1851
    -6.7455  -6.6943  -6.4582  -6.4252  -6.3460  -6.3278  -6.2823  -6.2630
    -5.9719  -5.9529  -5.8399  -5.8040  -5.6754  -5.6545  -5.6266  -5.5979
    -5.5388  -5.4981  -5.3214  -5.2887  -4.9805  -4.9248  -4.7981  -4.7626
    -4.2804  -4.2487  -4.1437  -4.1168  -4.0200  -4.0078  -3.8355  -3.8081
    -3.5017  -3.4803  -3.3187  -3.2812  -3.0508  -3.0370  -2.8805  -2.8743
    -0.5402  -0.5156  -0.1912  -0.1854  -0.1318  -0.1123  -0.0675  -0.0468
     0.0225   0.0357   0.2308   0.2658   0.3915   0.4099   0.4433   0.4731
     0.7349   0.7705   0.8455   0.8598   0.8795   0.9259   0.9929   1.0035
     1.1234   1.1406   1.2712   1.2943   1.3600   1.3739   1.4868   1.4970

     occupation numbers 
     1.0000   1.0000   1.0000   1.0000   1.0000   1.0000   1.0000   1.0000
     1.0000   1.0000   1.0000   1.0000   1.0000   1.0000   1.0000   1.0000
     1.0000   1.0000   1.0000   1.0000   1.0000   1.0000   1.0000   1.0000
     1.0000   1.0000   1.0000   1.0000   1.0000   1.0000   1.0000   1.0000
     1.0000   1.0000   1.0000   1.0000   1.0000   1.0000   1.0000   1.0000
     1.0000   1.0000   1.0000   1.0000   1.0000   1.0000   1.0000   1.0000
     1.0000   1.0000   1.0000   1.0000   1.0000   1.0000   1.0000   1.0000
     1.0000   1.0000   1.0000   1.0000   1.0000   1.0000   1.0000   1.0000
     1.0000   1.0000   1.0000   1.0000   1.0000   1.0000   1.0000   1.0000
     1.0000   1.0000   1.0000   1.0000   1.0000   1.0000   1.0000   1.0000
     1.0000   1.0000   1.0000   1.0000   1.0000   1.0000   1.0000   1.0000
     1.0000   1.0000   1.0000   1.0000   1.0000   1.0000   1.0000   1.0000
     1.0000   1.0000   1.0000   1.0000   1.0000   1.0000   1.0000   1.0000
     1.0000   1.0000   1.0000   1.0000   1.0000   1.0000   1.0000   1.0000

          k =-0.0192 0.0346 0.0133 ( 95461 PWs)   bands (ev):

   -23.7552 -23.7459 -23.7197 -23.7152 -23.4312 -23.4270 -23.4168 -23.4163
   -18.9864 -18.9848 -18.9700 -18.9663 -18.6508 -18.6507 -18.6391 -18.6390
   -18.0765 -18.0597 -17.0383 -17.0065 -16.9128 -16.9118 -15.8890 -15.8801
   -11.9604 -11.9413 -11.8990 -11.8666 -11.7134 -11.6815 -11.5961 -11.5886
    -8.7329  -8.6926  -8.1007  -8.0885  -7.4119  -7.3984  -7.2861  -7.2494
    -6.6603  -6.6417  -6.4569  -6.4011  -6.3475  -6.3235  -6.2425  -6.2068
    -5.9725  -5.9464  -5.8529  -5.8235  -5.7006  -5.6771  -5.5856  -5.5822
    -5.4548  -5.4398  -5.3645  -5.3541  -4.9735  -4.9383  -4.7979  -4.7761
    -4.3209  -4.3142  -4.2271  -4.2051  -4.0576  -4.0022  -3.7189  -3.6920
    -3.5214  -3.4571  -3.3487  -3.3227  -3.0258  -3.0026  -2.8881  -2.8870
    -0.6046  -0.5964  -0.1699  -0.1569  -0.0994  -0.0654   0.0031   0.0135
     0.0521   0.0735   0.2334   0.2641   0.3471   0.3869   0.4891   0.5202
     0.6970   0.7302   0.7549   0.8137   0.8727   0.9126   1.0396   1.0443
     1.0936   1.1219   1.2532   1.2774   1.3535   1.4126   1.4856   1.4954

     occupation numbers 
     1.0000   1.0000   1.0000   1.0000   1.0000   1.0000   1.0000   1.0000
     1.0000   1.0000   1.0000   1.0000   1.0000   1.0000   1.0000   1.0000
     1.0000   1.0000   1.0000   1.0000   1.0000   1.0000   1.0000   1.0000
     1.0000   1.0000   1.0000   1.0000   1.0000   1.0000   1.0000   1.0000
     1.0000   1.0000   1.0000   1.0000   1.0000   1.0000   1.0000   1.0000
[...]
     atom   38 type  4   force =    -1.05206225   -6.59145929    9.03318353
     atom   39 type  1   force =     2.24186424    2.41528271    1.90344442
     atom   40 type  1   force =    -0.20075674    1.51010538    0.06810011
     atom   41 type  4   force =     9.74305896    3.64157241   -4.38378009
     atom   42 type  1   force =    -2.84641744    0.58944856   -1.87239553
     atom   43 type  3   force =     0.16041234   -1.78031802   -2.29031054
     atom   44 type  3   force =    -2.31389039    0.92567091   -1.42325269
     atom   45 type  2   force =    -2.53227740   -0.78529588   -4.19630612
     atom   46 type  4   force =    -8.71830163   -4.55490462   -1.59503099
     atom   47 type  3   force =    -1.14340782   -2.46619827    0.55579282
     atom   48 type  3   force =    -2.00110507    0.08530132   -1.75055555
     atom   49 type  2   force =    -3.57556513   -2.87357999   -1.08638798
     atom   50 type  4   force =    -1.48656024   -4.99266265    9.73079323
     atom   51 type  1   force =    -0.32580056   -0.12730373    1.06560204
     atom   52 type  4   force =    -1.05208393    6.59147990    9.03313024
     atom   53 type  1   force =     2.24184127   -2.41520753    1.90340340
     atom   54 type  1   force =    -0.20074020   -1.51011060    0.06809157
     atom   55 type  4   force =     9.74316650   -3.64158462   -4.38384798
     atom   56 type  1   force =    -2.84640883   -0.58945065   -1.87245347
     The core correction contribution to forces
     atom    1 type  1   force =    -0.00311584   -0.00639852   -0.00190383
     atom    2 type  4   force =     0.01876998    0.00357925   -0.01194530
     atom    3 type  1   force =     0.00036577    0.00161690   -0.00001436
     atom    4 type  1   force =     0.00934402    0.00657097    0.00176945
     atom    5 type  4   force =    -0.00131707   -0.01428908    0.01745323
     atom    6 type  1   force =    -0.00108991   -0.00159163   -0.00025876
     atom    7 type  4   force =    -0.00404835    0.00891885    0.02027557
     atom    8 type  2   force =    -0.01350070    0.00957600   -0.00483413
     atom    9 type  3   force =     0.00000000    0.00000000    0.00000000
     atom   10 type  3   force =     0.00000000    0.00000000    0.00000000
     atom   11 type  4   force =    -0.01773854    0.01146832   -0.00673384
     atom   12 type  2   force =    -0.00913263    0.00386582   -0.01575915
     atom   13 type  3   force =     0.00000000    0.00000000    0.00000000
     atom   14 type  3   force =     0.00000000    0.00000000    0.00000000
     atom   15 type  3   force =     0.00000000    0.00000000    0.00000000
     atom   16 type  3   force =     0.00000000    0.00000000    0.00000000
     atom   17 type  2   force =    -0.00913274   -0.00386694   -0.01575943
     atom   18 type  4   force =    -0.01773860   -0.01146828   -0.00673396
     atom   19 type  3   force =     0.00000000    0.00000000    0.00000000
     atom   20 type  3   force =     0.00000000    0.00000000    0.00000000
     atom   21 type  2   force =    -0.01350061   -0.00957419   -0.00483448
     atom   22 type  4   force =    -0.00404805   -0.00891859    0.02027474
     atom   23 type  1   force =    -0.00108989    0.00159135   -0.00025890
     atom   24 type  4   force =    -0.00131732    0.01428890    0.01745296
     atom   25 type  1   force =     0.00934379   -0.00657104    0.00176969
     atom   26 type  1   force =     0.00036972   -0.00161552   -0.00002058
     atom   27 type  4   force =     0.01877050   -0.00357922   -0.01194579
     atom   28 type  1   force =    -0.00311565    0.00639881   -0.00190426
     atom   29 type  3   force =     0.00000000    0.00000000    0.00000000
     atom   30 type  3   force =     0.00000000    0.00000000    0.00000000
     atom   31 type  2   force =     0.00913263   -0.00386582    0.01575915
     atom   32 type  4   force =     0.01773854   -0.01146832    0.00673384
     atom   33 type  3   force =     0.00000000    0.00000000    0.00000000
     atom   34 type  3   force =     0.00000000    0.00000000    0.00000000
     atom   35 type  2   force =     0.01350070   -0.00957600    0.00483413
     atom   36 type  4   force =     0.00404835   -0.00891885   -0.02027557
     atom   37 type  1   force =     0.00108991    0.00159163    0.00025876
     atom   38 type  4   force =     0.00131707    0.01428908   -0.01745323
     atom   39 type  1   force =    -0.00934402   -0.00657097   -0.00176945
     atom   40 type  1   force =    -0.00036577   -0.00161690    0.00001436
     atom   41 type  4   force =    -0.01876998   -0.00357925    0.01194530
     atom   42 type  1   force =     0.00311584    0.00639852    0.00190383
     atom   43 type  3   force =     0.00000000    0.00000000    0.00000000
     atom   44 type  3   force =     0.00000000    0.00000000    0.00000000
     atom   45 type  2   force =     0.00913274    0.00386694    0.01575943
     atom   46 type  4   force =     0.01773860    0.01146828    0.00673396
     atom   47 type  3   force =     0.00000000    0.00000000    0.00000000
     atom   48 type  3   force =     0.00000000    0.00000000    0.00000000
     atom   49 type  2   force =     0.01350061    0.00957419    0.00483448
     atom   50 type  4   force =     0.00404805    0.00891859   -0.02027474
     atom   51 type  1   force =     0.00108989   -0.00159135    0.00025890
     atom   52 type  4   force =     0.00131732   -0.01428890   -0.01745296
     atom   53 type  1   force =    -0.00934379    0.00657104   -0.00176969
     atom   54 type  1   force =    -0.00036972    0.00161552    0.00002058
     atom   55 type  4   force =    -0.01877050    0.00357922    0.01194579
     atom   56 type  1   force =     0.00311565   -0.00639881    0.00190426
     The Hubbard contrib.    to forces
     atom    1 type  1   force =     0.00000000    0.00000000    0.00000000
     atom    2 type  4   force =     0.00000000    0.00000000    0.00000000
     atom    3 type  1   force =     0.00000000    0.00000000    0.00000000
     atom    4 type  1   force =     0.00000000    0.00000000    0.00000000
     atom    5 type  4   force =     0.00000000    0.00000000    0.00000000
     atom    6 type  1   force =     0.00000000    0.00000000    0.00000000
     atom    7 type  4   force =     0.00000000    0.00000000    0.00000000
     atom    8 type  2   force =     0.00000000    0.00000000    0.00000000
     atom    9 type  3   force =     0.00000000    0.00000000    0.00000000
     atom   10 type  3   force =     0.00000000    0.00000000    0.00000000
     atom   11 type  4   force =     0.00000000    0.00000000    0.00000000
     atom   12 type  2   force =     0.00000000    0.00000000    0.00000000
     atom   13 type  3   force =     0.00000000    0.00000000    0.00000000
     atom   14 type  3   force =     0.00000000    0.00000000    0.00000000
     atom   15 type  3   force =     0.00000000    0.00000000    0.00000000
     atom   16 type  3   force =     0.00000000    0.00000000    0.00000000
     atom   17 type  2   force =     0.00000000    0.00000000    0.00000000
     atom   18 type  4   force =     0.00000000    0.00000000    0.00000000
     atom   19 type  3   force =     0.00000000    0.00000000    0.00000000
     atom   20 type  3   force =     0.00000000    0.00000000    0.00000000
     atom   21 type  2   force =     0.00000000    0.00000000    0.00000000
     atom   22 type  4   force =     0.00000000    0.00000000    0.00000000
     atom   23 type  1   force =     0.00000000    0.00000000    0.00000000
     atom   24 type  4   force =     0.00000000    0.00000000    0.00000000
     atom   25 type  1   force =     0.00000000    0.00000000    0.00000000
     atom   26 type  1   force =     0.00000000    0.00000000    0.00000000
     atom   27 type  4   force =     0.00000000    0.00000000    0.00000000
     atom   28 type  1   force =     0.00000000    0.00000000    0.00000000
     atom   29 type  3   force =     0.00000000    0.00000000    0.00000000
     atom   30 type  3   force =     0.00000000    0.00000000    0.00000000
     atom   31 type  2   force =     0.00000000    0.00000000    0.00000000
     atom   32 type  4   force =     0.00000000    0.00000000    0.00000000
     atom   33 type  3   force =     0.00000000    0.00000000    0.00000000
     atom   34 type  3   force =     0.00000000    0.00000000    0.00000000
     atom   35 type  2   force =     0.00000000    0.00000000    0.00000000
     atom   36 type  4   force =     0.00000000    0.00000000    0.00000000
     atom   37 type  1   force =     0.00000000    0.00000000    0.00000000
     atom   38 type  4   force =     0.00000000    0.00000000    0.00000000
     atom   39 type  1   force =     0.00000000    0.00000000    0.00000000
     atom   40 type  1   force =     0.00000000    0.00000000    0.00000000
     atom   41 type  4   force =     0.00000000    0.00000000    0.00000000
     atom   42 type  1   force =     0.00000000    0.00000000    0.00000000
     atom   43 type  3   force =     0.00000000    0.00000000    0.00000000
     atom   44 type  3   force =     0.00000000    0.00000000    0.00000000
     atom   45 type  2   force =     0.00000000    0.00000000    0.00000000
     atom   46 type  4   force =     0.00000000    0.00000000    0.00000000
     atom   47 type  3   force =     0.00000000    0.00000000    0.00000000
     atom   48 type  3   force =     0.00000000    0.00000000    0.00000000
     atom   49 type  2   force =     0.00000000    0.00000000    0.00000000
     atom   50 type  4   force =     0.00000000    0.00000000    0.00000000
     atom   51 type  1   force =     0.00000000    0.00000000    0.00000000
     atom   52 type  4   force =     0.00000000    0.00000000    0.00000000
     atom   53 type  1   force =     0.00000000    0.00000000    0.00000000
     atom   54 type  1   force =     0.00000000    0.00000000    0.00000000
     atom   55 type  4   force =     0.00000000    0.00000000    0.00000000
     atom   56 type  1   force =     0.00000000    0.00000000    0.00000000
     The SCF correction term to forces
     atom    1 type  1   force =     0.00001385   -0.00002489    0.00001132
     atom    2 type  4   force =     0.00003593   -0.00000135   -0.00001561
     atom    3 type  1   force =     0.00007954   -0.00001068   -0.00006105
     atom    4 type  1   force =    -0.00005947    0.00002985    0.00000534
     atom    5 type  4   force =     0.00003646    0.00009723   -0.00009434
     atom    6 type  1   force =    -0.00002658    0.00013792   -0.00011830
     atom    7 type  4   force =    -0.00000495    0.00000854    0.00002808
     atom    8 type  2   force =    -0.00002587   -0.00002250    0.00004975
     atom    9 type  3   force =    -0.00000718   -0.00000949    0.00001159
     atom   10 type  3   force =    -0.00000720   -0.00000690    0.00001756
     atom   11 type  4   force =     0.00005306    0.00004062   -0.00002922
     atom   12 type  2   force =     0.00002874   -0.00001404    0.00000392
     atom   13 type  3   force =     0.00000332   -0.00000385    0.00000404
     atom   14 type  3   force =     0.00000236    0.00000436   -0.00000271
     atom   15 type  3   force =     0.00000328   -0.00000559    0.00000900
     atom   16 type  3   force =    -0.00000124   -0.00000513    0.00000710
     atom   17 type  2   force =     0.00003101   -0.00001456    0.00001587
     atom   18 type  4   force =     0.00003606    0.00001390   -0.00007301
     atom   19 type  3   force =    -0.00001804    0.00001148   -0.00000004
     atom   20 type  3   force =    -0.00001574    0.00000820    0.00000264
     atom   21 type  2   force =    -0.00006187    0.00004386    0.00000000
     atom   22 type  4   force =     0.00005941    0.00004169   -0.00009483
     atom   23 type  1   force =    -0.00006317   -0.00009057   -0.00016162
     atom   24 type  4   force =     0.00000042   -0.00008014   -0.00015591
     atom   25 type  1   force =    -0.00008618    0.00003406   -0.00002323
     atom   26 type  1   force =     0.00021991    0.00004569   -0.00025609
     atom   27 type  4   force =     0.00014195    0.00000082   -0.00009401
     atom   28 type  1   force =     0.00002842    0.00002653   -0.00004760
     atom   29 type  3   force =    -0.00000236   -0.00000436    0.00000271
     atom   30 type  3   force =    -0.00000332    0.00000385   -0.00000404
     atom   31 type  2   force =    -0.00002874    0.00001404   -0.00000392
     atom   32 type  4   force =    -0.00005306   -0.00004062    0.00002922
     atom   33 type  3   force =     0.00000720    0.00000690   -0.00001756
     atom   34 type  3   force =     0.00000718    0.00000949   -0.00001159
     atom   35 type  2   force =     0.00002587    0.00002250   -0.00004975
     atom   36 type  4   force =     0.00000495   -0.00000854   -0.00002808
     atom   37 type  1   force =     0.00002658   -0.00013792    0.00011830
     atom   38 type  4   force =    -0.00003646   -0.00009723    0.00009434
     atom   39 type  1   force =     0.00005947   -0.00002985   -0.00000534
     atom   40 type  1   force =    -0.00007954    0.00001068    0.00006105
     atom   41 type  4   force =    -0.00003593    0.00000135    0.00001561
     atom   42 type  1   force =    -0.00001385    0.00002489   -0.00001132
     atom   43 type  3   force =    -0.00000328    0.00000559   -0.00000900
     atom   44 type  3   force =     0.00000124    0.00000513   -0.00000710
     atom   45 type  2   force =    -0.00003101    0.00001456   -0.00001587
     atom   46 type  4   force =    -0.00003606   -0.00001390    0.00007301
     atom   47 type  3   force =     0.00001804   -0.00001148    0.00000004
     atom   48 type  3   force =     0.00001574   -0.00000820   -0.00000264
     atom   49 type  2   force =     0.00006187   -0.00004386   -0.00000000
     atom   50 type  4   force =    -0.00005941   -0.00004169    0.00009483
     atom   51 type  1   force =     0.00006317    0.00009057    0.00016162
     atom   52 type  4   force =    -0.00000042    0.00008014    0.00015591
     atom   53 type  1   force =     0.00008618   -0.00003406    0.00002323
     atom   54 type  1   force =    -0.00021991   -0.00004569    0.00025609
     atom   55 type  4   force =    -0.00014195   -0.00000082    0.00009401
     atom   56 type  1   force =    -0.00002842   -0.00002653    0.00004760

     Total force =     1.056585     Total SCF correction =     0.000823


     entering subroutine stress ...

          total   stress  (Ry/bohr**3)                   (kbar)     P=  132.37
   0.00091351  -0.00000003   0.00011254        134.38     -0.00     16.56
  -0.00000003   0.00092472   0.00000008         -0.00    136.03      0.01
   0.00011254   0.00000008   0.00086121         16.56      0.01    126.69

     kinetic stress (kbar)  15403.95      0.00    328.34
                                0.00  15846.53     -0.00
                              328.34     -0.00  15374.22

     local   stress (kbar) -15691.67     -0.01   7791.71
                               -0.01  -8644.86      0.03
                             7791.71      0.03 -11816.35

     nonloc. stress (kbar)   1047.85     -0.00     10.91
                               -0.00   1057.97      0.00
                               10.91      0.00   1017.30

     hartree stress (kbar)   7058.90      0.00  -2845.03
                                0.00   5012.94     -0.02
                            -2845.03     -0.02   5593.16

     exc-cor stress (kbar)  -2223.26      0.00    -10.80
                                0.00  -2244.30     -0.00
                              -10.80     -0.00  -2229.27

     corecor stress (kbar)  -1155.87     -0.00     -2.75
                               -0.00  -1157.97      0.00
                               -2.75      0.00  -1155.49

     ewald   stress (kbar)  -4305.52      0.00  -5255.83
                                0.00  -9734.27     -0.00
                            -5255.83     -0.00  -6656.90

     hubbard stress (kbar)      0.00      0.00      0.00
                                0.00      0.00      0.00
                                0.00      0.00      0.00

     london  stress (kbar)      0.00      0.00      0.00
                                0.00      0.00      0.00
                                0.00      0.00      0.00

     XDM     stress (kbar)      0.00      0.00      0.00
                                0.00      0.00      0.00
                                0.00      0.00      0.00

     dft-nl  stress (kbar)      0.00      0.00      0.00
                                0.00      0.00      0.00
                                0.00      0.00      0.00

     TS-vdW  stress (kbar)      0.00      0.00      0.00
                                0.00      0.00      0.00
                                0.00      0.00      0.00



     Writing output data file scf.pbe.ec-140.kp-444.HMX-792934.np-8.default-conv-thr.save

     init_run     :   1010.25s CPU   1073.79s WALL (       1 calls)
     electrons    :  33698.03s CPU  37300.57s WALL (       1 calls)
     forces       :    433.67s CPU    581.53s WALL (       1 calls)
     stress       :   1702.86s CPU   1770.04s WALL (       1 calls)

     Called by init_run:
     wfcinit      :    824.54s CPU    878.74s WALL (       1 calls)
     potinit      :     61.90s CPU     64.19s WALL (       1 calls)

     Called by electrons:
     c_bands      :  29214.29s CPU  31824.22s WALL (      16 calls)
     sum_band     :   4185.18s CPU   4957.38s WALL (      16 calls)
     v_of_rho     :     68.93s CPU     80.29s WALL (      17 calls)
     v_h          :      7.20s CPU      8.23s WALL (      17 calls)
     v_xc         :     69.15s CPU     81.88s WALL (      19 calls)
     newd         :    208.50s CPU    385.55s WALL (      17 calls)
     PAW_pot      :     12.64s CPU     16.57s WALL (      17 calls)
     mix_rho      :     15.72s CPU     25.23s WALL (      16 calls)

     Called by c_bands:
     init_us_2    :    165.27s CPU    177.44s WALL (    1120 calls)
     cegterg      :  28937.46s CPU  31454.90s WALL (     512 calls)

     Called by sum_band:
     sum_band:bec :      0.51s CPU      0.59s WALL (     512 calls)
     addusdens    :    328.38s CPU    909.93s WALL (      16 calls)

     Called by *egterg:
     h_psi        :  17383.46s CPU  18677.86s WALL (    2747 calls)
     s_psi        :   3274.37s CPU   3480.55s WALL (    2747 calls)
     g_psi        :     24.78s CPU     32.55s WALL (    2203 calls)
     cdiaghg      :    645.62s CPU    675.10s WALL (    2715 calls)
     cegterg:over :   3286.79s CPU   3674.52s WALL (    2203 calls)
     cegterg:upda :   2078.61s CPU   2152.11s WALL (    2203 calls)
     cegterg:last :   1011.66s CPU   1095.24s WALL (     512 calls)

     Called by h_psi:
     h_psi:vloc   :  10868.12s CPU  11584.95s WALL (    2747 calls)
     h_psi:vnl    :   6425.89s CPU   6999.82s WALL (    2747 calls)
     add_vuspsi   :   3287.84s CPU   3535.38s WALL (    2747 calls)

     General routines
     calbec       :   4458.30s CPU   4877.01s WALL (    3419 calls)
     fft          :     92.21s CPU    149.30s WALL (     293 calls)
     ffts         :      1.56s CPU      2.29s WALL (      33 calls)
     fftw         :   6835.97s CPU   7623.65s WALL (  402988 calls)
     interpolate  :     12.01s CPU     16.48s WALL (      33 calls)
     davcio       :      2.30s CPU    131.19s WALL (      32 calls)

     Parallel routines
     fft_scatter  :   2708.91s CPU   3518.08s WALL (  403314 calls)

     PAW routines
     PAW_pot      :     12.64s CPU     16.57s WALL (      17 calls)
     PAW_symme    :      0.06s CPU      0.24s WALL (      33 calls)

     PWSCF        :    10h14m CPU       11h21m WALL


   This run was terminated on:  18:23:29  26May2016            

=------------------------------------------------------------------------------=
   JOB DONE.
=------------------------------------------------------------------------------=
