
     Program PWSCF v.5.3.0 (svn rev. 11974) starts on 21Jul2016 at 20:51:41 

     This program is part of the open-source Quantum ESPRESSO suite
     for quantum simulation of materials; please cite
         "P. Giannozzi et al., J. Phys.:Condens. Matter 21 395502 (2009);
          URL http://www.quantum-espresso.org", 
     in publications or presentations arising from this work. More details at
     http://www.quantum-espresso.org/quote

     Parallel version (MPI), running on    32 processors
     R & G space division:  proc/nbgrp/npool/nimage =      32
     Waiting for input...
     Reading input from standard input
Warning: card     &CELL ignored
Warning: card CELL_DYNAMICS='BFGS' ignored
Warning: card / ignored

     Current dimensions of program PWSCF are:
     Max number of different atomic species (ntypx) = 10
     Max number of k-points (npk) =  40000
     Max angular momentum in pseudopotentials (lmaxx) =  3
               file N.pbe-n-kjpaw_psl.1.0.0.UPF: wavefunction(s)  2S renormalized
               file C.pbe-n-kjpaw_psl.1.0.0.UPF: wavefunction(s)  2S 2P renormalized
               file H.pbe-kjpaw_psl.1.0.0.UPF: wavefunction(s)  1S renormalized
               file O.pbe-n-kjpaw_psl.1.0.0.UPF: wavefunction(s)  2S 2P renormalized

     Subspace diagonalization in iterative solution of the eigenvalue problem:
     a serial algorithm will be used


     Parallelization info
     --------------------
     sticks:   dense  smooth     PW     G-vecs:    dense   smooth      PW
     Min         502     201     53                40771    10297    1420
     Max         503     202     54                40776    10339    1423
     Sum       16095    6435   1721              1304783   330093   45497


     Title: 
     HMX-relax--kp-4x2x4-ec-80-default-conv-thr                                 


     bravais-lattice index     =            0
     lattice parameter (alat)  =       1.8897  a.u.
     unit-cell volume          =    3414.4567 (a.u.)^3
     number of atoms/cell      =           56
     number of atomic types    =            4
     number of electrons       =       224.00
     number of Kohn-Sham states=          112
     kinetic-energy cutoff     =      80.0000  Ry
     charge density cutoff     =     800.0000  Ry
     convergence threshold     =      1.0E-06
     mixing beta               =       0.7000
     number of iterations used =            8  plain     mixing
     Exchange-correlation      =  SLA  PW   PBX  PBC ( 1  4  3  4 0 0)
     nstep                     =           50


     celldm(1)=   1.889726  celldm(2)=   0.000000  celldm(3)=   0.000000
     celldm(4)=   0.000000  celldm(5)=   0.000000  celldm(6)=   0.000000

     crystal axes: (cart. coord. in units of alat)
               a(1) = (   6.525000   0.000000   0.000000 )  
               a(2) = (   0.000000  10.840000   0.000000 )  
               a(3) = (  -1.555911   0.000000   7.153446 )  

     reciprocal axes: (cart. coord. in units 2 pi/alat)
               b(1) = (  0.153257 -0.000000  0.033334 )  
               b(2) = (  0.000000  0.092251 -0.000000 )  
               b(3) = (  0.000000  0.000000  0.139793 )  


     PseudoPot. # 1 for  N read from file:
     /users/majewski/.data/PSEUDOPOTENTIALS/N.pbe-n-kjpaw_psl.1.0.0.UPF
     MD5 check sum: c21df8f53e59d08c3548513d559cdda6
     Pseudo is Projector augmented-wave + core cor, Zval =  5.0
     Generated using "atomic" code by A. Dal Corso  v.5.3.0 svn rev. 11974
     Shape of augmentation charge: PSQ
     Using radial grid of 1085 points,  4 beta functions with: 
                l(1) =   0
                l(2) =   0
                l(3) =   1
                l(4) =   1
     Q(r) pseudized with 0 coefficients 


     PseudoPot. # 2 for  C read from file:
     /users/majewski/.data/PSEUDOPOTENTIALS/C.pbe-n-kjpaw_psl.1.0.0.UPF
     MD5 check sum: 2ba8448e293caca687844dde9a1b88a8
     Pseudo is Projector augmented-wave + core cor, Zval =  4.0
     Generated using "atomic" code by A. Dal Corso  v.5.3.0 svn rev. 11974
     Shape of augmentation charge: PSQ
     Using radial grid of 1073 points,  4 beta functions with: 
                l(1) =   0
                l(2) =   0
                l(3) =   1
                l(4) =   1
     Q(r) pseudized with 0 coefficients 


     PseudoPot. # 3 for  H read from file:
     /users/majewski/.data/PSEUDOPOTENTIALS/H.pbe-kjpaw_psl.1.0.0.UPF
     MD5 check sum: bc0feb48a24907a0b97fa6ee2d589a29
     Pseudo is Projector augmented-wave, Zval =  1.0
     Generated using "atomic" code by A. Dal Corso  v.5.3.0 svn rev. 11974
     Shape of augmentation charge: PSQ
     Using radial grid of  929 points,  2 beta functions with: 
                l(1) =   0
                l(2) =   0
     Q(r) pseudized with 0 coefficients 


     PseudoPot. # 4 for  O read from file:
     /users/majewski/.data/PSEUDOPOTENTIALS/O.pbe-n-kjpaw_psl.1.0.0.UPF
     MD5 check sum: 9c0ade6c043cf4a781bde3908a3a8206
     Pseudo is Projector augmented-wave + core cor, Zval =  6.0
     Generated using "atomic" code by A. Dal Corso  v.5.3.0 svn rev. 11974
     Shape of augmentation charge: PSQ
     Using radial grid of 1095 points,  4 beta functions with: 
                l(1) =   0
                l(2) =   0
                l(3) =   1
                l(4) =   1
     Q(r) pseudized with 0 coefficients 


     atomic species   valence    mass     pseudopotential
        N              5.00    14.00670      N( 1.00)
        C              4.00    12.01100      C( 1.00)
        H              1.00     1.00790      H( 1.00)
        O              6.00    15.99940      O( 1.00)

      2 Sym. Ops., with inversion, found
          (note:  2 additional sym.ops. were found but ignored
           their fractional translations are incommensurate with FFT grid)

                                    s                        frac. trans.

      isym =  1     identity                                     

 cryst.   s( 1) = (     1          0          0      )
                  (     0          1          0      )
                  (     0          0          1      )

 cart.    s( 1) = (  1.0000000  0.0000000  0.0000000 )
                  (  0.0000000  1.0000000  0.0000000 )
                  (  0.0000000  0.0000000  1.0000000 )


      isym =  2     inversion                                    

 cryst.   s( 2) = (    -1          0          0      )
                  (     0         -1          0      )
                  (     0          0         -1      )

 cart.    s( 2) = ( -1.0000000  0.0000000  0.0000000 )
                  (  0.0000000 -1.0000000  0.0000000 )
                  (  0.0000000  0.0000000 -1.0000000 )


   Cartesian axes

     site n.     atom                  positions (alat units)
         1           N   tau(   1) = (   5.6886823   6.7601492   3.2843616  )
         2           O   tau(   2) = (   7.6345424   7.8128216   3.1053824  )
         3           N   tau(   3) = (   6.6234393   7.6327692   3.7848167  )
         4           N   tau(   4) = (   4.4891047   5.7135472   5.0604192  )
         5           O   tau(   5) = (   3.2863227   4.6538288   6.6112148  )
         6           N   tau(   6) = (   3.3004890   5.4507856   5.6779047  )
         7           O   tau(   7) = (   6.3913497   8.1227372   4.8818692  )
         8           C   tau(   8) = (   4.4127564   6.6880632   3.9477722  )
         9           H   tau(   9) = (   3.7158703   6.4064400   3.3034613  )
        10           H   tau(  10) = (   4.1672919   7.5804120   4.2999364  )
        11           O   tau(  11) = (   2.3241568   6.0900204   5.2677976  )
        12           C   tau(  12) = (   5.9475335   6.1238412   1.9976713  )
        13           H   tau(  13) = (   5.1187040   5.7029240   1.7196884  )
        14           H   tau(  14) = (   6.2049380   6.7630760   1.3155187  )
        15           H   tau(  15) = (   3.7203935  -1.3430760  -2.2612043  )
        16           H   tau(  16) = (   2.6341595  -0.2829240  -1.8570346  )
        17           C   tau(  17) = (   3.4629891  -0.7038412  -1.5790517  )
        18           O   tau(  18) = (  -0.1603876  -0.6700204   1.6910746  )
        19           H   tau(  19) = (   1.6827474  -2.1604120   0.7232134  )
        20           H   tau(  20) = (   1.2313258  -0.9864400  -0.2732616  )
        21           C   tau(  21) = (   1.9282119  -1.2680632   0.3710492  )
        22           O   tau(  22) = (   3.9068053  -2.7027372   1.3051462  )
        23           N   tau(  23) = (   0.8159445  -0.0307856   2.1011817  )
        24           O   tau(  24) = (   0.8017783   0.7661712   3.0344918  )
        25           N   tau(  25) = (   2.0045602  -0.2935472   1.4836962  )
        26           N   tau(  26) = (   4.1388948  -2.2127692   0.2080937  )
        27           O   tau(  27) = (   5.1499980  -2.3928216  -0.4713406  )
        28           N   tau(  28) = (   3.2041378  -1.3401492  -0.2923613  )
        29           H   tau(  29) = (   5.2891510   4.0769240   5.8379273  )
        30           H   tau(  30) = (   6.3753850   5.1370760   5.4337576  )
        31           C   tau(  31) = (   5.5465554   4.7161588   5.1557746  )
        32           O   tau(  32) = (   9.1699321   4.7499796   1.8856484  )
        33           H   tau(  33) = (   7.3267971   3.2595880   2.8535096  )
        34           H   tau(  34) = (   7.7782187   4.4335600   3.8499846  )
        35           C   tau(  35) = (   7.0813326   4.1519368   3.2056737  )
        36           O   tau(  36) = (   5.1027392   2.7172628   2.2715768  )
        37           N   tau(  37) = (   8.1936000   5.3892144   1.4755413  )
        38           O   tau(  38) = (   8.2077662   6.1861712   0.5422312  )
        39           N   tau(  39) = (   7.0049842   5.1264528   2.0930268  )
        40           N   tau(  40) = (   4.8706497   3.2072308   3.3686292  )
        41           O   tau(  41) = (   3.8595465   3.0271784   4.0480635  )
        42           N   tau(  42) = (   5.8054066   4.0798508   3.8690843  )
        43           H   tau(  43) = (   2.8046065   1.3430760   2.2612043  )
        44           H   tau(  44) = (   3.8908405   0.2829240   1.8570346  )
        45           C   tau(  45) = (   3.0620109   0.7038412   1.5790517  )
        46           O   tau(  46) = (   6.6853876   0.6700204  -1.6910746  )
        47           H   tau(  47) = (   4.8422526   2.1604120  -0.7232134  )
        48           H   tau(  48) = (   5.2936742   0.9864400   0.2732616  )
        49           C   tau(  49) = (   4.5967881   1.2680632  -0.3710492  )
        50           O   tau(  50) = (   2.6181947   2.7027372  -1.3051462  )
        51           N   tau(  51) = (   5.7090555   0.0307856  -2.1011817  )
        52           O   tau(  52) = (   5.7232217  -0.7661712  -3.0344918  )
        53           N   tau(  53) = (   4.5204398   0.2935472  -1.4836962  )
        54           N   tau(  54) = (   2.3861052   2.2127692  -0.2080937  )
        55           O   tau(  55) = (   1.3750020   2.3928216   0.4713406  )
        56           N   tau(  56) = (   3.3208622   1.3401492   0.2923613  )

   Crystallographic axes

     site n.     atom                  positions (cryst. coord.)
         1           N   tau(   1) = (  0.9813100  0.6236300  0.4591300  )
         2           O   tau(   2) = (  1.2735600  0.7207400  0.4341100  )
         3           N   tau(   3) = (  1.1412500  0.7041300  0.5290900  )
         4           N   tau(   4) = (  0.8566700  0.5270800  0.7074100  )
         5           O   tau(   5) = (  0.7240300  0.4293200  0.9242000  )
         6           N   tau(   6) = (  0.6950900  0.5028400  0.7937300  )
         7           O   tau(   7) = (  1.1422500  0.7493300  0.6824500  )
         8           C   tau(   8) = (  0.8078800  0.6169800  0.5518700  )
         9           H   tau(   9) = (  0.6796000  0.5910000  0.4618000  )
        10           H   tau(  10) = (  0.7820000  0.6993000  0.6011000  )
        11           O   tau(  11) = (  0.5317900  0.5618100  0.7364000  )
        12           C   tau(  12) = (  0.9780900  0.5649300  0.2792600  )
        13           H   tau(  13) = (  0.8418000  0.5261000  0.2404000  )
        14           H   tau(  14) = (  0.9948000  0.6239000  0.1839000  )
        15           H   tau(  15) = (  0.4948000 -0.1239000 -0.3161000  )
        16           H   tau(  16) = (  0.3418000 -0.0261000 -0.2596000  )
        17           C   tau(  17) = (  0.4780900 -0.0649300 -0.2207400  )
        18           O   tau(  18) = (  0.0317900 -0.0618100  0.2364000  )
        19           H   tau(  19) = (  0.2820000 -0.1993000  0.1011000  )
        20           H   tau(  20) = (  0.1796000 -0.0910000 -0.0382000  )
        21           C   tau(  21) = (  0.3078800 -0.1169800  0.0518700  )
        22           O   tau(  22) = (  0.6422500 -0.2493300  0.1824500  )
        23           N   tau(  23) = (  0.1950900 -0.0028400  0.2937300  )
        24           O   tau(  24) = (  0.2240300  0.0706800  0.4242000  )
        25           N   tau(  25) = (  0.3566700 -0.0270800  0.2074100  )
        26           N   tau(  26) = (  0.6412500 -0.2041300  0.0290900  )
        27           O   tau(  27) = (  0.7735600 -0.2207400 -0.0658900  )
        28           N   tau(  28) = (  0.4813100 -0.1236300 -0.0408700  )
        29           H   tau(  29) = (  1.0052000  0.3761000  0.8161000  )
        30           H   tau(  30) = (  1.1582000  0.4739000  0.7596000  )
        31           C   tau(  31) = (  1.0219100  0.4350700  0.7207400  )
        32           O   tau(  32) = (  1.4682100  0.4381900  0.2636000  )
        33           H   tau(  33) = (  1.2180000  0.3007000  0.3989000  )
        34           H   tau(  34) = (  1.3204000  0.4090000  0.5382000  )
        35           C   tau(  35) = (  1.1921200  0.3830200  0.4481300  )
        36           O   tau(  36) = (  0.8577500  0.2506700  0.3175500  )
        37           N   tau(  37) = (  1.3049100  0.4971600  0.2062700  )
        38           O   tau(  38) = (  1.2759700  0.5706800  0.0758000  )
        39           N   tau(  39) = (  1.1433300  0.4729200  0.2925900  )
        40           N   tau(  40) = (  0.8587500  0.2958700  0.4709100  )
        41           O   tau(  41) = (  0.7264400  0.2792600  0.5658900  )
        42           N   tau(  42) = (  1.0186900  0.3763700  0.5408700  )
        43           H   tau(  43) = (  0.5052000  0.1239000  0.3161000  )
        44           H   tau(  44) = (  0.6582000  0.0261000  0.2596000  )
        45           C   tau(  45) = (  0.5219100  0.0649300  0.2207400  )
        46           O   tau(  46) = (  0.9682100  0.0618100 -0.2364000  )
        47           H   tau(  47) = (  0.7180000  0.1993000 -0.1011000  )
        48           H   tau(  48) = (  0.8204000  0.0910000  0.0382000  )
        49           C   tau(  49) = (  0.6921200  0.1169800 -0.0518700  )
        50           O   tau(  50) = (  0.3577500  0.2493300 -0.1824500  )
        51           N   tau(  51) = (  0.8049100  0.0028400 -0.2937300  )
        52           O   tau(  52) = (  0.7759700 -0.0706800 -0.4242000  )
        53           N   tau(  53) = (  0.6433300  0.0270800 -0.2074100  )
        54           N   tau(  54) = (  0.3587500  0.2041300 -0.0290900  )
        55           O   tau(  55) = (  0.2264400  0.2207400  0.0658900  )
        56           N   tau(  56) = (  0.5186900  0.1236300  0.0408700  )

     number of k points=    16
                       cart. coord. in units 2pi/alat
        k(    1) = (   0.0191571   0.0230627   0.0216409), wk =   0.1250000
        k(    2) = (   0.0191571   0.0230627   0.0565891), wk =   0.1250000
        k(    3) = (   0.0191571   0.0230627  -0.0482555), wk =   0.1250000
        k(    4) = (   0.0191571   0.0230627  -0.0133073), wk =   0.1250000
        k(    5) = (   0.0574713   0.0230627   0.0299744), wk =   0.1250000
        k(    6) = (   0.0574713   0.0230627   0.0649226), wk =   0.1250000
        k(    7) = (   0.0574713   0.0230627  -0.0399220), wk =   0.1250000
        k(    8) = (   0.0574713   0.0230627  -0.0049738), wk =   0.1250000
        k(    9) = (  -0.0191571   0.0230627  -0.0216409), wk =   0.1250000
        k(   10) = (  -0.0191571   0.0230627  -0.0565891), wk =   0.1250000
        k(   11) = (  -0.0191571   0.0230627   0.0482555), wk =   0.1250000
        k(   12) = (  -0.0191571   0.0230627   0.0133073), wk =   0.1250000
        k(   13) = (  -0.0574713   0.0230627  -0.0299744), wk =   0.1250000
        k(   14) = (  -0.0574713   0.0230627  -0.0649226), wk =   0.1250000
        k(   15) = (  -0.0574713   0.0230627   0.0399220), wk =   0.1250000
        k(   16) = (  -0.0574713   0.0230627   0.0049738), wk =   0.1250000

                       cryst. coord.
        k(    1) = (   0.1250000   0.2500000   0.1250000), wk =   0.1250000
        k(    2) = (   0.1250000   0.2500000   0.3750000), wk =   0.1250000
        k(    3) = (   0.1250000   0.2500000  -0.3750000), wk =   0.1250000
        k(    4) = (   0.1250000   0.2500000  -0.1250000), wk =   0.1250000
        k(    5) = (   0.3750000   0.2500000   0.1250000), wk =   0.1250000
        k(    6) = (   0.3750000   0.2500000   0.3750000), wk =   0.1250000
        k(    7) = (   0.3750000   0.2500000  -0.3750000), wk =   0.1250000
        k(    8) = (   0.3750000   0.2500000  -0.1250000), wk =   0.1250000
        k(    9) = (  -0.1250000   0.2500000  -0.1250000), wk =   0.1250000
        k(   10) = (  -0.1250000   0.2500000  -0.3750000), wk =   0.1250000
        k(   11) = (  -0.1250000   0.2500000   0.3750000), wk =   0.1250000
        k(   12) = (  -0.1250000   0.2500000   0.1250000), wk =   0.1250000
        k(   13) = (  -0.3750000   0.2500000  -0.1250000), wk =   0.1250000
        k(   14) = (  -0.3750000   0.2500000  -0.3750000), wk =   0.1250000
        k(   15) = (  -0.3750000   0.2500000   0.3750000), wk =   0.1250000
        k(   16) = (  -0.3750000   0.2500000   0.1250000), wk =   0.1250000

     Dense  grid:  1304783 G-vectors     FFT dimensions: ( 120, 192, 125)

     Smooth grid:   330093 G-vectors     FFT dimensions: (  72, 120,  80)

     Largest allocated arrays     est. size (Mb)     dimensions
        Kohn-Sham Wavefunctions         2.22 Mb     (    1299,  112)
        NL pseudopotentials             6.98 Mb     (    1299,  352)
        Each V/rho on FFT grid          1.41 Mb     (   92160)
        Each G-vector array             0.31 Mb     (   40776)
        G-vector shells                 0.30 Mb     (   39832)
     Largest temporary arrays     est. size (Mb)     dimensions
        Auxiliary wavefunctions         8.88 Mb     (    1299,  448)
        Each subspace H/S matrix        3.06 Mb     (     448,  448)
        Each <psi_i|beta_j> matrix      0.60 Mb     (     352,  112)
        Arrays for rho mixing          11.25 Mb     (   92160,    8)

     Initial potential from superposition of free atoms

     starting charge  223.99937, renormalised to  224.00000
     Starting wfc are  176 randomized atomic wfcs
     Checking if some PAW data can be deallocated... 
       node    0, deallocated PAW data for type:  2
       node    0, deallocated PAW data for type:  3
       node    1, deallocated PAW data for type:  2
       node    1, deallocated PAW data for type:  3
       node    1, deallocated PAW data for type:  4
       node    2, deallocated PAW data for type:  2
       node    2, deallocated PAW data for type:  3
       node    3, deallocated PAW data for type:  1
       node    3, deallocated PAW data for type:  3
       node    4, deallocated PAW data for type:  1
       node    4, deallocated PAW data for type:  2
       node    4, deallocated PAW data for type:  4
       node    5, deallocated PAW data for type:  1
       node    5, deallocated PAW data for type:  3
       node    6, deallocated PAW data for type:  1
       node    6, deallocated PAW data for type:  2
       node    6, deallocated PAW data for type:  4
       node    7, deallocated PAW data for type:  1
       node    7, deallocated PAW data for type:  2
       node    7, deallocated PAW data for type:  4
       node    8, deallocated PAW data for type:  1
       node    8, deallocated PAW data for type:  3
       node    9, deallocated PAW data for type:  1
       node    9, deallocated PAW data for type:  2
       node    9, deallocated PAW data for type:  4
       node   10, deallocated PAW data for type:  1
       node   10, deallocated PAW data for type:  3
       node   11, deallocated PAW data for type:  2
       node   11, deallocated PAW data for type:  3
       node   12, deallocated PAW data for type:  2
       node   12, deallocated PAW data for type:  3
       node   12, deallocated PAW data for type:  4
       node   13, deallocated PAW data for type:  2
       node   13, deallocated PAW data for type:  3
       node   14, deallocated PAW data for type:  1
       node   14, deallocated PAW data for type:  2
       node   14, deallocated PAW data for type:  4
       node   15, deallocated PAW data for type:  1
       node   15, deallocated PAW data for type:  3
       node   16, deallocated PAW data for type:  1
       node   16, deallocated PAW data for type:  2
       node   16, deallocated PAW data for type:  4
       node   17, deallocated PAW data for type:  1
       node   17, deallocated PAW data for type:  3
       node   18, deallocated PAW data for type:  2
       node   18, deallocated PAW data for type:  3
       node   19, deallocated PAW data for type:  2
       node   19, deallocated PAW data for type:  3
       node   19, deallocated PAW data for type:  4
       node   20, deallocated PAW data for type:  2
       node   20, deallocated PAW data for type:  3
       node   21, deallocated PAW data for type:  1
       node   21, deallocated PAW data for type:  2
       node   21, deallocated PAW data for type:  4
       node   22, deallocated PAW data for type:  1
       node   22, deallocated PAW data for type:  3
       node   23, deallocated PAW data for type:  1
       node   23, deallocated PAW data for type:  2
       node   23, deallocated PAW data for type:  4
       node   24, deallocated PAW data for type:  1
       node   24, deallocated PAW data for type:  3
       node   24, deallocated PAW data for type:  4
       node   25, deallocated PAW data for type:  1
       node   25, deallocated PAW data for type:  2
       node   25, deallocated PAW data for type:  3
       node   26, deallocated PAW data for type:  2
       node   26, deallocated PAW data for type:  3
       node   26, deallocated PAW data for type:  4
       node   27, deallocated PAW data for type:  1
       node   27, deallocated PAW data for type:  2
       node   27, deallocated PAW data for type:  3
       node   28, deallocated PAW data for type:  2
       node   28, deallocated PAW data for type:  3
       node   28, deallocated PAW data for type:  4
       node   29, deallocated PAW data for type:  2
       node   29, deallocated PAW data for type:  3
       node   29, deallocated PAW data for type:  4
       node   30, deallocated PAW data for type:  1
       node   30, deallocated PAW data for type:  2
       node   30, deallocated PAW data for type:  3
       node   31, deallocated PAW data for type:  2
       node   31, deallocated PAW data for type:  3
       node   31, deallocated PAW data for type:  4

     total cpu time spent up to now is       87.0 secs

     per-process dynamical memory:    79.9 Mb

     Self-consistent Calculation

     iteration #  1     ecut=    80.00 Ry     beta=0.70
     Davidson diagonalization with overlap
     ethr =  1.00E-02,  avg # of iterations =  3.0

     total cpu time spent up to now is      251.0 secs

     total energy              =   -1279.65887428 Ry
     Harris-Foulkes estimate   =   -1283.96161494 Ry
     estimated scf accuracy    <       6.62517756 Ry

     iteration #  2     ecut=    80.00 Ry     beta=0.70
     Davidson diagonalization with overlap
     ethr =  2.96E-03,  avg # of iterations =  4.0

     total cpu time spent up to now is      442.3 secs

     total energy              =   -1280.30167191 Ry
     Harris-Foulkes estimate   =   -1283.87290861 Ry
     estimated scf accuracy    <       7.26226842 Ry

     iteration #  3     ecut=    80.00 Ry     beta=0.70
     Davidson diagonalization with overlap
     ethr =  2.96E-03,  avg # of iterations =  4.3

     total cpu time spent up to now is      601.5 secs

     total energy              =   -1281.84896404 Ry
     Harris-Foulkes estimate   =   -1282.09509002 Ry
     estimated scf accuracy    <       0.45904437 Ry

     iteration #  4     ecut=    80.00 Ry     beta=0.70
     Davidson diagonalization with overlap
     ethr =  2.05E-04,  avg # of iterations =  5.0

     total cpu time spent up to now is      789.1 secs

     total energy              =   -1281.99292625 Ry
     Harris-Foulkes estimate   =   -1282.09206644 Ry
     estimated scf accuracy    <       0.22493707 Ry

     iteration #  5     ecut=    80.00 Ry     beta=0.70
     Davidson diagonalization with overlap
     ethr =  1.00E-04,  avg # of iterations =  4.0

     total cpu time spent up to now is      935.0 secs

     total energy              =   -1282.03763091 Ry
     Harris-Foulkes estimate   =   -1282.04633869 Ry
     estimated scf accuracy    <       0.02095614 Ry

     iteration #  6     ecut=    80.00 Ry     beta=0.70
     Davidson diagonalization with overlap
     ethr =  9.36E-06,  avg # of iterations =  8.2

     total cpu time spent up to now is     1101.1 secs

     total energy              =   -1282.04140927 Ry
     Harris-Foulkes estimate   =   -1282.04344466 Ry
     estimated scf accuracy    <       0.00467450 Ry

     iteration #  7     ecut=    80.00 Ry     beta=0.70
     Davidson diagonalization with overlap
     ethr =  2.09E-06,  avg # of iterations =  5.0

     total cpu time spent up to now is     1251.9 secs

     total energy              =   -1282.04284826 Ry
     Harris-Foulkes estimate   =   -1282.04295390 Ry
     estimated scf accuracy    <       0.00025860 Ry

     iteration #  8     ecut=    80.00 Ry     beta=0.70
     Davidson diagonalization with overlap
     ethr =  1.15E-07,  avg # of iterations =  4.9

     total cpu time spent up to now is     1447.0 secs

     total energy              =   -1282.04292370 Ry
     Harris-Foulkes estimate   =   -1282.04296496 Ry
     estimated scf accuracy    <       0.00009273 Ry

     iteration #  9     ecut=    80.00 Ry     beta=0.70
     Davidson diagonalization with overlap
     ethr =  4.14E-08,  avg # of iterations =  9.3

     total cpu time spent up to now is     1596.8 secs

     total energy              =   -1282.04294031 Ry
     Harris-Foulkes estimate   =   -1282.04294529 Ry
     estimated scf accuracy    <       0.00001289 Ry

     iteration # 10     ecut=    80.00 Ry     beta=0.70
     Davidson diagonalization with overlap
     ethr =  5.75E-09,  avg # of iterations =  4.9

     total cpu time spent up to now is     1803.3 secs

     total energy              =   -1282.04294696 Ry
     Harris-Foulkes estimate   =   -1282.04294840 Ry
     estimated scf accuracy    <       0.00000416 Ry

     iteration # 11     ecut=    80.00 Ry     beta=0.70
     Davidson diagonalization with overlap
     ethr =  1.86E-09,  avg # of iterations =  2.1

     total cpu time spent up to now is     1911.7 secs

     total energy              =   -1282.04294652 Ry
     Harris-Foulkes estimate   =   -1282.04294720 Ry
     estimated scf accuracy    <       0.00000148 Ry

     iteration # 12     ecut=    80.00 Ry     beta=0.70
     Davidson diagonalization with overlap
     ethr =  6.62E-10,  avg # of iterations =  4.7

     total cpu time spent up to now is     2125.2 secs

     total energy              =   -1282.04294748 Ry
     Harris-Foulkes estimate   =   -1282.04294794 Ry
     estimated scf accuracy    <       0.00000215 Ry

     iteration # 13     ecut=    80.00 Ry     beta=0.70
     Davidson diagonalization with overlap
     ethr =  6.62E-10,  avg # of iterations =  1.0

     total cpu time spent up to now is     2249.9 secs

     total energy              =   -1282.04294703 Ry
     Harris-Foulkes estimate   =   -1282.04294750 Ry
     estimated scf accuracy    <       0.00000142 Ry

     iteration # 14     ecut=    80.00 Ry     beta=0.70
     Davidson diagonalization with overlap
     ethr =  6.33E-10,  avg # of iterations =  5.0

     total cpu time spent up to now is     2402.0 secs

     End of self-consistent calculation

          k = 0.0192 0.0231 0.0216 ( 41279 PWs)   bands (ev):

   -23.7581 -23.7401 -23.7221 -23.7152 -23.4310 -23.4217 -23.4202 -23.4189
   -18.9879 -18.9844 -18.9721 -18.9628 -18.6477 -18.6473 -18.6430 -18.6420
   -18.0797 -18.0573 -17.0445 -17.0016 -16.9101 -16.9071 -15.8935 -15.8835
   -11.9470 -11.9263 -11.9127 -11.8473 -11.7378 -11.6822 -11.6009 -11.5841
    -8.7440  -8.7119  -8.1107  -8.0794  -7.4100  -7.3711  -7.2772  -7.2745
    -6.7118  -6.6241  -6.4474  -6.3659  -6.3459  -6.2877  -6.2042  -6.1417
    -5.9941  -5.9588  -5.8812  -5.7970  -5.7505  -5.6747  -5.6058  -5.5755
    -5.4739  -5.4507  -5.3962  -5.3556  -4.9927  -4.8867  -4.8194  -4.7917
    -4.3131  -4.2977  -4.2429  -4.2085  -4.0596  -3.9711  -3.7275  -3.7159
    -3.5362  -3.4264  -3.3474  -3.3097  -3.0267  -2.9972  -2.8940  -2.8784
    -0.6647  -0.6607  -0.1865  -0.1722  -0.0924  -0.0423   0.0175   0.0284
     0.1352   0.1556   0.3134   0.3379   0.3655   0.3851   0.5192   0.5225
     0.5431   0.5897   0.7581   0.8124   0.8917   0.9281   1.0164   1.0505
     1.0602   1.1487   1.2091   1.2540   1.3485   1.4594   1.4949   1.5100

     occupation numbers 
     1.0000   1.0000   1.0000   1.0000   1.0000   1.0000   1.0000   1.0000
     1.0000   1.0000   1.0000   1.0000   1.0000   1.0000   1.0000   1.0000
     1.0000   1.0000   1.0000   1.0000   1.0000   1.0000   1.0000   1.0000
     1.0000   1.0000   1.0000   1.0000   1.0000   1.0000   1.0000   1.0000
     1.0000   1.0000   1.0000   1.0000   1.0000   1.0000   1.0000   1.0000
     1.0000   1.0000   1.0000   1.0000   1.0000   1.0000   1.0000   1.0000
     1.0000   1.0000   1.0000   1.0000   1.0000   1.0000   1.0000   1.0000
     1.0000   1.0000   1.0000   1.0000   1.0000   1.0000   1.0000   1.0000
     1.0000   1.0000   1.0000   1.0000   1.0000   1.0000   1.0000   1.0000
     1.0000   1.0000   1.0000   1.0000   1.0000   1.0000   1.0000   1.0000
     1.0000   1.0000   1.0000   1.0000   1.0000   1.0000   1.0000   1.0000
     1.0000   1.0000   1.0000   1.0000   1.0000   1.0000   1.0000   1.0000
     1.0000   1.0000   1.0000   1.0000   1.0000   1.0000   1.0000   1.0000
     1.0000   1.0000   1.0000   1.0000   1.0000   1.0000   1.0000   1.0000

          k = 0.0192 0.0231 0.0566 ( 41261 PWs)   bands (ev):

   -23.7503 -23.7426 -23.7211 -23.7201 -23.4321 -23.4291 -23.4177 -23.4144
   -18.9864 -18.9832 -18.9733 -18.9660 -18.6543 -18.6536 -18.6373 -18.6357
   -18.0697 -18.0690 -17.0240 -17.0218 -16.9055 -16.9030 -15.8904 -15.8883
   -11.9331 -11.9250 -11.8960 -11.8760 -11.7117 -11.6988 -11.6121 -11.6029
    -8.7242  -8.6942  -8.0944  -8.0728  -7.4161  -7.3730  -7.2499  -7.1834
    -6.7625  -6.6686  -6.4431  -6.4064  -6.3756  -6.2919  -6.2513  -6.2138
    -6.0174  -5.9785  -5.8233  -5.7408  -5.7315  -5.6770  -5.6515  -5.6144
    -5.5487  -5.4892  -5.3325  -5.2882  -4.9854  -4.9144  -4.8093  -4.7652
    -4.2526  -4.2381  -4.1940  -4.1388  -3.9890  -3.9635  -3.8434  -3.8412
    -3.5164  -3.4681  -3.2888  -3.2793  -3.0558  -3.0490  -2.8798  -2.8566
    -0.6248  -0.6003  -0.1987  -0.1827  -0.1034  -0.0668  -0.0142   0.0057
     0.0640   0.0952   0.2346   0.2784   0.3677   0.4180   0.4698   0.4897
     0.6794   0.7278   0.7900   0.8224   0.9119   0.9326   0.9625   1.0179
     1.1108   1.1509   1.2446   1.2600   1.3581   1.4194   1.4940   1.5140

     occupation numbers 
     1.0000   1.0000   1.0000   1.0000   1.0000   1.0000   1.0000   1.0000
     1.0000   1.0000   1.0000   1.0000   1.0000   1.0000   1.0000   1.0000
     1.0000   1.0000   1.0000   1.0000   1.0000   1.0000   1.0000   1.0000
     1.0000   1.0000   1.0000   1.0000   1.0000   1.0000   1.0000   1.0000
     1.0000   1.0000   1.0000   1.0000   1.0000   1.0000   1.0000   1.0000
     1.0000   1.0000   1.0000   1.0000   1.0000   1.0000   1.0000   1.0000
     1.0000   1.0000   1.0000   1.0000   1.0000   1.0000   1.0000   1.0000
     1.0000   1.0000   1.0000   1.0000   1.0000   1.0000   1.0000   1.0000
     1.0000   1.0000   1.0000   1.0000   1.0000   1.0000   1.0000   1.0000
     1.0000   1.0000   1.0000   1.0000   1.0000   1.0000   1.0000   1.0000
     1.0000   1.0000   1.0000   1.0000   1.0000   1.0000   1.0000   1.0000
     1.0000   1.0000   1.0000   1.0000   1.0000   1.0000   1.0000   1.0000
     1.0000   1.0000   1.0000   1.0000   1.0000   1.0000   1.0000   1.0000
     1.0000   1.0000   1.0000   1.0000   1.0000   1.0000   1.0000   1.0000

          k = 0.0192 0.0231-0.0483 ( 41264 PWs)   bands (ev):

   -23.7514 -23.7425 -23.7237 -23.7165 -23.4337 -23.4310 -23.4148 -23.4137
   -18.9838 -18.9829 -18.9713 -18.9710 -18.6556 -18.6551 -18.6357 -18.6344
   -18.0794 -18.0580 -17.0424 -17.0026 -16.9083 -16.9075 -15.8921 -15.8789
   -11.9581 -11.9309 -11.9067 -11.8531 -11.7250 -11.6733 -11.6115 -11.6049
    -8.7274  -8.6586  -8.0838  -8.0799  -7.4135  -7.4012  -7.2585  -7.1617
    -6.7680  -6.6745  -6.4595  -6.4044  -6.3658  -6.3304  -6.2682  -6.2400
    -6.0174  -5.9935  -5.8202  -5.7782  -5.6823  -5.6444  -5.6291  -5.5986
    -5.5470  -5.4828  -5.3291  -5.2745  -5.0029  -4.9205  -4.7913  -4.7447
    -4.2902  -4.2333  -4.1671  -4.1166  -4.0199  -3.9973  -3.8469  -3.7959
    -3.5150  -3.4755  -3.3346  -3.2654  -3.0600  -3.0359  -2.8775  -2.8654
    -0.5502  -0.5044  -0.1917  -0.1813  -0.1486  -0.1208  -0.0558  -0.0322
     0.0271   0.0416   0.2040   0.2690   0.3882   0.4204   0.4331   0.4812
     0.7208   0.7863   0.8346   0.8460   0.8829   0.9539   0.9855   1.0049
     1.1165   1.1532   1.2565   1.3014   1.3557   1.3803   1.4832   1.5015

     occupation numbers 
     1.0000   1.0000   1.0000   1.0000   1.0000   1.0000   1.0000   1.0000
     1.0000   1.0000   1.0000   1.0000   1.0000   1.0000   1.0000   1.0000
     1.0000   1.0000   1.0000   1.0000   1.0000   1.0000   1.0000   1.0000
     1.0000   1.0000   1.0000   1.0000   1.0000   1.0000   1.0000   1.0000
     1.0000   1.0000   1.0000   1.0000   1.0000   1.0000   1.0000   1.0000
     1.0000   1.0000   1.0000   1.0000   1.0000   1.0000   1.0000   1.0000
     1.0000   1.0000   1.0000   1.0000   1.0000   1.0000   1.0000   1.0000
     1.0000   1.0000   1.0000   1.0000   1.0000   1.0000   1.0000   1.0000
     1.0000   1.0000   1.0000   1.0000   1.0000   1.0000   1.0000   1.0000
     1.0000   1.0000   1.0000   1.0000   1.0000   1.0000   1.0000   1.0000
     1.0000   1.0000   1.0000   1.0000   1.0000   1.0000   1.0000   1.0000
     1.0000   1.0000   1.0000   1.0000   1.0000   1.0000   1.0000   1.0000
     1.0000   1.0000   1.0000   1.0000   1.0000   1.0000   1.0000   1.0000
     1.0000   1.0000   1.0000   1.0000   1.0000   1.0000   1.0000   1.0000

          k = 0.0192 0.0231-0.0133 ( 41302 PWs)   bands (ev):

   -23.7586 -23.7407 -23.7225 -23.7136 -23.4333 -23.4257 -23.4169 -23.4159
   -18.9866 -18.9831 -18.9725 -18.9652 -18.6509 -18.6507 -18.6392 -18.6390
   -18.0834 -18.0522 -17.0519 -16.9931 -16.9132 -16.9114 -15.8929 -15.8764
   -11.9704 -11.9353 -11.9068 -11.8423 -11.7347 -11.6713 -11.5997 -11.5857
    -8.7490  -8.6745  -8.1049  -8.0823  -7.4168  -7.3931  -7.3040  -7.2347
    -6.6771  -6.6540  -6.4640  -6.3747  -6.3527  -6.3106  -6.2354  -6.1797
    -6.0010  -5.9622  -5.8487  -5.8056  -5.7088  -5.6749  -5.5788  -5.5626
    -5.4806  -5.4473  -5.3709  -5.3584  -4.9793  -4.9282  -4.7928  -4.7625
    -4.3153  -4.3029  -4.2423  -4.2120  -4.0743  -3.9797  -3.7316  -3.6818
    -3.5543  -3.4366  -3.3577  -3.3105  -3.0340  -2.9909  -2.8888  -2.8867
    -0.6099  -0.5948  -0.1752  -0.1598  -0.0981  -0.0521   0.0073   0.0294
     0.0451   0.0850   0.2145   0.2688   0.3286   0.3993   0.4669   0.5228
     0.6865   0.7302   0.7521   0.8401   0.8724   0.9354   1.0331   1.0412
     1.0773   1.1318   1.2363   1.2829   1.3325   1.4376   1.4805   1.5023

     occupation numbers 
     1.0000   1.0000   1.0000   1.0000   1.0000   1.0000   1.0000   1.0000
     1.0000   1.0000   1.0000   1.0000   1.0000   1.0000   1.0000   1.0000
     1.0000   1.0000   1.0000   1.0000   1.0000   1.0000   1.0000   1.0000
     1.0000   1.0000   1.0000   1.0000   1.0000   1.0000   1.0000   1.0000
     1.0000   1.0000   1.0000   1.0000   1.0000   1.0000   1.0000   1.0000
     1.0000   1.0000   1.0000   1.0000   1.0000   1.0000   1.0000   1.0000
     1.0000   1.0000   1.0000   1.0000   1.0000   1.0000   1.0000   1.0000
     1.0000   1.0000   1.0000   1.0000   1.0000   1.0000   1.0000   1.0000
     1.0000   1.0000   1.0000   1.0000   1.0000   1.0000   1.0000   1.0000
     1.0000   1.0000   1.0000   1.0000   1.0000   1.0000   1.0000   1.0000
     1.0000   1.0000   1.0000   1.0000   1.0000   1.0000   1.0000   1.0000
     1.0000   1.0000   1.0000   1.0000   1.0000   1.0000   1.0000   1.0000
     1.0000   1.0000   1.0000   1.0000   1.0000   1.0000   1.0000   1.0000
     1.0000   1.0000   1.0000   1.0000   1.0000   1.0000   1.0000   1.0000

          k = 0.0575 0.0231 0.0300 ( 41219 PWs)   bands (ev):

   -23.7477 -23.7395 -23.7219 -23.7211 -23.4296 -23.4263 -23.4217 -23.4185
   -18.9860 -18.9834 -18.9740 -18.9669 -18.6514 -18.6503 -18.6406 -18.6394
   -18.0755 -18.0749 -17.0229 -17.0212 -16.9089 -16.9071 -15.8914 -15.8889
   -11.9196 -11.9163 -11.8589 -11.8435 -11.6848 -11.6660 -11.6151 -11.5991
    -8.7450  -8.7175  -8.1101  -8.0905  -7.4070  -7.3780  -7.3460  -7.3003
    -6.8461  -6.7985  -6.5082  -6.4145  -6.3034  -6.2612  -6.1307  -6.0836
    -6.0571  -6.0031  -5.8447  -5.7974  -5.7381  -5.6984  -5.6116  -5.5726
    -5.4743  -5.4529  -5.3970  -5.3791  -5.0039  -4.9135  -4.7788  -4.7743
    -4.2885  -4.2671  -4.2191  -4.1810  -3.8630  -3.8185  -3.6673  -3.6290
    -3.5764  -3.4769  -3.4213  -3.4097  -3.0256  -3.0212  -2.8995  -2.8712
    -0.6120  -0.6047  -0.1656  -0.1567  -0.0994  -0.0721   0.0179   0.0542
     0.0669   0.0955   0.2452   0.2773   0.3311   0.3569   0.4923   0.5090
     0.7143   0.7234   0.7798   0.8249   0.9031   0.9137   1.0119   1.0398
     1.0777   1.1255   1.1549   1.1939   1.4145   1.4405   1.4697   1.5000

     occupation numbers 
     1.0000   1.0000   1.0000   1.0000   1.0000   1.0000   1.0000   1.0000
     1.0000   1.0000   1.0000   1.0000   1.0000   1.0000   1.0000   1.0000
     1.0000   1.0000   1.0000   1.0000   1.0000   1.0000   1.0000   1.0000
     1.0000   1.0000   1.0000   1.0000   1.0000   1.0000   1.0000   1.0000
     1.0000   1.0000   1.0000   1.0000   1.0000   1.0000   1.0000   1.0000
     1.0000   1.0000   1.0000   1.0000   1.0000   1.0000   1.0000   1.0000
     1.0000   1.0000   1.0000   1.0000   1.0000   1.0000   1.0000   1.0000
     1.0000   1.0000   1.0000   1.0000   1.0000   1.0000   1.0000   1.0000
     1.0000   1.0000   1.0000   1.0000   1.0000   1.0000   1.0000   1.0000
     1.0000   1.0000   1.0000   1.0000   1.0000   1.0000   1.0000   1.0000
     1.0000   1.0000   1.0000   1.0000   1.0000   1.0000   1.0000   1.0000
     1.0000   1.0000   1.0000   1.0000   1.0000   1.0000   1.0000   1.0000
     1.0000   1.0000   1.0000   1.0000   1.0000   1.0000   1.0000   1.0000
     1.0000   1.0000   1.0000   1.0000   1.0000   1.0000   1.0000   1.0000

          k = 0.0575 0.0231 0.0649 ( 41238 PWs)   bands (ev):

   -23.7441 -23.7416 -23.7250 -23.7183 -23.4277 -23.4275 -23.4248 -23.4171
   -18.9871 -18.9852 -18.9741 -18.9655 -18.6618 -18.6598 -18.6323 -18.6292
   -18.0886 -18.0680 -17.0392 -17.0015 -16.8987 -16.8958 -15.9062 -15.8895
   -11.9395 -11.9287 -11.8768 -11.8206 -11.6744 -11.6457 -11.6189 -11.6007
    -8.7837  -8.6837  -8.1062  -8.0733  -7.3907  -7.3780  -7.3035  -7.1938
    -6.9349  -6.7737  -6.4973  -6.3686  -6.3261  -6.3009  -6.2624  -6.1595
    -6.1138  -6.0239  -5.8439  -5.8069  -5.7562  -5.7008  -5.6403  -5.5759
    -5.4594  -5.4242  -5.3452  -5.2798  -5.0162  -4.8827  -4.8452  -4.7844
    -4.2273  -4.2014  -4.1619  -4.1112  -3.8262  -3.8135  -3.7600  -3.7409
    -3.5963  -3.5142  -3.4067  -3.3310  -3.0747  -3.0447  -2.8915  -2.8383
    -0.6867  -0.6599  -0.1717  -0.1382  -0.0918  -0.0709   0.0295   0.0566
     0.1233   0.1508   0.3135   0.3329   0.3683   0.3864   0.4616   0.5487
     0.6103   0.6210   0.7095   0.7982   0.8913   0.9364   0.9985   1.0203
     1.1041   1.1427   1.1705   1.1972   1.4269   1.4576   1.4793   1.5153

     occupation numbers 
     1.0000   1.0000   1.0000   1.0000   1.0000   1.0000   1.0000   1.0000
     1.0000   1.0000   1.0000   1.0000   1.0000   1.0000   1.0000   1.0000
     1.0000   1.0000   1.0000   1.0000   1.0000   1.0000   1.0000   1.0000
     1.0000   1.0000   1.0000   1.0000   1.0000   1.0000   1.0000   1.0000
     1.0000   1.0000   1.0000   1.0000   1.0000   1.0000   1.0000   1.0000
     1.0000   1.0000   1.0000   1.0000   1.0000   1.0000   1.0000   1.0000
     1.0000   1.0000   1.0000   1.0000   1.0000   1.0000   1.0000   1.0000
     1.0000   1.0000   1.0000   1.0000   1.0000   1.0000   1.0000   1.0000
     1.0000   1.0000   1.0000   1.0000   1.0000   1.0000   1.0000   1.0000
     1.0000   1.0000   1.0000   1.0000   1.0000   1.0000   1.0000   1.0000
     1.0000   1.0000   1.0000   1.0000   1.0000   1.0000   1.0000   1.0000
     1.0000   1.0000   1.0000   1.0000   1.0000   1.0000   1.0000   1.0000
     1.0000   1.0000   1.0000   1.0000   1.0000   1.0000   1.0000   1.0000
     1.0000   1.0000   1.0000   1.0000   1.0000   1.0000   1.0000   1.0000

          k = 0.0575 0.0231-0.0399 ( 41251 PWs)   bands (ev):

   -23.7458 -23.7411 -23.7258 -23.7161 -23.4313 -23.4305 -23.4202 -23.4152
   -18.9851 -18.9840 -18.9749 -18.9681 -18.6626 -18.6607 -18.6314 -18.6283
   -18.0925 -18.0628 -17.0474 -16.9922 -16.9021 -16.9000 -15.9046 -15.8833
   -11.9501 -11.9362 -11.8897 -11.8072 -11.6831 -11.6308 -11.6124 -11.6037
    -8.7755  -8.6597  -8.1013  -8.0743  -7.3962  -7.3712  -7.3307  -7.1840
    -6.9494  -6.7702  -6.4909  -6.3943  -6.3433  -6.3145  -6.2816  -6.1993
    -6.0951  -6.0215  -5.8318  -5.7845  -5.7164  -5.7093  -5.6363  -5.5868
    -5.4357  -5.4163  -5.3482  -5.2777  -5.0193  -4.9163  -4.8087  -4.7629
    -4.2388  -4.2060  -4.1408  -4.1110  -3.8697  -3.8611  -3.7096  -3.6971
    -3.5616  -3.5366  -3.4537  -3.3395  -3.0766  -3.0394  -2.8907  -2.8449
    -0.6393  -0.5939  -0.1652  -0.1203  -0.1082  -0.0780   0.0179   0.0382
     0.0490   0.0975   0.2540   0.3251   0.3558   0.3988   0.4099   0.4502
     0.6746   0.7290   0.7851   0.8014   0.9097   0.9297   1.0066   1.0180
     1.1038   1.1369   1.1895   1.2406   1.4349   1.4514   1.4597   1.4835

     occupation numbers 
     1.0000   1.0000   1.0000   1.0000   1.0000   1.0000   1.0000   1.0000
     1.0000   1.0000   1.0000   1.0000   1.0000   1.0000   1.0000   1.0000
     1.0000   1.0000   1.0000   1.0000   1.0000   1.0000   1.0000   1.0000
     1.0000   1.0000   1.0000   1.0000   1.0000   1.0000   1.0000   1.0000
     1.0000   1.0000   1.0000   1.0000   1.0000   1.0000   1.0000   1.0000
     1.0000   1.0000   1.0000   1.0000   1.0000   1.0000   1.0000   1.0000
     1.0000   1.0000   1.0000   1.0000   1.0000   1.0000   1.0000   1.0000
     1.0000   1.0000   1.0000   1.0000   1.0000   1.0000   1.0000   1.0000
     1.0000   1.0000   1.0000   1.0000   1.0000   1.0000   1.0000   1.0000
     1.0000   1.0000   1.0000   1.0000   1.0000   1.0000   1.0000   1.0000
     1.0000   1.0000   1.0000   1.0000   1.0000   1.0000   1.0000   1.0000
     1.0000   1.0000   1.0000   1.0000   1.0000   1.0000   1.0000   1.0000
     1.0000   1.0000   1.0000   1.0000   1.0000   1.0000   1.0000   1.0000
     1.0000   1.0000   1.0000   1.0000   1.0000   1.0000   1.0000   1.0000

          k = 0.0575 0.0231-0.0050 ( 41258 PWs)   bands (ev):

   -23.7487 -23.7397 -23.7244 -23.7173 -23.4322 -23.4292 -23.4180 -23.4166
   -18.9835 -18.9826 -18.9724 -18.9720 -18.6534 -18.6526 -18.6383 -18.6372
   -18.0853 -18.0638 -17.0416 -17.0013 -16.9119 -16.9117 -15.8930 -15.8796
   -11.9335 -11.9216 -11.8861 -11.8154 -11.6959 -11.6451 -11.6096 -11.6042
    -8.7484  -8.6812  -8.1013  -8.0961  -7.4012  -7.3968  -7.3713  -7.2819
    -6.8592  -6.7852  -6.4823  -6.4602  -6.3030  -6.2919  -6.1805  -6.1616
    -6.0029  -5.9996  -5.8043  -5.7649  -5.7085  -5.6878  -5.6029  -5.5963
    -5.4714  -5.4471  -5.3906  -5.3833  -4.9795  -4.9583  -4.7517  -4.7493
    -4.2948  -4.2653  -4.2212  -4.1797  -3.8760  -3.8437  -3.6328  -3.6252
    -3.5328  -3.5024  -3.4687  -3.4118  -3.0401  -3.0084  -2.8954  -2.8794
    -0.5493  -0.5126  -0.1724  -0.1543  -0.0995  -0.0821  -0.0565  -0.0478
     0.0496   0.0876   0.2089   0.2658   0.3237   0.3637   0.4654   0.5015
     0.6935   0.7544   0.8445   0.8869   0.8878   0.9413   1.0299   1.0431
     1.0860   1.1024   1.1685   1.2393   1.4281   1.4317   1.4456   1.4631

     occupation numbers 
     1.0000   1.0000   1.0000   1.0000   1.0000   1.0000   1.0000   1.0000
     1.0000   1.0000   1.0000   1.0000   1.0000   1.0000   1.0000   1.0000
     1.0000   1.0000   1.0000   1.0000   1.0000   1.0000   1.0000   1.0000
     1.0000   1.0000   1.0000   1.0000   1.0000   1.0000   1.0000   1.0000
     1.0000   1.0000   1.0000   1.0000   1.0000   1.0000   1.0000   1.0000
     1.0000   1.0000   1.0000   1.0000   1.0000   1.0000   1.0000   1.0000
     1.0000   1.0000   1.0000   1.0000   1.0000   1.0000   1.0000   1.0000
     1.0000   1.0000   1.0000   1.0000   1.0000   1.0000   1.0000   1.0000
     1.0000   1.0000   1.0000   1.0000   1.0000   1.0000   1.0000   1.0000
     1.0000   1.0000   1.0000   1.0000   1.0000   1.0000   1.0000   1.0000
     1.0000   1.0000   1.0000   1.0000   1.0000   1.0000   1.0000   1.0000
     1.0000   1.0000   1.0000   1.0000   1.0000   1.0000   1.0000   1.0000
     1.0000   1.0000   1.0000   1.0000   1.0000   1.0000   1.0000   1.0000
     1.0000   1.0000   1.0000   1.0000   1.0000   1.0000   1.0000   1.0000

          k =-0.0192 0.0231-0.0216 ( 41279 PWs)   bands (ev):

   -23.7581 -23.7401 -23.7221 -23.7152 -23.4310 -23.4217 -23.4202 -23.4189
   -18.9879 -18.9844 -18.9721 -18.9628 -18.6477 -18.6472 -18.6430 -18.6420
   -18.0797 -18.0573 -17.0445 -17.0016 -16.9101 -16.9071 -15.8935 -15.8835
   -11.9470 -11.9262 -11.9127 -11.8473 -11.7377 -11.6822 -11.6009 -11.5841
    -8.7440  -8.7119  -8.1107  -8.0794  -7.4100  -7.3711  -7.2772  -7.2745
    -6.7118  -6.6241  -6.4474  -6.3659  -6.3459  -6.2877  -6.2043  -6.1416
    -5.9941  -5.9588  -5.8812  -5.7970  -5.7505  -5.6746  -5.6057  -5.5756
    -5.4739  -5.4507  -5.3962  -5.3556  -4.9927  -4.8867  -4.8195  -4.7918
    -4.3130  -4.2977  -4.2429  -4.2085  -4.0596  -3.9711  -3.7275  -3.7160
    -3.5362  -3.4264  -3.3474  -3.3097  -3.0267  -2.9972  -2.8940  -2.8784
    -0.6647  -0.6606  -0.1865  -0.1721  -0.0924  -0.0422   0.0174   0.0285
     0.1352   0.1556   0.3134   0.3379   0.3655   0.3851   0.5192   0.5224
     0.5431   0.5896   0.7582   0.8124   0.8916   0.9281   1.0163   1.0506
     1.0602   1.1487   1.2092   1.2539   1.3485   1.4594   1.4947   1.5101

     occupation numbers 
     1.0000   1.0000   1.0000   1.0000   1.0000   1.0000   1.0000   1.0000
     1.0000   1.0000   1.0000   1.0000   1.0000   1.0000   1.0000   1.0000
     1.0000   1.0000   1.0000   1.0000   1.0000   1.0000   1.0000   1.0000
     1.0000   1.0000   1.0000   1.0000   1.0000   1.0000   1.0000   1.0000
     1.0000   1.0000   1.0000   1.0000   1.0000   1.0000   1.0000   1.0000
     1.0000   1.0000   1.0000   1.0000   1.0000   1.0000   1.0000   1.0000
     1.0000   1.0000   1.0000   1.0000   1.0000   1.0000   1.0000   1.0000
     1.0000   1.0000   1.0000   1.0000   1.0000   1.0000   1.0000   1.0000
     1.0000   1.0000   1.0000   1.0000   1.0000   1.0000   1.0000   1.0000
     1.0000   1.0000   1.0000   1.0000   1.0000   1.0000   1.0000   1.0000
     1.0000   1.0000   1.0000   1.0000   1.0000   1.0000   1.0000   1.0000
     1.0000   1.0000   1.0000   1.0000   1.0000   1.0000   1.0000   1.0000
     1.0000   1.0000   1.0000   1.0000   1.0000   1.0000   1.0000   1.0000
     1.0000   1.0000   1.0000   1.0000   1.0000   1.0000   1.0000   1.0000

          k =-0.0192 0.0231-0.0566 ( 41261 PWs)   bands (ev):

   -23.7503 -23.7426 -23.7211 -23.7201 -23.4321 -23.4291 -23.4177 -23.4144
   -18.9864 -18.9832 -18.9733 -18.9660 -18.6543 -18.6536 -18.6373 -18.6357
   -18.0697 -18.0690 -17.0240 -17.0218 -16.9055 -16.9030 -15.8904 -15.8883
   -11.9331 -11.9250 -11.8960 -11.8760 -11.7117 -11.6988 -11.6121 -11.6029
    -8.7242  -8.6942  -8.0944  -8.0728  -7.4161  -7.3730  -7.2499  -7.1834
    -6.7625  -6.6685  -6.4431  -6.4064  -6.3756  -6.2919  -6.2513  -6.2138
    -6.0174  -5.9786  -5.8233  -5.7407  -5.7315  -5.6769  -5.6515  -5.6144
    -5.5487  -5.4892  -5.3325  -5.2882  -4.9854  -4.9144  -4.8093  -4.7651
    -4.2526  -4.2381  -4.1941  -4.1388  -3.9890  -3.9635  -3.8434  -3.8412
    -3.5164  -3.4681  -3.2888  -3.2793  -3.0558  -3.0489  -2.8798  -2.8566
    -0.6248  -0.6003  -0.1987  -0.1827  -0.1035  -0.0668  -0.0142   0.0057
     0.0641   0.0952   0.2346   0.2783   0.3677   0.4179   0.4698   0.4897
     0.6794   0.7278   0.7900   0.8224   0.9119   0.9327   0.9624   1.0179
     1.1108   1.1510   1.2446   1.2599   1.3582   1.4194   1.4940   1.5140

     occupation numbers 
     1.0000   1.0000   1.0000   1.0000   1.0000   1.0000   1.0000   1.0000
     1.0000   1.0000   1.0000   1.0000   1.0000   1.0000   1.0000   1.0000
     1.0000   1.0000   1.0000   1.0000   1.0000   1.0000   1.0000   1.0000
     1.0000   1.0000   1.0000   1.0000   1.0000   1.0000   1.0000   1.0000
     1.0000   1.0000   1.0000   1.0000   1.0000   1.0000   1.0000   1.0000
     1.0000   1.0000   1.0000   1.0000   1.0000   1.0000   1.0000   1.0000
     1.0000   1.0000   1.0000   1.0000   1.0000   1.0000   1.0000   1.0000
     1.0000   1.0000   1.0000   1.0000   1.0000   1.0000   1.0000   1.0000
     1.0000   1.0000   1.0000   1.0000   1.0000   1.0000   1.0000   1.0000
     1.0000   1.0000   1.0000   1.0000   1.0000   1.0000   1.0000   1.0000
     1.0000   1.0000   1.0000   1.0000   1.0000   1.0000   1.0000   1.0000
     1.0000   1.0000   1.0000   1.0000   1.0000   1.0000   1.0000   1.0000
     1.0000   1.0000   1.0000   1.0000   1.0000   1.0000   1.0000   1.0000
     1.0000   1.0000   1.0000   1.0000   1.0000   1.0000   1.0000   1.0000

          k =-0.0192 0.0231 0.0483 ( 41264 PWs)   bands (ev):

   -23.7514 -23.7425 -23.7237 -23.7165 -23.4337 -23.4310 -23.4148 -23.4137
   -18.9838 -18.9829 -18.9714 -18.9710 -18.6556 -18.6551 -18.6357 -18.6344
   -18.0794 -18.0580 -17.0424 -17.0026 -16.9084 -16.9075 -15.8921 -15.8789
   -11.9581 -11.9309 -11.9068 -11.8530 -11.7250 -11.6733 -11.6115 -11.6049
    -8.7274  -8.6586  -8.0839  -8.0798  -7.4135  -7.4012  -7.2584  -7.1617
    -6.7680  -6.6745  -6.4595  -6.4044  -6.3658  -6.3305  -6.2682  -6.2400
    -6.0173  -5.9936  -5.8203  -5.7782  -5.6821  -5.6446  -5.6291  -5.5986
    -5.5470  -5.4828  -5.3292  -5.2744  -5.0029  -4.9204  -4.7914  -4.7447
    -4.2903  -4.2333  -4.1671  -4.1166  -4.0199  -3.9973  -3.8469  -3.7959
    -3.5150  -3.4755  -3.3346  -3.2654  -3.0600  -3.0360  -2.8775  -2.8654
    -0.5502  -0.5044  -0.1916  -0.1814  -0.1486  -0.1209  -0.0559  -0.0321
     0.0271   0.0416   0.2040   0.2690   0.3882   0.4204   0.4330   0.4812
     0.7207   0.7866   0.8344   0.8460   0.8830   0.9540   0.9855   1.0049
     1.1165   1.1531   1.2565   1.3014   1.3557   1.3803   1.4832   1.5015

     occupation numbers 
     1.0000   1.0000   1.0000   1.0000   1.0000   1.0000   1.0000   1.0000
     1.0000   1.0000   1.0000   1.0000   1.0000   1.0000   1.0000   1.0000
     1.0000   1.0000   1.0000   1.0000   1.0000   1.0000   1.0000   1.0000
     1.0000   1.0000   1.0000   1.0000   1.0000   1.0000   1.0000   1.0000
     1.0000   1.0000   1.0000   1.0000   1.0000   1.0000   1.0000   1.0000
     1.0000   1.0000   1.0000   1.0000   1.0000   1.0000   1.0000   1.0000
     1.0000   1.0000   1.0000   1.0000   1.0000   1.0000   1.0000   1.0000
     1.0000   1.0000   1.0000   1.0000   1.0000   1.0000   1.0000   1.0000
     1.0000   1.0000   1.0000   1.0000   1.0000   1.0000   1.0000   1.0000
     1.0000   1.0000   1.0000   1.0000   1.0000   1.0000   1.0000   1.0000
     1.0000   1.0000   1.0000   1.0000   1.0000   1.0000   1.0000   1.0000
     1.0000   1.0000   1.0000   1.0000   1.0000   1.0000   1.0000   1.0000
     1.0000   1.0000   1.0000   1.0000   1.0000   1.0000   1.0000   1.0000
     1.0000   1.0000   1.0000   1.0000   1.0000   1.0000   1.0000   1.0000

          k =-0.0192 0.0231 0.0133 ( 41302 PWs)   bands (ev):

   -23.7586 -23.7407 -23.7225 -23.7136 -23.4333 -23.4257 -23.4169 -23.4159
   -18.9866 -18.9831 -18.9725 -18.9652 -18.6509 -18.6507 -18.6391 -18.6391
   -18.0834 -18.0522 -17.0519 -16.9931 -16.9132 -16.9114 -15.8929 -15.8764
   -11.9704 -11.9353 -11.9068 -11.8423 -11.7347 -11.6713 -11.5997 -11.5857
    -8.7490  -8.6745  -8.1049  -8.0823  -7.4168  -7.3931  -7.3040  -7.2347
    -6.6771  -6.6540  -6.4640  -6.3747  -6.3527  -6.3106  -6.2354  -6.1797
    -6.0010  -5.9621  -5.8487  -5.8057  -5.7089  -5.6748  -5.5788  -5.5626
    -5.4806  -5.4474  -5.3709  -5.3584  -4.9793  -4.9281  -4.7929  -4.7624
    -4.3153  -4.3029  -4.2423  -4.2120  -4.0743  -3.9797  -3.7316  -3.6817
    -3.5542  -3.4366  -3.3577  -3.3105  -3.0339  -2.9910  -2.8888  -2.8867
    -0.6099  -0.5948  -0.1751  -0.1599  -0.0982  -0.0520   0.0072   0.0294
     0.0451   0.0850   0.2145   0.2688   0.3286   0.3994   0.4669   0.5228
     0.6864   0.7301   0.7522   0.8401   0.8725   0.9354   1.0331   1.0412
     1.0773   1.1318   1.2363   1.2829   1.3326   1.4375   1.4807   1.5022

     occupation numbers 
     1.0000   1.0000   1.0000   1.0000   1.0000   1.0000   1.0000   1.0000
     1.0000   1.0000   1.0000   1.0000   1.0000   1.0000   1.0000   1.0000
     1.0000   1.0000   1.0000   1.0000   1.0000   1.0000   1.0000   1.0000
     1.0000   1.0000   1.0000   1.0000   1.0000   1.0000   1.0000   1.0000
     1.0000   1.0000   1.0000   1.0000   1.0000   1.0000   1.0000   1.0000
     1.0000   1.0000   1.0000   1.0000   1.0000   1.0000   1.0000   1.0000
     1.0000   1.0000   1.0000   1.0000   1.0000   1.0000   1.0000   1.0000
     1.0000   1.0000   1.0000   1.0000   1.0000   1.0000   1.0000   1.0000
     1.0000   1.0000   1.0000   1.0000   1.0000   1.0000   1.0000   1.0000
     1.0000   1.0000   1.0000   1.0000   1.0000   1.0000   1.0000   1.0000
     1.0000   1.0000   1.0000   1.0000   1.0000   1.0000   1.0000   1.0000
     1.0000   1.0000   1.0000   1.0000   1.0000   1.0000   1.0000   1.0000
     1.0000   1.0000   1.0000   1.0000   1.0000   1.0000   1.0000   1.0000
     1.0000   1.0000   1.0000   1.0000   1.0000   1.0000   1.0000   1.0000

          k =-0.0575 0.0231-0.0300 ( 41219 PWs)   bands (ev):

   -23.7477 -23.7395 -23.7218 -23.7211 -23.4296 -23.4263 -23.4217 -23.4185
   -18.9860 -18.9834 -18.9740 -18.9669 -18.6514 -18.6503 -18.6406 -18.6394
   -18.0755 -18.0749 -17.0229 -17.0212 -16.9090 -16.9071 -15.8914 -15.8889
   -11.9196 -11.9163 -11.8589 -11.8435 -11.6848 -11.6660 -11.6151 -11.5990
    -8.7450  -8.7175  -8.1101  -8.0905  -7.4070  -7.3780  -7.3460  -7.3003
    -6.8461  -6.7985  -6.5082  -6.4144  -6.3034  -6.2612  -6.1308  -6.0835
    -6.0571  -6.0030  -5.8447  -5.7974  -5.7381  -5.6983  -5.6116  -5.5726
    -5.4744  -5.4528  -5.3971  -5.3791  -5.0039  -4.9135  -4.7788  -4.7743
    -4.2885  -4.2671  -4.2191  -4.1810  -3.8630  -3.8186  -3.6673  -3.6290
    -3.5764  -3.4769  -3.4214  -3.4096  -3.0256  -3.0212  -2.8995  -2.8712
    -0.6120  -0.6047  -0.1656  -0.1566  -0.0995  -0.0720   0.0180   0.0542
     0.0669   0.0955   0.2451   0.2774   0.3311   0.3569   0.4924   0.5089
     0.7142   0.7234   0.7797   0.8249   0.9030   0.9138   1.0119   1.0398
     1.0779   1.1254   1.1550   1.1938   1.4145   1.4405   1.4696   1.5000

     occupation numbers 
     1.0000   1.0000   1.0000   1.0000   1.0000   1.0000   1.0000   1.0000
     1.0000   1.0000   1.0000   1.0000   1.0000   1.0000   1.0000   1.0000
     1.0000   1.0000   1.0000   1.0000   1.0000   1.0000   1.0000   1.0000
     1.0000   1.0000   1.0000   1.0000   1.0000   1.0000   1.0000   1.0000
     1.0000   1.0000   1.0000   1.0000   1.0000   1.0000   1.0000   1.0000
     1.0000   1.0000   1.0000   1.0000   1.0000   1.0000   1.0000   1.0000
     1.0000   1.0000   1.0000   1.0000   1.0000   1.0000   1.0000   1.0000
     1.0000   1.0000   1.0000   1.0000   1.0000   1.0000   1.0000   1.0000
     1.0000   1.0000   1.0000   1.0000   1.0000   1.0000   1.0000   1.0000
     1.0000   1.0000   1.0000   1.0000   1.0000   1.0000   1.0000   1.0000
     1.0000   1.0000   1.0000   1.0000   1.0000   1.0000   1.0000   1.0000
     1.0000   1.0000   1.0000   1.0000   1.0000   1.0000   1.0000   1.0000
     1.0000   1.0000   1.0000   1.0000   1.0000   1.0000   1.0000   1.0000
     1.0000   1.0000   1.0000   1.0000   1.0000   1.0000   1.0000   1.0000

          k =-0.0575 0.0231-0.0649 ( 41238 PWs)   bands (ev):

   -23.7441 -23.7416 -23.7250 -23.7183 -23.4278 -23.4275 -23.4248 -23.4171
   -18.9871 -18.9852 -18.9741 -18.9655 -18.6618 -18.6598 -18.6323 -18.6292
   -18.0886 -18.0680 -17.0392 -17.0015 -16.8987 -16.8958 -15.9062 -15.8895
   -11.9395 -11.9286 -11.8768 -11.8206 -11.6744 -11.6457 -11.6189 -11.6007
    -8.7837  -8.6837  -8.1062  -8.0733  -7.3907  -7.3780  -7.3035  -7.1938
    -6.9349  -6.7737  -6.4973  -6.3686  -6.3260  -6.3010  -6.2624  -6.1595
    -6.1138  -6.0239  -5.8439  -5.8069  -5.7562  -5.7008  -5.6403  -5.5758
    -5.4593  -5.4242  -5.3452  -5.2798  -5.0162  -4.8827  -4.8451  -4.7844
    -4.2273  -4.2014  -4.1620  -4.1112  -3.8263  -3.8135  -3.7600  -3.7409
    -3.5963  -3.5142  -3.4067  -3.3310  -3.0747  -3.0447  -2.8915  -2.8383
    -0.6868  -0.6599  -0.1717  -0.1383  -0.0918  -0.0708   0.0295   0.0565
     0.1232   0.1508   0.3135   0.3329   0.3684   0.3863   0.4617   0.5486
     0.6104   0.6210   0.7095   0.7982   0.8913   0.9365   0.9985   1.0202
     1.1043   1.1426   1.1704   1.1973   1.4269   1.4576   1.4793   1.5153

     occupation numbers 
     1.0000   1.0000   1.0000   1.0000   1.0000   1.0000   1.0000   1.0000
     1.0000   1.0000   1.0000   1.0000   1.0000   1.0000   1.0000   1.0000
     1.0000   1.0000   1.0000   1.0000   1.0000   1.0000   1.0000   1.0000
     1.0000   1.0000   1.0000   1.0000   1.0000   1.0000   1.0000   1.0000
     1.0000   1.0000   1.0000   1.0000   1.0000   1.0000   1.0000   1.0000
     1.0000   1.0000   1.0000   1.0000   1.0000   1.0000   1.0000   1.0000
     1.0000   1.0000   1.0000   1.0000   1.0000   1.0000   1.0000   1.0000
     1.0000   1.0000   1.0000   1.0000   1.0000   1.0000   1.0000   1.0000
     1.0000   1.0000   1.0000   1.0000   1.0000   1.0000   1.0000   1.0000
     1.0000   1.0000   1.0000   1.0000   1.0000   1.0000   1.0000   1.0000
     1.0000   1.0000   1.0000   1.0000   1.0000   1.0000   1.0000   1.0000
     1.0000   1.0000   1.0000   1.0000   1.0000   1.0000   1.0000   1.0000
     1.0000   1.0000   1.0000   1.0000   1.0000   1.0000   1.0000   1.0000
     1.0000   1.0000   1.0000   1.0000   1.0000   1.0000   1.0000   1.0000

          k =-0.0575 0.0231 0.0399 ( 41251 PWs)   bands (ev):

   -23.7458 -23.7412 -23.7258 -23.7161 -23.4313 -23.4305 -23.4202 -23.4152
   -18.9851 -18.9840 -18.9749 -18.9681 -18.6626 -18.6607 -18.6314 -18.6283
   -18.0925 -18.0628 -17.0474 -16.9922 -16.9021 -16.9000 -15.9046 -15.8833
   -11.9502 -11.9361 -11.8897 -11.8072 -11.6831 -11.6309 -11.6124 -11.6037
    -8.7755  -8.6597  -8.1013  -8.0743  -7.3962  -7.3712  -7.3307  -7.1840
    -6.9494  -6.7702  -6.4909  -6.3944  -6.3434  -6.3144  -6.2816  -6.1993
    -6.0951  -6.0215  -5.8318  -5.7844  -5.7164  -5.7093  -5.6363  -5.5868
    -5.4357  -5.4164  -5.3482  -5.2776  -5.0193  -4.9162  -4.8088  -4.7629
    -4.2388  -4.2060  -4.1408  -4.1110  -3.8697  -3.8611  -3.7096  -3.6971
    -3.5617  -3.5365  -3.4537  -3.3395  -3.0766  -3.0394  -2.8907  -2.8449
    -0.6393  -0.5939  -0.1651  -0.1204  -0.1083  -0.0779   0.0180   0.0382
     0.0490   0.0975   0.2540   0.3251   0.3557   0.3989   0.4099   0.4502
     0.6746   0.7291   0.7849   0.8013   0.9098   0.9297   1.0066   1.0179
     1.1039   1.1368   1.1895   1.2406   1.4349   1.4514   1.4597   1.4835

     occupation numbers 
     1.0000   1.0000   1.0000   1.0000   1.0000   1.0000   1.0000   1.0000
     1.0000   1.0000   1.0000   1.0000   1.0000   1.0000   1.0000   1.0000
     1.0000   1.0000   1.0000   1.0000   1.0000   1.0000   1.0000   1.0000
     1.0000   1.0000   1.0000   1.0000   1.0000   1.0000   1.0000   1.0000
     1.0000   1.0000   1.0000   1.0000   1.0000   1.0000   1.0000   1.0000
     1.0000   1.0000   1.0000   1.0000   1.0000   1.0000   1.0000   1.0000
     1.0000   1.0000   1.0000   1.0000   1.0000   1.0000   1.0000   1.0000
     1.0000   1.0000   1.0000   1.0000   1.0000   1.0000   1.0000   1.0000
     1.0000   1.0000   1.0000   1.0000   1.0000   1.0000   1.0000   1.0000
     1.0000   1.0000   1.0000   1.0000   1.0000   1.0000   1.0000   1.0000
     1.0000   1.0000   1.0000   1.0000   1.0000   1.0000   1.0000   1.0000
     1.0000   1.0000   1.0000   1.0000   1.0000   1.0000   1.0000   1.0000
     1.0000   1.0000   1.0000   1.0000   1.0000   1.0000   1.0000   1.0000
     1.0000   1.0000   1.0000   1.0000   1.0000   1.0000   1.0000   1.0000

          k =-0.0575 0.0231 0.0050 ( 41258 PWs)   bands (ev):

   -23.7487 -23.7397 -23.7244 -23.7173 -23.4322 -23.4292 -23.4180 -23.4166
   -18.9836 -18.9826 -18.9723 -18.9721 -18.6534 -18.6526 -18.6383 -18.6372
   -18.0853 -18.0638 -17.0416 -17.0013 -16.9119 -16.9117 -15.8930 -15.8796
   -11.9335 -11.9216 -11.8861 -11.8154 -11.6958 -11.6451 -11.6096 -11.6042
    -8.7484  -8.6812  -8.1014  -8.0960  -7.4012  -7.3968  -7.3713  -7.2819
    -6.8592  -6.7852  -6.4823  -6.4602  -6.3030  -6.2919  -6.1805  -6.1617
    -6.0029  -5.9996  -5.8043  -5.7650  -5.7084  -5.6877  -5.6030  -5.5963
    -5.4714  -5.4471  -5.3906  -5.3833  -4.9795  -4.9583  -4.7516  -4.7493
    -4.2948  -4.2653  -4.2212  -4.1798  -3.8760  -3.8437  -3.6329  -3.6252
    -3.5329  -3.5023  -3.4687  -3.4118  -3.0400  -3.0084  -2.8954  -2.8794
    -0.5492  -0.5126  -0.1724  -0.1544  -0.0996  -0.0821  -0.0565  -0.0478
     0.0497   0.0875   0.2088   0.2659   0.3237   0.3638   0.4653   0.5016
     0.6935   0.7544   0.8444   0.8869   0.8880   0.9411   1.0299   1.0431
     1.0859   1.1025   1.1685   1.2393   1.4281   1.4317   1.4456   1.4630

     occupation numbers 
     1.0000   1.0000   1.0000   1.0000   1.0000   1.0000   1.0000   1.0000
     1.0000   1.0000   1.0000   1.0000   1.0000   1.0000   1.0000   1.0000
     1.0000   1.0000   1.0000   1.0000   1.0000   1.0000   1.0000   1.0000
     1.0000   1.0000   1.0000   1.0000   1.0000   1.0000   1.0000   1.0000
     1.0000   1.0000   1.0000   1.0000   1.0000   1.0000   1.0000   1.0000
     1.0000   1.0000   1.0000   1.0000   1.0000   1.0000   1.0000   1.0000
     1.0000   1.0000   1.0000   1.0000   1.0000   1.0000   1.0000   1.0000
     1.0000   1.0000   1.0000   1.0000   1.0000   1.0000   1.0000   1.0000
     1.0000   1.0000   1.0000   1.0000   1.0000   1.0000   1.0000   1.0000
     1.0000   1.0000   1.0000   1.0000   1.0000   1.0000   1.0000   1.0000
     1.0000   1.0000   1.0000   1.0000   1.0000   1.0000   1.0000   1.0000
     1.0000   1.0000   1.0000   1.0000   1.0000   1.0000   1.0000   1.0000
     1.0000   1.0000   1.0000   1.0000   1.0000   1.0000   1.0000   1.0000
     1.0000   1.0000   1.0000   1.0000   1.0000   1.0000   1.0000   1.0000

     highest occupied level (ev):     1.5153

!    total energy              =   -1282.04294727 Ry
     Harris-Foulkes estimate   =   -1282.04294756 Ry
     estimated scf accuracy    <       0.00000032 Ry

     total all-electron energy =     -4786.486695 Ry

     The total energy is the sum of the following terms:

     one-electron contribution =    -621.19399123 Ry
     hartree contribution      =     410.02057172 Ry
     xc contribution           =    -260.08631086 Ry
     ewald contribution        =    -480.39096194 Ry
     one-center paw contrib.   =    -330.39225497 Ry

     convergence has been achieved in  14 iterations

     Forces acting on atoms (Ry/au):

     atom    1 type  1   force =    -0.01199116   -0.00528167   -0.01230825
     atom    2 type  4   force =     0.02588742    0.00514854   -0.01892928
     atom    3 type  1   force =    -0.00347726   -0.00713346   -0.00985764
     atom    4 type  1   force =     0.00645734    0.00206947   -0.00135352
     atom    5 type  4   force =     0.00345787   -0.02560594    0.02827599
     atom    6 type  1   force =     0.00897252    0.00340923   -0.00575809
     atom    7 type  4   force =    -0.00950565    0.01763664    0.03695407
     atom    8 type  2   force =     0.16327464   -0.10175889    0.05084041
     atom    9 type  3   force =    -0.11962667   -0.05610987   -0.12343151
     atom   10 type  3   force =    -0.04028068    0.16021836    0.07077472
     atom   11 type  4   force =    -0.02736014    0.01742231   -0.01366372
     atom   12 type  2   force =     0.12509332   -0.05410902    0.21323972
     atom   13 type  3   force =    -0.19610801   -0.10163092   -0.05998193
     atom   14 type  3   force =     0.06572284    0.15356119   -0.15491034
     atom   15 type  3   force =     0.06572452   -0.15356110   -0.15491120
     atom   16 type  3   force =    -0.19610708    0.10163117   -0.05998358
     atom   17 type  2   force =     0.12509667    0.05410826    0.21324142
     atom   18 type  4   force =    -0.02750470   -0.01752811   -0.01373424
     atom   19 type  3   force =    -0.04027937   -0.16021796    0.07077461
     atom   20 type  3   force =    -0.11962536    0.05610881   -0.12343299
     atom   21 type  2   force =     0.16327822    0.10175980    0.05083834
     atom   22 type  4   force =    -0.00951306   -0.01764824    0.03698848
     atom   23 type  1   force =     0.00900856   -0.00334007   -0.00568519
     atom   24 type  4   force =     0.00345823    0.02547216    0.02811883
     atom   25 type  1   force =     0.00645618   -0.00208640   -0.00137137
     atom   26 type  1   force =    -0.00347083    0.00713367   -0.00987337
     atom   27 type  4   force =     0.02586774   -0.00514541   -0.01892216
     atom   28 type  1   force =    -0.01199104    0.00528290   -0.01230883
     atom   29 type  3   force =    -0.06572284   -0.15356119    0.15491034
     atom   30 type  3   force =     0.19610801    0.10163092    0.05998193
     atom   31 type  2   force =    -0.12509332    0.05410902   -0.21323972
     atom   32 type  4   force =     0.02736014   -0.01742231    0.01366372
     atom   33 type  3   force =     0.04028068   -0.16021836   -0.07077472
     atom   34 type  3   force =     0.11962667    0.05610987    0.12343151
     atom   35 type  2   force =    -0.16327464    0.10175889   -0.05084041
     atom   36 type  4   force =     0.00950565   -0.01763664   -0.03695407
     atom   37 type  1   force =    -0.00897252   -0.00340923    0.00575809
     atom   38 type  4   force =    -0.00345787    0.02560594   -0.02827599
     atom   39 type  1   force =    -0.00645734   -0.00206947    0.00135352
     atom   40 type  1   force =     0.00347726    0.00713346    0.00985764
     atom   41 type  4   force =    -0.02588742   -0.00514854    0.01892928
     atom   42 type  1   force =     0.01199116    0.00528167    0.01230825
     atom   43 type  3   force =    -0.06572452    0.15356110    0.15491120
     atom   44 type  3   force =     0.19610708   -0.10163117    0.05998358
     atom   45 type  2   force =    -0.12509667   -0.05410826   -0.21324142
     atom   46 type  4   force =     0.02750470    0.01752811    0.01373424
     atom   47 type  3   force =     0.04027937    0.16021796   -0.07077461
     atom   48 type  3   force =     0.11962536   -0.05610881    0.12343299
     atom   49 type  2   force =    -0.16327822   -0.10175980   -0.05083834
     atom   50 type  4   force =     0.00951306    0.01764824   -0.03698848
     atom   51 type  1   force =    -0.00900856    0.00334007    0.00568519
     atom   52 type  4   force =    -0.00345823   -0.02547216   -0.02811883
     atom   53 type  1   force =    -0.00645618    0.00208640    0.00137137
     atom   54 type  1   force =     0.00347083   -0.00713367    0.00987337
     atom   55 type  4   force =    -0.02586774    0.00514541    0.01892216
     atom   56 type  1   force =     0.01199104   -0.00528290    0.01230883
     The non-local contrib.  to forces
     atom    1 type  1   force =     0.17949130    0.38155025    0.11765554
     atom    2 type  4   force =    -2.40416843   -0.46621312    1.52930650
     atom    3 type  1   force =     0.04241034   -0.03109030    0.05292300
     atom    4 type  1   force =    -0.58030633   -0.43239005   -0.13281995
     atom    5 type  4   force =     0.16192455    1.85003393   -2.23340488
     atom    6 type  1   force =    -0.00443176    0.06213137    0.05721575
     atom    7 type  4   force =     0.52468423   -1.16606755   -2.61839319
     atom    8 type  2   force =     0.63353113   -0.42761402    0.18168353
     atom    9 type  3   force =     0.07742855    0.02763619    0.06759920
     atom   10 type  3   force =     0.02822079   -0.09686335   -0.03722708
     atom   11 type  4   force =     2.26890065   -1.45924974    0.84876963
     atom   12 type  2   force =     0.39520366   -0.18515429    0.69943529
     atom   13 type  3   force =     0.09554881    0.04783562    0.03650083
     atom   14 type  3   force =    -0.02805573   -0.07453965    0.08117304
     atom   15 type  3   force =    -0.02805604    0.07454061    0.08117405
     atom   16 type  3   force =     0.09554927   -0.04783577    0.03650084
     atom   17 type  2   force =     0.39520961    0.18516931    0.69945683
     atom   18 type  4   force =     2.26877695    1.45913642    0.84865759
     atom   19 type  3   force =     0.02822047    0.09686197   -0.03722662
     atom   20 type  3   force =     0.07742761   -0.02763596    0.06759820
     atom   21 type  2   force =     0.63351687    0.42759916    0.18167192
     atom   22 type  4   force =     0.52467055    1.16605549   -2.61836656
     atom   23 type  1   force =    -0.00449895   -0.06221576    0.05714068
     atom   24 type  4   force =     0.16189790   -1.85016960   -2.23356690
     atom   25 type  1   force =    -0.58031264    0.43237390   -0.13285663
     atom   26 type  1   force =     0.04240162    0.03109049    0.05293330
     atom   27 type  4   force =    -2.40417516    0.46621507    1.52934338
     atom   28 type  1   force =     0.17948298   -0.38155237    0.11766968
     atom   29 type  3   force =     0.02805573    0.07453965   -0.08117304
     atom   30 type  3   force =    -0.09554881   -0.04783562   -0.03650083
     atom   31 type  2   force =    -0.39520366    0.18515429   -0.69943529
     atom   32 type  4   force =    -2.26890065    1.45924974   -0.84876963
     atom   33 type  3   force =    -0.02822079    0.09686335    0.03722708
     atom   34 type  3   force =    -0.07742855   -0.02763619   -0.06759920
     atom   35 type  2   force =    -0.63353113    0.42761402   -0.18168353
     atom   36 type  4   force =    -0.52468423    1.16606755    2.61839319
     atom   37 type  1   force =     0.00443176   -0.06213137   -0.05721575
     atom   38 type  4   force =    -0.16192455   -1.85003393    2.23340488
     atom   39 type  1   force =     0.58030633    0.43239005    0.13281995
     atom   40 type  1   force =    -0.04241034    0.03109030   -0.05292300
     atom   41 type  4   force =     2.40416843    0.46621312   -1.52930650
     atom   42 type  1   force =    -0.17949130   -0.38155025   -0.11765554
     atom   43 type  3   force =     0.02805604   -0.07454061   -0.08117405
     atom   44 type  3   force =    -0.09554927    0.04783577   -0.03650084
     atom   45 type  2   force =    -0.39520961   -0.18516931   -0.69945683
     atom   46 type  4   force =    -2.26877695   -1.45913642   -0.84865759
     atom   47 type  3   force =    -0.02822047   -0.09686197    0.03722662
     atom   48 type  3   force =    -0.07742761    0.02763596   -0.06759820
     atom   49 type  2   force =    -0.63351687   -0.42759916   -0.18167192
     atom   50 type  4   force =    -0.52467055   -1.16605549    2.61836656
     atom   51 type  1   force =     0.00449895    0.06221576   -0.05714068
     atom   52 type  4   force =    -0.16189790    1.85016960    2.23356690
     atom   53 type  1   force =     0.58031264   -0.43237390    0.13285663
     atom   54 type  1   force =    -0.04240162   -0.03109049   -0.05293330
     atom   55 type  4   force =     2.40417516   -0.46621507   -1.52934338
     atom   56 type  1   force =    -0.17948298    0.38155237   -0.11766968
     The ionic contribution  to forces
     atom    1 type  1   force =    -3.03478738    0.20905755   -2.00046672
     atom    2 type  4   force =    12.15418357    4.10932969   -5.92000621
     atom    3 type  1   force =    -0.24705301    1.53245550    0.00534198
     atom    4 type  1   force =     2.81932890    2.84312317    2.03314511
     atom    5 type  4   force =    -1.20921679   -8.45279425   11.27736591
     atom    6 type  1   force =    -0.31114216    0.07002407    1.00310917
     atom    7 type  4   force =    -2.01671640    6.16743187   12.36580157
     atom    8 type  2   force =    -4.03220049    3.18986759   -1.21237597
     atom    9 type  3   force =    -2.19807535   -0.16901412   -1.94153157
     atom   10 type  3   force =    -1.21186693    2.72321084    0.66376501
     atom   11 type  4   force =   -10.99673597    6.02005505   -2.45061154
     atom   12 type  2   force =    -2.79325118    0.91244333   -4.66673822
     atom   13 type  3   force =    -2.60546661   -1.07510307   -1.51971326
     atom   14 type  3   force =     0.25416154    2.00835353   -2.52633650
     atom   15 type  3   force =     0.25416154   -2.00835353   -2.52633650
     atom   16 type  3   force =    -2.60546661    1.07510307   -1.51971326
     atom   17 type  2   force =    -2.79325118   -0.91244333   -4.66673822
     atom   18 type  4   force =   -10.99673597   -6.02005505   -2.45061154
     atom   19 type  3   force =    -1.21186693   -2.72321084    0.66376501
     atom   20 type  3   force =    -2.19807535    0.16901412   -1.94153157
     atom   21 type  2   force =    -4.03220049   -3.18986759   -1.21237597
     atom   22 type  4   force =    -2.01671640   -6.16743187   12.36580157
     atom   23 type  1   force =    -0.31114216   -0.07002407    1.00310917
     atom   24 type  4   force =    -1.20921679    8.45279425   11.27736591
     atom   25 type  1   force =     2.81932890   -2.84312317    2.03314511
     atom   26 type  1   force =    -0.24705301   -1.53245550    0.00534198
     atom   27 type  4   force =    12.15418357   -4.10932969   -5.92000621
     atom   28 type  1   force =    -3.03478738   -0.20905755   -2.00046672
     atom   29 type  3   force =    -0.25416154   -2.00835353    2.52633650
     atom   30 type  3   force =     2.60546661    1.07510307    1.51971326
     atom   31 type  2   force =     2.79325118   -0.91244333    4.66673822
     atom   32 type  4   force =    10.99673597   -6.02005505    2.45061154
     atom   33 type  3   force =     1.21186693   -2.72321084   -0.66376501
     atom   34 type  3   force =     2.19807535    0.16901412    1.94153157
     atom   35 type  2   force =     4.03220049   -3.18986759    1.21237597
     atom   36 type  4   force =     2.01671640   -6.16743187  -12.36580157
     atom   37 type  1   force =     0.31114216   -0.07002407   -1.00310917
     atom   38 type  4   force =     1.20921679    8.45279425  -11.27736591
     atom   39 type  1   force =    -2.81932890   -2.84312317   -2.03314511
     atom   40 type  1   force =     0.24705301   -1.53245550   -0.00534198
     atom   41 type  4   force =   -12.15418357   -4.10932969    5.92000621
     atom   42 type  1   force =     3.03478738   -0.20905755    2.00046672
     atom   43 type  3   force =    -0.25416154    2.00835353    2.52633650
     atom   44 type  3   force =     2.60546661   -1.07510307    1.51971326
     atom   45 type  2   force =     2.79325118    0.91244333    4.66673822
     atom   46 type  4   force =    10.99673597    6.02005505    2.45061154
     atom   47 type  3   force =     1.21186693    2.72321084   -0.66376501
     atom   48 type  3   force =     2.19807535   -0.16901412    1.94153157
     atom   49 type  2   force =     4.03220049    3.18986759    1.21237597
     atom   50 type  4   force =     2.01671640    6.16743187  -12.36580157
     atom   51 type  1   force =     0.31114216    0.07002407   -1.00310917
     atom   52 type  4   force =     1.20921679   -8.45279425  -11.27736591
     atom   53 type  1   force =    -2.81932890    2.84312317   -2.03314511
     atom   54 type  1   force =     0.24705301    1.53245550   -0.00534198
     atom   55 type  4   force =   -12.15418357    4.10932969    5.92000621
     atom   56 type  1   force =     3.03478738    0.20905755    2.00046672
     The local contribution  to forces
     atom    1 type  1   force =     2.84644258   -0.58950414    1.87233543
     atom    2 type  4   force =    -9.74292610   -3.64151255    4.38355704
     atom    3 type  1   force =     0.20087516   -1.51010859   -0.06827475
     atom    4 type  1   force =    -2.24187633   -2.41534496   -1.90329782
     atom    5 type  4   force =     1.05219449    6.59140861   -9.03313949
     atom    6 type  1   force =     0.32593850   -0.12756042   -1.06540020
     atom    7 type  4   force =     1.48656044   -4.99266285   -9.73075351
     atom    8 type  2   force =     3.57552735   -2.87361881    1.08638601
     atom    9 type  3   force =     2.00103631    0.08528042    1.75049522
     atom   10 type  3   force =     1.14337389   -2.46612652   -0.55576047
     atom   11 type  4   force =     8.71848142   -4.55507280    1.59514437
     atom   12 type  2   force =     2.53234948   -0.78527121    4.19626812
     atom   13 type  3   force =     2.31383082    0.92563862    1.42320715
     atom   14 type  3   force =    -0.16036134   -1.78026055    2.29023820
     atom   15 type  3   force =    -0.16037990    1.78026031    2.29025650
     atom   16 type  3   force =     2.31381531   -0.92563391    1.42323944
     atom   17 type  2   force =     2.53231353    0.78529030    4.19636240
     atom   18 type  4   force =     8.71836749    4.55489702    1.59493745
     atom   19 type  3   force =     1.14336147    2.46611940   -0.55575836
     atom   20 type  3   force =     2.00102225   -0.08526892    1.75051168
     atom   21 type  2   force =     3.57547350    2.87362950    1.08641945
     atom   22 type  4   force =     1.48655853    4.99265728   -9.73081915
     atom   23 type  1   force =     0.32575482    0.12722019   -1.06577207
     atom   24 type  4   force =     1.05211890   -6.59159324   -9.03330186
     atom   25 type  1   force =    -2.24196076    2.41521198   -1.90346045
     atom   26 type  1   force =     0.20086287    1.51013091   -0.06816165
     atom   27 type  4   force =    -9.74288277    3.64157692    4.38375333
     atom   28 type  1   force =     2.84641046    0.58952417    1.87241289
     atom   29 type  3   force =     0.16036134    1.78026055   -2.29023820
     atom   30 type  3   force =    -2.31383082   -0.92563862   -1.42320715
     atom   31 type  2   force =    -2.53234948    0.78527121   -4.19626812
     atom   32 type  4   force =    -8.71848142    4.55507280   -1.59514437
     atom   33 type  3   force =    -1.14337389    2.46612652    0.55576047
     atom   34 type  3   force =    -2.00103631   -0.08528042   -1.75049522
     atom   35 type  2   force =    -3.57552735    2.87361881   -1.08638601
     atom   36 type  4   force =    -1.48656044    4.99266285    9.73075351
     atom   37 type  1   force =    -0.32593850    0.12756042    1.06540020
[...]
     atom   22 type  4   force =    -0.00418676   -0.00887814    0.02065883
     atom   23 type  1   force =    -0.00104309    0.00148146   -0.00018579
     atom   24 type  4   force =    -0.00098401    0.01432232    0.01784158
     atom   25 type  1   force =     0.00908985   -0.00585297    0.00065677
     atom   26 type  1   force =     0.00023305   -0.00137026   -0.00000471
     atom   27 type  4   force =     0.01898859   -0.00368402   -0.01203450
     atom   28 type  1   force =    -0.00374991    0.00540096   -0.00275258
     atom   29 type  3   force =     0.00000000    0.00000000    0.00000000
     atom   30 type  3   force =     0.00000000    0.00000000    0.00000000
     atom   31 type  2   force =     0.00557477   -0.00252334    0.01021075
     atom   32 type  4   force =     0.01797965   -0.01160779    0.00686239
     atom   33 type  3   force =     0.00000000    0.00000000    0.00000000
     atom   34 type  3   force =     0.00000000    0.00000000    0.00000000
     atom   35 type  2   force =     0.00907215   -0.00689154    0.00347530
     atom   36 type  4   force =     0.00418496   -0.00887969   -0.02065888
     atom   37 type  1   force =     0.00104301    0.00148242    0.00018487
     atom   38 type  4   force =     0.00098853    0.01432126   -0.01784183
     atom   39 type  1   force =    -0.00908601   -0.00585752   -0.00065384
     atom   40 type  1   force =    -0.00023209   -0.00136978    0.00000440
     atom   41 type  4   force =    -0.01898958   -0.00368396    0.01203319
     atom   42 type  1   force =     0.00375161    0.00540104    0.00275320
     atom   43 type  3   force =     0.00000000    0.00000000    0.00000000
     atom   44 type  3   force =     0.00000000    0.00000000    0.00000000
     atom   45 type  2   force =     0.00557345    0.00252328    0.01020675
     atom   46 type  4   force =     0.01798511    0.01160559    0.00685752
     atom   47 type  3   force =     0.00000000    0.00000000    0.00000000
     atom   48 type  3   force =     0.00000000    0.00000000    0.00000000
     atom   49 type  2   force =     0.00907395    0.00689113    0.00347358
     atom   50 type  4   force =     0.00418676    0.00887814   -0.02065883
     atom   51 type  1   force =     0.00104309   -0.00148146    0.00018579
     atom   52 type  4   force =     0.00098401   -0.01432232   -0.01784158
     atom   53 type  1   force =    -0.00908985    0.00585297   -0.00065677
     atom   54 type  1   force =    -0.00023305    0.00137026    0.00000471
     atom   55 type  4   force =    -0.01898859    0.00368402    0.01203450
     atom   56 type  1   force =     0.00374991   -0.00540096    0.00275258
     The Hubbard contrib.    to forces
     atom    1 type  1   force =     0.00000000    0.00000000    0.00000000
     atom    2 type  4   force =     0.00000000    0.00000000    0.00000000
     atom    3 type  1   force =     0.00000000    0.00000000    0.00000000
     atom    4 type  1   force =     0.00000000    0.00000000    0.00000000
     atom    5 type  4   force =     0.00000000    0.00000000    0.00000000
     atom    6 type  1   force =     0.00000000    0.00000000    0.00000000
     atom    7 type  4   force =     0.00000000    0.00000000    0.00000000
     atom    8 type  2   force =     0.00000000    0.00000000    0.00000000
     atom    9 type  3   force =     0.00000000    0.00000000    0.00000000
     atom   10 type  3   force =     0.00000000    0.00000000    0.00000000
     atom   11 type  4   force =     0.00000000    0.00000000    0.00000000
     atom   12 type  2   force =     0.00000000    0.00000000    0.00000000
     atom   13 type  3   force =     0.00000000    0.00000000    0.00000000
     atom   14 type  3   force =     0.00000000    0.00000000    0.00000000
     atom   15 type  3   force =     0.00000000    0.00000000    0.00000000
     atom   16 type  3   force =     0.00000000    0.00000000    0.00000000
     atom   17 type  2   force =     0.00000000    0.00000000    0.00000000
     atom   18 type  4   force =     0.00000000    0.00000000    0.00000000
     atom   19 type  3   force =     0.00000000    0.00000000    0.00000000
     atom   20 type  3   force =     0.00000000    0.00000000    0.00000000
     atom   21 type  2   force =     0.00000000    0.00000000    0.00000000
     atom   22 type  4   force =     0.00000000    0.00000000    0.00000000
     atom   23 type  1   force =     0.00000000    0.00000000    0.00000000
     atom   24 type  4   force =     0.00000000    0.00000000    0.00000000
     atom   25 type  1   force =     0.00000000    0.00000000    0.00000000
     atom   26 type  1   force =     0.00000000    0.00000000    0.00000000
     atom   27 type  4   force =     0.00000000    0.00000000    0.00000000
     atom   28 type  1   force =     0.00000000    0.00000000    0.00000000
     atom   29 type  3   force =     0.00000000    0.00000000    0.00000000
     atom   30 type  3   force =     0.00000000    0.00000000    0.00000000
     atom   31 type  2   force =     0.00000000    0.00000000    0.00000000
     atom   32 type  4   force =     0.00000000    0.00000000    0.00000000
     atom   33 type  3   force =     0.00000000    0.00000000    0.00000000
     atom   34 type  3   force =     0.00000000    0.00000000    0.00000000
     atom   35 type  2   force =     0.00000000    0.00000000    0.00000000
     atom   36 type  4   force =     0.00000000    0.00000000    0.00000000
     atom   37 type  1   force =     0.00000000    0.00000000    0.00000000
     atom   38 type  4   force =     0.00000000    0.00000000    0.00000000
     atom   39 type  1   force =     0.00000000    0.00000000    0.00000000
     atom   40 type  1   force =     0.00000000    0.00000000    0.00000000
     atom   41 type  4   force =     0.00000000    0.00000000    0.00000000
     atom   42 type  1   force =     0.00000000    0.00000000    0.00000000
     atom   43 type  3   force =     0.00000000    0.00000000    0.00000000
     atom   44 type  3   force =     0.00000000    0.00000000    0.00000000
     atom   45 type  2   force =     0.00000000    0.00000000    0.00000000
     atom   46 type  4   force =     0.00000000    0.00000000    0.00000000
     atom   47 type  3   force =     0.00000000    0.00000000    0.00000000
     atom   48 type  3   force =     0.00000000    0.00000000    0.00000000
     atom   49 type  2   force =     0.00000000    0.00000000    0.00000000
     atom   50 type  4   force =     0.00000000    0.00000000    0.00000000
     atom   51 type  1   force =     0.00000000    0.00000000    0.00000000
     atom   52 type  4   force =     0.00000000    0.00000000    0.00000000
     atom   53 type  1   force =     0.00000000    0.00000000    0.00000000
     atom   54 type  1   force =     0.00000000    0.00000000    0.00000000
     atom   55 type  4   force =     0.00000000    0.00000000    0.00000000
     atom   56 type  1   force =     0.00000000    0.00000000    0.00000000
     The SCF correction term to forces
     atom    1 type  1   force =     0.00000995   -0.00000783   -0.00000273
     atom    2 type  4   force =     0.00000275   -0.00000741   -0.00000493
     atom    3 type  1   force =     0.00002815   -0.00001842   -0.00004697
     atom    4 type  1   force =    -0.00000906   -0.00000071   -0.00001056
     atom    5 type  4   force =     0.00000315    0.00001482   -0.00002125
     atom    6 type  1   force =    -0.00001040    0.00002779   -0.00003484
     atom    7 type  4   force =     0.00001158   -0.00001236   -0.00002519
     atom    8 type  2   force =    -0.00000428   -0.00001003    0.00000238
     atom    9 type  3   force =    -0.00000146   -0.00000264    0.00000222
     atom   10 type  3   force =    -0.00000267   -0.00000297    0.00000142
     atom   11 type  4   force =     0.00000452    0.00000891   -0.00001678
     atom   12 type  2   force =     0.00000545    0.00000139    0.00000999
     atom   13 type  3   force =     0.00000042    0.00000026    0.00000266
     atom   14 type  3   force =     0.00000001    0.00000118    0.00000184
     atom   15 type  3   force =     0.00000010   -0.00000118    0.00000183
     atom   16 type  3   force =     0.00000055   -0.00000021    0.00000258
     atom   17 type  2   force =     0.00000567   -0.00000150    0.00000971
     atom   18 type  4   force =     0.00000448   -0.00000871   -0.00001618
     atom   19 type  3   force =    -0.00000254    0.00000291    0.00000147
     atom   20 type  3   force =    -0.00000138    0.00000260    0.00000223
     atom   21 type  2   force =    -0.00000388    0.00000971    0.00000259
     atom   22 type  4   force =     0.00001188    0.00001254   -0.00002568
     atom   23 type  1   force =    -0.00000900   -0.00002619   -0.00003309
     atom   24 type  4   force =     0.00000363   -0.00001406   -0.00002023
     atom   25 type  1   force =    -0.00000827    0.00000104   -0.00001003
     atom   26 type  1   force =     0.00003020    0.00001719   -0.00004755
     atom   27 type  4   force =     0.00000082    0.00000729   -0.00000393
     atom   28 type  1   force =     0.00001091    0.00000703   -0.00000285
     atom   29 type  3   force =    -0.00000001   -0.00000118   -0.00000184
     atom   30 type  3   force =    -0.00000042   -0.00000026   -0.00000266
     atom   31 type  2   force =    -0.00000545   -0.00000139   -0.00000999
     atom   32 type  4   force =    -0.00000452   -0.00000891    0.00001678
     atom   33 type  3   force =     0.00000267    0.00000297   -0.00000142
     atom   34 type  3   force =     0.00000146    0.00000264   -0.00000222
     atom   35 type  2   force =     0.00000428    0.00001003   -0.00000238
     atom   36 type  4   force =    -0.00001158    0.00001236    0.00002519
     atom   37 type  1   force =     0.00001040   -0.00002779    0.00003484
     atom   38 type  4   force =    -0.00000315   -0.00001482    0.00002125
     atom   39 type  1   force =     0.00000906    0.00000071    0.00001056
     atom   40 type  1   force =    -0.00002815    0.00001842    0.00004697
     atom   41 type  4   force =    -0.00000275    0.00000741    0.00000493
     atom   42 type  1   force =    -0.00000995    0.00000783    0.00000273
     atom   43 type  3   force =    -0.00000010    0.00000118   -0.00000183
     atom   44 type  3   force =    -0.00000055    0.00000021   -0.00000258
     atom   45 type  2   force =    -0.00000567    0.00000150   -0.00000971
     atom   46 type  4   force =    -0.00000448    0.00000871    0.00001618
     atom   47 type  3   force =     0.00000254   -0.00000291   -0.00000147
     atom   48 type  3   force =     0.00000138   -0.00000260   -0.00000223
     atom   49 type  2   force =     0.00000388   -0.00000971   -0.00000259
     atom   50 type  4   force =    -0.00001188   -0.00001254    0.00002568
     atom   51 type  1   force =     0.00000900    0.00002619    0.00003309
     atom   52 type  4   force =    -0.00000363    0.00001406    0.00002023
     atom   53 type  1   force =     0.00000827   -0.00000104    0.00001003
     atom   54 type  1   force =    -0.00003020   -0.00001719    0.00004755
     atom   55 type  4   force =    -0.00000082   -0.00000729    0.00000393
     atom   56 type  1   force =    -0.00001091   -0.00000703    0.00000285

     Total force =     0.005522     Total SCF correction =     0.000180


     entering subroutine stress ...

          total   stress  (Ry/bohr**3)                   (kbar)     P=   20.95
   0.00014022   0.00000026  -0.00000494         20.63      0.04     -0.73
   0.00000026   0.00014216  -0.00000041          0.04     20.91     -0.06
  -0.00000494  -0.00000041   0.00014496         -0.73     -0.06     21.32

     kinetic stress (kbar)  15241.03     -0.09    329.01
                               -0.09  15692.06      0.05
                              329.01      0.05  15211.06

     local   stress (kbar) -15146.59     -0.64   7521.20
                               -0.64  -8163.27      0.64
                             7521.20      0.64 -11459.28

     nonloc. stress (kbar)   1053.32     -0.01      7.68
                               -0.01   1063.55      0.01
                                7.68      0.01   1024.64

     hartree stress (kbar)   6827.62      0.07  -2718.44
                                0.07   4812.29     -0.11
                            -2718.44     -0.11   5433.34

     exc-cor stress (kbar)  -2201.09      0.00    -10.89
                                0.00  -2222.49     -0.00
                              -10.89     -0.00  -2206.71

     corecor stress (kbar)  -1152.30     -0.00     -2.30
                               -0.00  -1154.29      0.00
                               -2.30      0.00  -1152.37

     ewald   stress (kbar)  -4601.36      0.72  -5126.98
                                0.72 -10006.93     -0.65
                            -5126.98     -0.65  -6829.37

     hubbard stress (kbar)      0.00      0.00      0.00
                                0.00      0.00      0.00
                                0.00      0.00      0.00

     london  stress (kbar)      0.00      0.00      0.00
                                0.00      0.00      0.00
                                0.00      0.00      0.00

     XDM     stress (kbar)      0.00      0.00      0.00
                                0.00      0.00      0.00
                                0.00      0.00      0.00

     dft-nl  stress (kbar)      0.00      0.00      0.00
                                0.00      0.00      0.00
                                0.00      0.00      0.00

     TS-vdW  stress (kbar)      0.00      0.00      0.00
                                0.00      0.00      0.00
                                0.00      0.00      0.00



     bfgs converged in  21 scf cycles and  20 bfgs steps
     (criteria: energy <  1.0E-04, force <  1.0E-03)

     End of BFGS Geometry Optimization

     Final energy   =   -1282.3730511752 Ry
Begin final coordinates

ATOMIC_POSITIONS (crystal)
N        0.978214268   0.625753372   0.457319256
O        1.274037507   0.723717912   0.434289130
N        1.140193186   0.706218110   0.529662202
N        0.854027640   0.524726987   0.704293857
O        0.725925484   0.427490103   0.927118085
N        0.694005821   0.501227348   0.794361868
O        1.140376432   0.751040511   0.685182645
C        0.806791973   0.616500011   0.551429473
H        0.667116428   0.588615475   0.448417423
H        0.779269895   0.705975952   0.610905815
O        0.528185448   0.560235623   0.737093400
C        0.978201576   0.565207600   0.279740599
H        0.824856872   0.520709168   0.235385940
H        0.999046207   0.631474333   0.172608362
H        0.499050578  -0.131476981  -0.327386908
H        0.324860422  -0.020710698  -0.264616063
C        0.478207176  -0.065206053  -0.220254656
O        0.028203805  -0.060226200   0.237104469
H        0.279264699  -0.205974468   0.110907801
H        0.167119854  -0.088614685  -0.051585566
C        0.306781751  -0.116500340   0.051426160
O        0.640378992  -0.251041209   0.185182618
N        0.193976293  -0.001247539   0.294328363
O        0.225932813   0.072524734   0.427138815
N        0.354029656  -0.024718231   0.204294955
N        0.640205345  -0.206218341   0.029649355
O        0.774029412  -0.223715235  -0.065709981
N        0.478214675  -0.125753475  -0.042679641
H        1.000953793   0.368525667   0.827391638
H        1.175143128   0.479290832   0.764614060
C        1.021798424   0.434792400   0.720259401
O        1.471814552   0.439764377   0.262906600
H        1.220730105   0.294024048   0.389094185
H        1.332883572   0.411384525   0.551582577
C        1.193208027   0.383499989   0.448570527
O        0.859623568   0.248959489   0.314817355
N        1.305994179   0.498772652   0.205638132
O        1.274074516   0.572509897   0.072881915
N        1.145972360   0.475273013   0.295706143
N        0.859806814   0.293781890   0.470337798
O        0.725962493   0.276282088   0.565710870
N        1.021785732   0.374246628   0.542680744
H        0.500949422   0.131476981   0.327386908
H        0.675139578   0.020710698   0.264616063
C        0.521792824   0.065206053   0.220254656
O        0.971796195   0.060226200  -0.237104469
H        0.720735301   0.205974468  -0.110907801
H        0.832880146   0.088614685   0.051585566
C        0.693218249   0.116500340  -0.051426160
O        0.359621008   0.251041209  -0.185182618
N        0.806023707   0.001247539  -0.294328363
O        0.774067187  -0.072524734  -0.427138815
N        0.645970344   0.024718231  -0.204294955
N        0.359794655   0.206218341  -0.029649355
O        0.225970588   0.223715235   0.065709981
N        0.521785325   0.125753475   0.042679641
End final coordinates



     Writing output data file relax.pbe.ec-80.kp-4x2x4.HMX-792934.np-32.default-conv-thr.save

     init_run     :     68.20s CPU     85.04s WALL (       1 calls)
     electrons    :  39018.35s CPU  45202.70s WALL (      21 calls)
     update_pot   :    546.73s CPU    580.34s WALL (      20 calls)
     forces       :    908.90s CPU   1172.75s WALL (      21 calls)
     stress       :   2809.85s CPU   2876.76s WALL (      21 calls)

     Called by init_run:
     wfcinit      :     38.68s CPU     45.98s WALL (       1 calls)
     potinit      :     10.01s CPU     10.80s WALL (       1 calls)

     Called by electrons:
     c_bands      :  33524.23s CPU  38521.93s WALL (     304 calls)
     sum_band     :   4860.80s CPU   5961.75s WALL (     304 calls)
     v_of_rho     :    135.81s CPU    162.52s WALL (     313 calls)
     v_h          :      8.52s CPU     11.27s WALL (     313 calls)
     v_xc         :    145.69s CPU    171.32s WALL (     355 calls)
     newd         :    283.54s CPU    270.18s WALL (     313 calls)
     PAW_pot      :    106.84s CPU    115.17s WALL (     333 calls)
     mix_rho      :    110.81s CPU    123.99s WALL (     304 calls)

     Called by c_bands:
     init_us_2    :    231.31s CPU    232.69s WALL (   10736 calls)
     cegterg      :  32301.99s CPU  36952.20s WALL (    4864 calls)

     Called by sum_band:
     sum_band:bec :      7.41s CPU      7.24s WALL (    5184 calls)
     addusdens    :    713.43s CPU    600.29s WALL (     304 calls)

     Called by *egterg:
     h_psi        :  14408.46s CPU  18321.62s WALL (   22928 calls)
     s_psi        :   2517.32s CPU   1986.86s WALL (   22928 calls)
     g_psi        :     34.22s CPU     39.92s WALL (   18048 calls)
     cdiaghg      :   7253.09s CPU   6561.61s WALL (   22400 calls)
     cegterg:over :   3298.07s CPU   4981.40s WALL (   18048 calls)
     cegterg:upda :   1893.31s CPU   1423.88s WALL (   18048 calls)
     cegterg:last :   1057.80s CPU    805.19s WALL (    5184 calls)

     Called by h_psi:
     h_psi:vloc   :   8145.04s CPU  10226.64s WALL (   22928 calls)
     h_psi:vnl    :   6140.04s CPU   7970.10s WALL (   22928 calls)
     add_vuspsi   :   2679.20s CPU   2832.08s WALL (   22928 calls)

     General routines
     calbec       :   5087.50s CPU   7822.72s WALL (   29792 calls)
     fft          :    121.54s CPU    200.51s WALL (    5517 calls)
     ffts         :      4.84s CPU     10.73s WALL (     617 calls)
     fftw         :   7334.78s CPU   9793.90s WALL ( 3641444 calls)
     interpolate  :     45.89s CPU     59.76s WALL (     617 calls)
     davcio       :      0.76s CPU     42.42s WALL (      16 calls)

     Parallel routines
     fft_scatter  :   3508.80s CPU   5813.44s WALL ( 3647578 calls)

     PAW routines
     PAW_pot      :    106.84s CPU    115.17s WALL (     333 calls)
     PAW_symme    :      0.56s CPU      1.12s WALL (     637 calls)

     PWSCF        :    12h 6m CPU       13h59m WALL


   This run was terminated on:  10:51:21  22Jul2016            

=------------------------------------------------------------------------------=
   JOB DONE.
=------------------------------------------------------------------------------=
