 INFO
nunit      1    1    1
unit   tr_asym
celltype   convcell
shape   parapipedal
 END_INFO
 DIM-GROUP
           3           1
 PRIMVEC
    6.5249969690    0.0000000000    0.0000000000
    0.0000000000   10.8399949650    0.0000000000
   -1.5559102770    0.0000000000    7.1534426770
 CONVVEC
    6.5249969690    0.0000000000    0.0000000000
    0.0000000000   10.8399949650    0.0000000000
   -1.5559102770    0.0000000000    7.1534426770
 PRIMCOORD
          56           1
  7      5.6712974030     6.7831634020     3.2714070830    -0.0000415500    -0.0009001400     0.0001830600
  8      7.6373759510     7.8450985220     3.1066623970    -0.0007303300     0.0002723800     0.0003178300
  7      6.6156502190     7.6554007560     3.7889082000    -0.0000598200    -0.0000578600     0.0000176100
  7      4.4767097120     5.6880378970     5.0381257340    -0.0001053200    -0.0002009000     0.0005807500
  8      3.2941490260     4.6339905640     6.6320860760    -0.0001465800    -0.0003998800     0.0002387400
  7      3.2924300840     5.4333019290     5.6824220880    -0.0008120700     0.0004545700    -0.0001863800
  8      6.3748700430     8.1412753580     4.9014147740    -0.0007265500     0.0000917900     0.0000729200
  6      4.4063403940     6.6828570150     3.9446191260    -0.0003144800     0.0008347200     0.0004671800
  1      3.6552353940     6.3805887850     3.2077283310     0.0005148900    -0.0000399900     0.0001690900
  1      4.1342190670     7.6527757650     4.3700797290    -0.0008097900     0.0006074400    -0.0000909800
  8      2.2995572510     6.0729513320     5.2727553850    -0.0002303000    -0.0005006300     0.0004130500
  6      5.9475110460     6.1268475380     2.0011083390    -0.0000770600     0.0001511700    -0.0002289200
  1      5.0159491870     5.6444847590     1.6838198290     0.0000776300     0.0000573100     0.0002967300
  1      6.2502103480     6.8451785900     1.2347440230    -0.0006885300     0.0004707200    -0.0003217200
  1      3.7656881640    -1.4252098120    -2.3419434800    -0.0006921200    -0.0004439100    -0.0003116800
  1      2.5314321210    -0.2245038620    -1.8929158380     0.0000916900    -0.0000449700     0.0002876400
  6      3.4629968570    -0.7068332860    -1.5755790560    -0.0001223300    -0.0002637900    -0.0003132200
  8     -0.1848835380    -0.6528517050     1.6961132270    -0.0007729200     0.0000972600     0.0001303100
  1      1.6496387270    -2.2327621960     0.7933725970    -0.0008138200    -0.0006071500    -0.0000815700
  1      1.1707190530    -0.9605827390    -0.3690143890     0.0004688300     0.0000528200     0.0001266100
  6      1.9217355050    -1.2628630990     0.3678740880    -0.0001042100    -0.0008081600     0.0005365400
  8      3.8903434430    -2.7212854420     1.3246932430    -0.0006769500    -0.0000519700    -0.0000629500
  7      0.8077461990    -0.0135233170     2.1054610730    -0.0001620000     0.0007053700     0.0009380400
  8      0.8096212480     0.7861677510     3.0555130280    -0.0001898500    -0.0002233900    -0.0004750500
  7      1.9921778120    -0.2679455000     1.4614122500    -0.0002653700    -0.0000659000     0.0003951800
  7      4.1312062000    -2.2354057780     0.2120949610    -0.0004387500     0.0000553200     0.0003747500
  8      5.1527784020    -2.4250720210    -0.4700525820    -0.0004525900    -0.0003144900     0.0001505000
  7      3.1867549970    -1.3631670360    -0.3053063650    -0.0000511000     0.0009024900     0.0001697900
  1      5.2438733130     3.9948163750     5.9186986540     0.0006885300    -0.0004707200     0.0003217200
  1      6.4781344740     5.1955102060     5.4696228480    -0.0000776300    -0.0000573100    -0.0002967300
  6      5.5465726150     4.7131474270     5.1523343380     0.0000770600    -0.0001511700     0.0002289200
  8      9.1945264100     4.7670436320     1.8806872930     0.0002303000     0.0005006300    -0.0004130500
  1      7.3598645940     3.1872192000     2.7833629480     0.0008097900    -0.0006074400     0.0000909800
  1      7.8388482670     4.4594061800     3.9457143460    -0.0005148900     0.0000399900    -0.0001690900
  6      7.0877432670     4.1571379500     3.2088235520     0.0003144800    -0.0008347200    -0.0004671800
  8      5.1192136180     2.6987196070     2.2520279030     0.0007265500    -0.0000917900    -0.0000729200
  7      8.2016535770     5.4066930360     1.4710205890     0.0008120700    -0.0004545700     0.0001863800
  8      8.1999346350     6.2060044010     0.5213566010     0.0001465800     0.0003998800    -0.0002387400
  7      7.0173739490     5.1519570680     2.1153169430     0.0001053200     0.0002009000    -0.0005807500
  7      4.8784334420     3.1845942080     3.3645344770     0.0000598200     0.0000578600    -0.0000176100
  8      3.8567077100     2.9948964430     4.0467802800     0.0007303300    -0.0002723800    -0.0003178300
  7      5.8227862570     4.0568315630     3.8820355940     0.0000415500     0.0009001400    -0.0001830600
  1      2.7593088050     1.4252098120     2.3419434800     0.0006921200     0.0004439100     0.0003116800
  1      3.9935648480     0.2245038620     1.8929158380    -0.0000916900     0.0000449700    -0.0002876400
  6      3.0620001120     0.7068332860     1.5755790560     0.0001223300     0.0002637900     0.0003132200
  8      6.7098805070     0.6528517050    -1.6961132270     0.0007729200    -0.0000972600    -0.0001303100
  1      4.8753582420     2.2327621960    -0.7933725970     0.0008138200     0.0006071500     0.0000815700
  1      5.3542779160     0.9605827390     0.3690143890    -0.0004688300    -0.0000528200    -0.0001266100
  6      4.6032614650     1.2628630990    -0.3678740880     0.0001042100     0.0008081600    -0.0005365400
  8      2.6346535260     2.7212854420    -1.3246932430     0.0006769500     0.0000519700     0.0000629500
  7      5.7172507700     0.0135233170    -2.1054610730     0.0001620000    -0.0007053700    -0.0009380400
  8      5.7153757210    -0.7861677510    -3.0555130280     0.0001898500     0.0002233900     0.0004750500
  7      4.5328191570     0.2679455000    -1.4614122500     0.0002653700     0.0000659000    -0.0003951800
  7      2.3937907700     2.2354057780    -0.2120949610     0.0004387500    -0.0000553200    -0.0003747500
  8      1.3722185670     2.4250720210     0.4700525820     0.0004525900     0.0003144900    -0.0001505000
  7      3.3382419720     1.3631670360     0.3053063650     0.0000511000    -0.0009024900    -0.0001697900
 CONVCOORD
          56           1
  7      5.6712974030     6.7831634020     3.2714070830
  8      1.1123789820     7.8450985220     3.1066623970
  7      0.0906532500     7.6554007560     3.7889082000
  7      4.4767097120     5.6880378970     5.0381257340
  8      3.2941490260     4.6339905640     6.6320860760
  7      3.2924300840     5.4333019290     5.6824220880
  8     -0.1501269260     8.1412753580     4.9014147740
  6      4.4063403940     6.6828570150     3.9446191260
  1      3.6552353940     6.3805887850     3.2077283310
  1      4.1342190670     7.6527757650     4.3700797290
  8      2.2995572510     6.0729513320     5.2727553850
  6      5.9475110460     6.1268475380     2.0011083390
  1      5.0159491870     5.6444847590     1.6838198290
  1      6.2502103480     6.8451785900     1.2347440230
  1      3.7656881640    -1.4252098120    -2.3419434800
  1      2.5314321210    -0.2245038620    -1.8929158380
  6      3.4629968570    -0.7068332860    -1.5755790560
  8     -0.1848835380    -0.6528517050     1.6961132270
  1      1.6496387270    -2.2327621960     0.7933725970
  1      1.1707190530    -0.9605827390    -0.3690143890
  6      1.9217355050    -1.2628630990     0.3678740880
  8      3.8903434430    -2.7212854420     1.3246932430
  7      0.8077461990    -0.0135233170     2.1054610730
  8      0.8096212480     0.7861677510     3.0555130280
  7      1.9921778120    -0.2679455000     1.4614122500
  7      4.1312062000    -2.2354057780     0.2120949610
  8      5.1527784020    -2.4250720210    -0.4700525820
  7      3.1867549970    -1.3631670360    -0.3053063650
  1     -1.2811236560     3.9948163750     5.9186986540
  1     -0.0468624950     5.1955102060     5.4696228480
  6     -0.9784243540     4.7131474270     5.1523343380
  8      2.6695294410     4.7670436320     1.8806872930
  1      0.8348676250     3.1872192000     2.7833629480
  1      1.3138512980     4.4594061800     3.9457143460
  6      0.5627462980     4.1571379500     3.2088235520
  8      5.1192136180     2.6987196070     2.2520279030
  7      1.6766566080     5.4066930360     1.4710205890
  8      1.6749376660     6.2060044010     0.5213566010
  7      0.4923769800     5.1519570680     2.1153169430
  7      4.8784334420     3.1845942080     3.3645344770
  8      3.8567077100     2.9948964430     4.0467802800
  7     -0.7022107120     4.0568315630     3.8820355940
  1      2.7593088050     1.4252098120     2.3419434800
  1      3.9935648480     0.2245038620     1.8929158380
  6      3.0620001120     0.7068332860     1.5755790560
  8      6.7098805070     0.6528517050    -1.6961132270
  1      4.8753582420     2.2327621960    -0.7933725970
  1      5.3542779160     0.9605827390     0.3690143890
  6      4.6032614650     1.2628630990    -0.3678740880
  8      2.6346535260     2.7212854420    -1.3246932430
  7      5.7172507700     0.0135233170    -2.1054610730
  8      5.7153757210    -0.7861677510    -3.0555130280
  7      4.5328191570     0.2679455000    -1.4614122500
  7      2.3937907700     2.2354057780    -0.2120949610
  8      1.3722185670     2.4250720210     0.4700525820
  7      3.3382419720     1.3631670360     0.3053063650
 RECIP-PRIMVEC
    0.1532567762   -0.0000000000    0.0333341307

    0.0000000000    0.0922509654   -0.0000000000

    0.0000000000    0.0000000000    0.1397928306

 RECIP-CONVVEC
    0.1532567762   -0.0000000000    0.0333341307

    0.0000000000    0.0922509654   -0.0000000000

    0.0000000000    0.0000000000    0.1397928306

 WIGNER-SEITZ-PRIMCELL
           4
 -0.3262498E+01  0.5419997E+01 -0.3036320E+01  -0.5705057E+00  0.2968842E-16 -0.8212937E+00
 -0.1706588E+01  0.5419997E+01 -0.4117122E+01  -0.5705057E+00  0.2968842E-16 -0.8212937E+00
 -0.1706588E+01 -0.5419997E+01 -0.4117122E+01  -0.5705057E+00  0.2968842E-16 -0.8212937E+00
 -0.3262498E+01 -0.5419997E+01 -0.3036320E+01  -0.5705057E+00  0.2968842E-16 -0.8212937E+00
           4
 -0.3262498E+01  0.5419997E+01 -0.3036320E+01  -0.1000000E+01 -0.0000000E+00 -0.0000000E+00
 -0.3262498E+01 -0.5419997E+01 -0.3036320E+01  -0.1000000E+01 -0.0000000E+00 -0.0000000E+00
 -0.3262498E+01 -0.5419997E+01  0.3036320E+01  -0.1000000E+01 -0.0000000E+00 -0.0000000E+00
 -0.3262498E+01  0.5419997E+01  0.3036320E+01  -0.1000000E+01 -0.0000000E+00 -0.0000000E+00
           6
  0.3262498E+01 -0.5419997E+01  0.3036320E+01  -0.1118598E-30 -0.1000000E+01 -0.5037718E-15
  0.1706588E+01 -0.5419997E+01  0.4117122E+01  -0.1118598E-30 -0.1000000E+01 -0.5037718E-15
 -0.3262498E+01 -0.5419997E+01  0.3036320E+01  -0.1118598E-30 -0.1000000E+01 -0.5037718E-15
 -0.3262498E+01 -0.5419997E+01 -0.3036320E+01  -0.1118598E-30 -0.1000000E+01 -0.5037718E-15
 -0.1706588E+01 -0.5419997E+01 -0.4117122E+01  -0.1118598E-30 -0.1000000E+01 -0.5037718E-15
  0.3262498E+01 -0.5419997E+01 -0.3036320E+01  -0.1118598E-30 -0.1000000E+01 -0.5037718E-15
           4
  0.3262498E+01  0.5419997E+01 -0.3036320E+01   0.2125358E+00 -0.6444916E-16 -0.9771533E+00
  0.3262498E+01 -0.5419997E+01 -0.3036320E+01   0.2125358E+00 -0.6444916E-16 -0.9771533E+00
 -0.1706588E+01 -0.5419997E+01 -0.4117122E+01   0.2125358E+00 -0.6444916E-16 -0.9771533E+00
 -0.1706588E+01  0.5419997E+01 -0.4117122E+01   0.2125358E+00 -0.6444916E-16 -0.9771533E+00
           4
  0.1706588E+01  0.5419997E+01  0.4117122E+01  -0.2125358E+00  0.9950440E-16  0.9771533E+00
 -0.3262498E+01  0.5419997E+01  0.3036320E+01  -0.2125358E+00  0.9950440E-16  0.9771533E+00
 -0.3262498E+01 -0.5419997E+01  0.3036320E+01  -0.2125358E+00  0.9950440E-16  0.9771533E+00
  0.1706588E+01 -0.5419997E+01  0.4117122E+01  -0.2125358E+00  0.9950440E-16  0.9771533E+00
           6
  0.3262498E+01  0.5419997E+01 -0.3036320E+01   0.2237196E-30  0.1000000E+01  0.7556577E-15
 -0.1706588E+01  0.5419997E+01 -0.4117122E+01   0.2237196E-30  0.1000000E+01  0.7556577E-15
 -0.3262498E+01  0.5419997E+01 -0.3036320E+01   0.2237196E-30  0.1000000E+01  0.7556577E-15
 -0.3262498E+01  0.5419997E+01  0.3036320E+01   0.2237196E-30  0.1000000E+01  0.7556577E-15
  0.1706588E+01  0.5419997E+01  0.4117122E+01   0.2237196E-30  0.1000000E+01  0.7556577E-15
  0.3262498E+01  0.5419997E+01  0.3036320E+01   0.2237196E-30  0.1000000E+01  0.7556577E-15
           4
  0.3262498E+01  0.5419997E+01  0.3036320E+01   0.1000000E+01  0.0000000E+00  0.0000000E+00
  0.3262498E+01 -0.5419997E+01  0.3036320E+01   0.1000000E+01  0.0000000E+00  0.0000000E+00
  0.3262498E+01 -0.5419997E+01 -0.3036320E+01   0.1000000E+01  0.0000000E+00  0.0000000E+00
  0.3262498E+01  0.5419997E+01 -0.3036320E+01   0.1000000E+01  0.0000000E+00  0.0000000E+00
           4
  0.1706588E+01 -0.5419997E+01  0.4117122E+01   0.5705057E+00  0.2263805E-15  0.8212937E+00
  0.3262498E+01 -0.5419997E+01  0.3036320E+01   0.5705057E+00  0.2263805E-15  0.8212937E+00
  0.3262498E+01  0.5419997E+01  0.3036320E+01   0.5705057E+00  0.2263805E-15  0.8212937E+00
  0.1706588E+01  0.5419997E+01  0.4117122E+01   0.5705057E+00  0.2263805E-15  0.8212937E+00
 WIGNER-SEITZ-PRIMCELL_END
 WIGNER-SEITZ-CONVCELL
           4
 -0.3262498E+01  0.5419997E+01 -0.3036320E+01  -0.5705057E+00  0.2968842E-16 -0.8212937E+00
 -0.1706588E+01  0.5419997E+01 -0.4117122E+01  -0.5705057E+00  0.2968842E-16 -0.8212937E+00
 -0.1706588E+01 -0.5419997E+01 -0.4117122E+01  -0.5705057E+00  0.2968842E-16 -0.8212937E+00
 -0.3262498E+01 -0.5419997E+01 -0.3036320E+01  -0.5705057E+00  0.2968842E-16 -0.8212937E+00
           4
 -0.3262498E+01  0.5419997E+01 -0.3036320E+01  -0.1000000E+01 -0.0000000E+00 -0.0000000E+00
 -0.3262498E+01 -0.5419997E+01 -0.3036320E+01  -0.1000000E+01 -0.0000000E+00 -0.0000000E+00
 -0.3262498E+01 -0.5419997E+01  0.3036320E+01  -0.1000000E+01 -0.0000000E+00 -0.0000000E+00
 -0.3262498E+01  0.5419997E+01  0.3036320E+01  -0.1000000E+01 -0.0000000E+00 -0.0000000E+00
           6
  0.3262498E+01 -0.5419997E+01  0.3036320E+01  -0.1118598E-30 -0.1000000E+01 -0.5037718E-15
  0.1706588E+01 -0.5419997E+01  0.4117122E+01  -0.1118598E-30 -0.1000000E+01 -0.5037718E-15
 -0.3262498E+01 -0.5419997E+01  0.3036320E+01  -0.1118598E-30 -0.1000000E+01 -0.5037718E-15
 -0.3262498E+01 -0.5419997E+01 -0.3036320E+01  -0.1118598E-30 -0.1000000E+01 -0.5037718E-15
 -0.1706588E+01 -0.5419997E+01 -0.4117122E+01  -0.1118598E-30 -0.1000000E+01 -0.5037718E-15
  0.3262498E+01 -0.5419997E+01 -0.3036320E+01  -0.1118598E-30 -0.1000000E+01 -0.5037718E-15
           4
  0.3262498E+01  0.5419997E+01 -0.3036320E+01   0.2125358E+00 -0.6444916E-16 -0.9771533E+00
  0.3262498E+01 -0.5419997E+01 -0.3036320E+01   0.2125358E+00 -0.6444916E-16 -0.9771533E+00
 -0.1706588E+01 -0.5419997E+01 -0.4117122E+01   0.2125358E+00 -0.6444916E-16 -0.9771533E+00
 -0.1706588E+01  0.5419997E+01 -0.4117122E+01   0.2125358E+00 -0.6444916E-16 -0.9771533E+00
           4
  0.1706588E+01  0.5419997E+01  0.4117122E+01  -0.2125358E+00  0.9950440E-16  0.9771533E+00
 -0.3262498E+01  0.5419997E+01  0.3036320E+01  -0.2125358E+00  0.9950440E-16  0.9771533E+00
 -0.3262498E+01 -0.5419997E+01  0.3036320E+01  -0.2125358E+00  0.9950440E-16  0.9771533E+00
  0.1706588E+01 -0.5419997E+01  0.4117122E+01  -0.2125358E+00  0.9950440E-16  0.9771533E+00
           6
  0.3262498E+01  0.5419997E+01 -0.3036320E+01   0.2237196E-30  0.1000000E+01  0.7556577E-15
 -0.1706588E+01  0.5419997E+01 -0.4117122E+01   0.2237196E-30  0.1000000E+01  0.7556577E-15
 -0.3262498E+01  0.5419997E+01 -0.3036320E+01   0.2237196E-30  0.1000000E+01  0.7556577E-15
 -0.3262498E+01  0.5419997E+01  0.3036320E+01   0.2237196E-30  0.1000000E+01  0.7556577E-15
  0.1706588E+01  0.5419997E+01  0.4117122E+01   0.2237196E-30  0.1000000E+01  0.7556577E-15
  0.3262498E+01  0.5419997E+01  0.3036320E+01   0.2237196E-30  0.1000000E+01  0.7556577E-15
           4
  0.3262498E+01  0.5419997E+01  0.3036320E+01   0.1000000E+01  0.0000000E+00  0.0000000E+00
  0.3262498E+01 -0.5419997E+01  0.3036320E+01   0.1000000E+01  0.0000000E+00  0.0000000E+00
  0.3262498E+01 -0.5419997E+01 -0.3036320E+01   0.1000000E+01  0.0000000E+00  0.0000000E+00
  0.3262498E+01  0.5419997E+01 -0.3036320E+01   0.1000000E+01  0.0000000E+00  0.0000000E+00
           4
  0.1706588E+01 -0.5419997E+01  0.4117122E+01   0.5705057E+00  0.2263805E-15  0.8212937E+00
  0.3262498E+01 -0.5419997E+01  0.3036320E+01   0.5705057E+00  0.2263805E-15  0.8212937E+00
  0.3262498E+01  0.5419997E+01  0.3036320E+01   0.5705057E+00  0.2263805E-15  0.8212937E+00
  0.1706588E+01  0.5419997E+01  0.4117122E+01   0.5705057E+00  0.2263805E-15  0.8212937E+00
 WIGNER-SEITZ-CONVCELL_END
 BRILLOUIN-ZONE-PRIMCELL
           4
 -0.8820604E-01  0.4612548E-01  0.3656228E-01  -0.9771533E+00  0.2015102E-15 -0.2125358E+00
 -0.6505073E-01  0.4612548E-01 -0.6989642E-01  -0.9771533E+00  0.2015102E-15 -0.2125358E+00
 -0.6505073E-01 -0.4612548E-01 -0.6989642E-01  -0.9771533E+00  0.2015102E-15 -0.2125358E+00
 -0.8820604E-01 -0.4612548E-01  0.3656228E-01  -0.9771533E+00  0.2015102E-15 -0.2125358E+00
           4
 -0.6505073E-01  0.4612548E-01  0.6989642E-01  -0.8212937E+00  0.1142845E-15  0.5705057E+00
 -0.8820604E-01  0.4612548E-01  0.3656228E-01  -0.8212937E+00  0.1142845E-15  0.5705057E+00
 -0.8820604E-01 -0.4612548E-01  0.3656228E-01  -0.8212937E+00  0.1142845E-15  0.5705057E+00
 -0.6505073E-01 -0.4612548E-01  0.6989642E-01  -0.8212937E+00  0.1142845E-15  0.5705057E+00
           6
  0.6505073E-01 -0.4612548E-01  0.6989642E-01  -0.0000000E+00 -0.1000000E+01  0.0000000E+00
 -0.6505073E-01 -0.4612548E-01  0.6989642E-01  -0.0000000E+00 -0.1000000E+01  0.0000000E+00
 -0.8820604E-01 -0.4612548E-01  0.3656228E-01  -0.0000000E+00 -0.1000000E+01  0.0000000E+00
 -0.6505073E-01 -0.4612548E-01 -0.6989642E-01  -0.0000000E+00 -0.1000000E+01  0.0000000E+00
  0.6505073E-01 -0.4612548E-01 -0.6989642E-01  -0.0000000E+00 -0.1000000E+01  0.0000000E+00
  0.8820604E-01 -0.4612548E-01 -0.3656228E-01  -0.0000000E+00 -0.1000000E+01  0.0000000E+00
           4
 -0.6505073E-01  0.4612548E-01 -0.6989642E-01   0.1445364E-15 -0.1445364E-15 -0.1000000E+01
  0.6505073E-01  0.4612548E-01 -0.6989642E-01   0.1445364E-15 -0.1445364E-15 -0.1000000E+01
  0.6505073E-01 -0.4612548E-01 -0.6989642E-01   0.1445364E-15 -0.1445364E-15 -0.1000000E+01
 -0.6505073E-01 -0.4612548E-01 -0.6989642E-01   0.1445364E-15 -0.1445364E-15 -0.1000000E+01
           4
 -0.6505073E-01 -0.4612548E-01  0.6989642E-01   0.1445364E-15 -0.8082059E-16  0.1000000E+01
  0.6505073E-01 -0.4612548E-01  0.6989642E-01   0.1445364E-15 -0.8082059E-16  0.1000000E+01
  0.6505073E-01  0.4612548E-01  0.6989642E-01   0.1445364E-15 -0.8082059E-16  0.1000000E+01
 -0.6505073E-01  0.4612548E-01  0.6989642E-01   0.1445364E-15 -0.8082059E-16  0.1000000E+01
           6
  0.8820604E-01  0.4612548E-01 -0.3656228E-01  -0.0000000E+00  0.1000000E+01 -0.1999995E-15
  0.6505073E-01  0.4612548E-01 -0.6989642E-01  -0.0000000E+00  0.1000000E+01 -0.1999995E-15
 -0.6505073E-01  0.4612548E-01 -0.6989642E-01  -0.0000000E+00  0.1000000E+01 -0.1999995E-15
 -0.8820604E-01  0.4612548E-01  0.3656228E-01  -0.0000000E+00  0.1000000E+01 -0.1999995E-15
 -0.6505073E-01  0.4612548E-01  0.6989642E-01  -0.0000000E+00  0.1000000E+01 -0.1999995E-15
  0.6505073E-01  0.4612548E-01  0.6989642E-01  -0.0000000E+00  0.1000000E+01 -0.1999995E-15
           4
  0.8820604E-01 -0.4612548E-01 -0.3656228E-01   0.8212937E+00  0.3822361E-16 -0.5705057E+00
  0.6505073E-01 -0.4612548E-01 -0.6989642E-01   0.8212937E+00  0.3822361E-16 -0.5705057E+00
  0.6505073E-01  0.4612548E-01 -0.6989642E-01   0.8212937E+00  0.3822361E-16 -0.5705057E+00
  0.8820604E-01  0.4612548E-01 -0.3656228E-01   0.8212937E+00  0.3822361E-16 -0.5705057E+00
           4
  0.8820604E-01 -0.4612548E-01 -0.3656228E-01   0.9771533E+00 -0.0000000E+00  0.2125358E+00
  0.8820604E-01  0.4612548E-01 -0.3656228E-01   0.9771533E+00 -0.0000000E+00  0.2125358E+00
  0.6505073E-01  0.4612548E-01  0.6989642E-01   0.9771533E+00 -0.0000000E+00  0.2125358E+00
  0.6505073E-01 -0.4612548E-01  0.6989642E-01   0.9771533E+00 -0.0000000E+00  0.2125358E+00
 BRILLOUIN-ZONE-PRIMCELL_END
 BRILLOUIN-ZONE-CONVCELL
           4
 -0.8820604E-01  0.4612548E-01  0.3656228E-01  -0.9771533E+00  0.2015102E-15 -0.2125358E+00
 -0.6505073E-01  0.4612548E-01 -0.6989642E-01  -0.9771533E+00  0.2015102E-15 -0.2125358E+00
 -0.6505073E-01 -0.4612548E-01 -0.6989642E-01  -0.9771533E+00  0.2015102E-15 -0.2125358E+00
 -0.8820604E-01 -0.4612548E-01  0.3656228E-01  -0.9771533E+00  0.2015102E-15 -0.2125358E+00
           4
 -0.6505073E-01  0.4612548E-01  0.6989642E-01  -0.8212937E+00  0.1142845E-15  0.5705057E+00
 -0.8820604E-01  0.4612548E-01  0.3656228E-01  -0.8212937E+00  0.1142845E-15  0.5705057E+00
 -0.8820604E-01 -0.4612548E-01  0.3656228E-01  -0.8212937E+00  0.1142845E-15  0.5705057E+00
 -0.6505073E-01 -0.4612548E-01  0.6989642E-01  -0.8212937E+00  0.1142845E-15  0.5705057E+00
           6
  0.6505073E-01 -0.4612548E-01  0.6989642E-01  -0.0000000E+00 -0.1000000E+01  0.0000000E+00
 -0.6505073E-01 -0.4612548E-01  0.6989642E-01  -0.0000000E+00 -0.1000000E+01  0.0000000E+00
 -0.8820604E-01 -0.4612548E-01  0.3656228E-01  -0.0000000E+00 -0.1000000E+01  0.0000000E+00
 -0.6505073E-01 -0.4612548E-01 -0.6989642E-01  -0.0000000E+00 -0.1000000E+01  0.0000000E+00
  0.6505073E-01 -0.4612548E-01 -0.6989642E-01  -0.0000000E+00 -0.1000000E+01  0.0000000E+00
  0.8820604E-01 -0.4612548E-01 -0.3656228E-01  -0.0000000E+00 -0.1000000E+01  0.0000000E+00
           4
 -0.6505073E-01  0.4612548E-01 -0.6989642E-01   0.1445364E-15 -0.1445364E-15 -0.1000000E+01
  0.6505073E-01  0.4612548E-01 -0.6989642E-01   0.1445364E-15 -0.1445364E-15 -0.1000000E+01
  0.6505073E-01 -0.4612548E-01 -0.6989642E-01   0.1445364E-15 -0.1445364E-15 -0.1000000E+01
 -0.6505073E-01 -0.4612548E-01 -0.6989642E-01   0.1445364E-15 -0.1445364E-15 -0.1000000E+01
           4
 -0.6505073E-01 -0.4612548E-01  0.6989642E-01   0.1445364E-15 -0.8082059E-16  0.1000000E+01
  0.6505073E-01 -0.4612548E-01  0.6989642E-01   0.1445364E-15 -0.8082059E-16  0.1000000E+01
  0.6505073E-01  0.4612548E-01  0.6989642E-01   0.1445364E-15 -0.8082059E-16  0.1000000E+01
 -0.6505073E-01  0.4612548E-01  0.6989642E-01   0.1445364E-15 -0.8082059E-16  0.1000000E+01
           6
  0.8820604E-01  0.4612548E-01 -0.3656228E-01  -0.0000000E+00  0.1000000E+01 -0.1999995E-15
  0.6505073E-01  0.4612548E-01 -0.6989642E-01  -0.0000000E+00  0.1000000E+01 -0.1999995E-15
 -0.6505073E-01  0.4612548E-01 -0.6989642E-01  -0.0000000E+00  0.1000000E+01 -0.1999995E-15
 -0.8820604E-01  0.4612548E-01  0.3656228E-01  -0.0000000E+00  0.1000000E+01 -0.1999995E-15
 -0.6505073E-01  0.4612548E-01  0.6989642E-01  -0.0000000E+00  0.1000000E+01 -0.1999995E-15
  0.6505073E-01  0.4612548E-01  0.6989642E-01  -0.0000000E+00  0.1000000E+01 -0.1999995E-15
           4
  0.8820604E-01 -0.4612548E-01 -0.3656228E-01   0.8212937E+00  0.3822361E-16 -0.5705057E+00
  0.6505073E-01 -0.4612548E-01 -0.6989642E-01   0.8212937E+00  0.3822361E-16 -0.5705057E+00
  0.6505073E-01  0.4612548E-01 -0.6989642E-01   0.8212937E+00  0.3822361E-16 -0.5705057E+00
  0.8820604E-01  0.4612548E-01 -0.3656228E-01   0.8212937E+00  0.3822361E-16 -0.5705057E+00
           4
  0.8820604E-01 -0.4612548E-01 -0.3656228E-01   0.9771533E+00 -0.0000000E+00  0.2125358E+00
  0.8820604E-01  0.4612548E-01 -0.3656228E-01   0.9771533E+00 -0.0000000E+00  0.2125358E+00
  0.6505073E-01  0.4612548E-01  0.6989642E-01   0.9771533E+00 -0.0000000E+00  0.2125358E+00
  0.6505073E-01 -0.4612548E-01  0.6989642E-01   0.9771533E+00 -0.0000000E+00  0.2125358E+00
 BRILLOUIN-ZONE-CONVCELL_END
 ATOMS
    7    5.6712974030    6.7831634020    3.2714070830   -0.0000415500   -0.0009001400    0.0001830600
    8    7.6373759510    7.8450985220    3.1066623970   -0.0007303300    0.0002723800    0.0003178300
    7    6.6156502190    7.6554007560    3.7889082000   -0.0000598200   -0.0000578600    0.0000176100
    7    4.4767097120    5.6880378970    5.0381257340   -0.0001053200   -0.0002009000    0.0005807500
    8    3.2941490260    4.6339905640    6.6320860760   -0.0001465800   -0.0003998800    0.0002387400
    7    3.2924300840    5.4333019290    5.6824220880   -0.0008120700    0.0004545700   -0.0001863800
    8    6.3748700430    8.1412753580    4.9014147740   -0.0007265500    0.0000917900    0.0000729200
    6    4.4063403940    6.6828570150    3.9446191260   -0.0003144800    0.0008347200    0.0004671800
    1    3.6552353940    6.3805887850    3.2077283310    0.0005148900   -0.0000399900    0.0001690900
    1    4.1342190670    7.6527757650    4.3700797290   -0.0008097900    0.0006074400   -0.0000909800
    8    2.2995572510    6.0729513320    5.2727553850   -0.0002303000   -0.0005006300    0.0004130500
    6    5.9475110460    6.1268475380    2.0011083390   -0.0000770600    0.0001511700   -0.0002289200
    1    5.0159491870    5.6444847590    1.6838198290    0.0000776300    0.0000573100    0.0002967300
    1    6.2502103480    6.8451785900    1.2347440230   -0.0006885300    0.0004707200   -0.0003217200
    1    3.7656881640   -1.4252098120   -2.3419434800   -0.0006921200   -0.0004439100   -0.0003116800
    1    2.5314321210   -0.2245038620   -1.8929158380    0.0000916900   -0.0000449700    0.0002876400
    6    3.4629968570   -0.7068332860   -1.5755790560   -0.0001223300   -0.0002637900   -0.0003132200
    8   -0.1848835380   -0.6528517050    1.6961132270   -0.0007729200    0.0000972600    0.0001303100
    1    1.6496387270   -2.2327621960    0.7933725970   -0.0008138200   -0.0006071500   -0.0000815700
    1    1.1707190530   -0.9605827390   -0.3690143890    0.0004688300    0.0000528200    0.0001266100
    6    1.9217355050   -1.2628630990    0.3678740880   -0.0001042100   -0.0008081600    0.0005365400
    8    3.8903434430   -2.7212854420    1.3246932430   -0.0006769500   -0.0000519700   -0.0000629500
    7    0.8077461990   -0.0135233170    2.1054610730   -0.0001620000    0.0007053700    0.0009380400
    8    0.8096212480    0.7861677510    3.0555130280   -0.0001898500   -0.0002233900   -0.0004750500
    7    1.9921778120   -0.2679455000    1.4614122500   -0.0002653700   -0.0000659000    0.0003951800
    7    4.1312062000   -2.2354057780    0.2120949610   -0.0004387500    0.0000553200    0.0003747500
    8    5.1527784020   -2.4250720210   -0.4700525820   -0.0004525900   -0.0003144900    0.0001505000
    7    3.1867549970   -1.3631670360   -0.3053063650   -0.0000511000    0.0009024900    0.0001697900
    1    5.2438733130    3.9948163750    5.9186986540    0.0006885300   -0.0004707200    0.0003217200
    1    6.4781344740    5.1955102060    5.4696228480   -0.0000776300   -0.0000573100   -0.0002967300
    6    5.5465726150    4.7131474270    5.1523343380    0.0000770600   -0.0001511700    0.0002289200
    8    9.1945264100    4.7670436320    1.8806872930    0.0002303000    0.0005006300   -0.0004130500
    1    7.3598645940    3.1872192000    2.7833629480    0.0008097900   -0.0006074400    0.0000909800
    1    7.8388482670    4.4594061800    3.9457143460   -0.0005148900    0.0000399900   -0.0001690900
    6    7.0877432670    4.1571379500    3.2088235520    0.0003144800   -0.0008347200   -0.0004671800
    8    5.1192136180    2.6987196070    2.2520279030    0.0007265500   -0.0000917900   -0.0000729200
    7    8.2016535770    5.4066930360    1.4710205890    0.0008120700   -0.0004545700    0.0001863800
    8    8.1999346350    6.2060044010    0.5213566010    0.0001465800    0.0003998800   -0.0002387400
    7    7.0173739490    5.1519570680    2.1153169430    0.0001053200    0.0002009000   -0.0005807500
    7    4.8784334420    3.1845942080    3.3645344770    0.0000598200    0.0000578600   -0.0000176100
    8    3.8567077100    2.9948964430    4.0467802800    0.0007303300   -0.0002723800   -0.0003178300
    7    5.8227862570    4.0568315630    3.8820355940    0.0000415500    0.0009001400   -0.0001830600
    1    2.7593088050    1.4252098120    2.3419434800    0.0006921200    0.0004439100    0.0003116800
    1    3.9935648480    0.2245038620    1.8929158380   -0.0000916900    0.0000449700   -0.0002876400
    6    3.0620001120    0.7068332860    1.5755790560    0.0001223300    0.0002637900    0.0003132200
    8    6.7098805070    0.6528517050   -1.6961132270    0.0007729200   -0.0000972600   -0.0001303100
    1    4.8753582420    2.2327621960   -0.7933725970    0.0008138200    0.0006071500    0.0000815700
    1    5.3542779160    0.9605827390    0.3690143890   -0.0004688300   -0.0000528200   -0.0001266100
    6    4.6032614650    1.2628630990   -0.3678740880    0.0001042100    0.0008081600   -0.0005365400
    8    2.6346535260    2.7212854420   -1.3246932430    0.0006769500    0.0000519700    0.0000629500
    7    5.7172507700    0.0135233170   -2.1054610730    0.0001620000   -0.0007053700   -0.0009380400
    8    5.7153757210   -0.7861677510   -3.0555130280    0.0001898500    0.0002233900    0.0004750500
    7    4.5328191570    0.2679455000   -1.4614122500    0.0002653700    0.0000659000   -0.0003951800
    7    2.3937907700    2.2354057780   -0.2120949610    0.0004387500   -0.0000553200   -0.0003747500
    8    1.3722185670    2.4250720210    0.4700525820    0.0004525900    0.0003144900   -0.0001505000
    7    3.3382419720    1.3631670360    0.3053063650    0.0000511000   -0.0009024900   -0.0001697900
 FRAMES
1      0.0000000000    0.0000000000    0.0000000000      6.5249969690    0.0000000000    0.0000000000
1      0.0000000000    0.0000000000    0.0000000000      0.0000000000   10.8399949650    0.0000000000
1      0.0000000000    0.0000000000    0.0000000000     -1.5559102770    0.0000000000    7.1534426770
1     -1.5559102770    0.0000000000    7.1534426770      4.9690866920    0.0000000000    7.1534426770