
     Program PWSCF v.5.3.0 (svn rev. 11974) starts on 21May2016 at 23:37:23 

     This program is part of the open-source Quantum ESPRESSO suite
     for quantum simulation of materials; please cite
         "P. Giannozzi et al., J. Phys.:Condens. Matter 21 395502 (2009);
          URL http://www.quantum-espresso.org", 
     in publications or presentations arising from this work. More details at
     http://www.quantum-espresso.org/quote

     Parallel version (MPI), running on    32 processors
     R & G space division:  proc/nbgrp/npool/nimage =      32
     Waiting for input...
     Reading input from standard input
Warning: card    &IONS ignored
Warning: card TRUST_RADIUS_MAX=0.2 ignored
Warning: card / ignored
Warning: card     &CELL ignored
Warning: card CELL_DYNAMICS='BFGS' ignored
Warning: card / ignored

     Current dimensions of program PWSCF are:
     Max number of different atomic species (ntypx) = 10
     Max number of k-points (npk) =  40000
     Max angular momentum in pseudopotentials (lmaxx) =  3
               file N.pbe-n-kjpaw_psl.1.0.0.UPF: wavefunction(s)  2S renormalized
               file C.pbe-n-kjpaw_psl.1.0.0.UPF: wavefunction(s)  2S 2P renormalized
               file H.pbe-kjpaw_psl.1.0.0.UPF: wavefunction(s)  1S renormalized
               file O.pbe-n-kjpaw_psl.1.0.0.UPF: wavefunction(s)  2S 2P renormalized

     Subspace diagonalization in iterative solution of the eigenvalue problem:
     a serial algorithm will be used


     Parallelization info
     --------------------
     sticks:   dense  smooth     PW     G-vecs:    dense   smooth      PW
     Min         637     254     67                57908    14631    2003
     Max         639     255     68                57910    14681    2007
     Sum       20393    8151   2169              1853075   468881   64159


     Title: 
     HMX-scf-pbe-n-kjpaw-kp242-ec-100-nofor-nostress-conv-em4                   


     bravais-lattice index     =            0
     lattice parameter (alat)  =       1.8897  a.u.
     unit-cell volume          =    3470.0091 (a.u.)^3
     number of atoms/cell      =           56
     number of atomic types    =            4
     number of electrons       =       224.00
     number of Kohn-Sham states=          112
     kinetic-energy cutoff     =     100.0000  Ry
     charge density cutoff     =    1000.0000  Ry
     convergence threshold     =      1.0E-06
     mixing beta               =       0.7000
     number of iterations used =            8  plain     mixing
     Exchange-correlation      =  SLA  PW   PBX  PBC ( 1  4  3  4 0 0)

     celldm(1)=   1.889726  celldm(2)=   0.000000  celldm(3)=   0.000000
     celldm(4)=   0.000000  celldm(5)=   0.000000  celldm(6)=   0.000000

     crystal axes: (cart. coord. in units of alat)
               a(1) = (   6.528900   0.000000   0.000000 )  
               a(2) = (   0.000000  10.987500   0.000000 )  
               a(3) = (  -1.604329   0.000000   7.167954 )  

     reciprocal axes: (cart. coord. in units 2 pi/alat)
               b(1) = (  0.153165 -0.000000  0.034281 )  
               b(2) = (  0.000000  0.091013 -0.000000 )  
               b(3) = (  0.000000  0.000000  0.139510 )  


     PseudoPot. # 1 for  N read from file:
     /users/majewski/.data/PSEUDOPOTENTIALS/N.pbe-n-kjpaw_psl.1.0.0.UPF
     MD5 check sum: c21df8f53e59d08c3548513d559cdda6
     Pseudo is Projector augmented-wave + core cor, Zval =  5.0
     Generated using "atomic" code by A. Dal Corso  v.5.3.0 svn rev. 11974
     Shape of augmentation charge: PSQ
     Using radial grid of 1085 points,  4 beta functions with: 
                l(1) =   0
                l(2) =   0
                l(3) =   1
                l(4) =   1
     Q(r) pseudized with 0 coefficients 


     PseudoPot. # 2 for  C read from file:
     /users/majewski/.data/PSEUDOPOTENTIALS/C.pbe-n-kjpaw_psl.1.0.0.UPF
     MD5 check sum: 2ba8448e293caca687844dde9a1b88a8
     Pseudo is Projector augmented-wave + core cor, Zval =  4.0
     Generated using "atomic" code by A. Dal Corso  v.5.3.0 svn rev. 11974
     Shape of augmentation charge: PSQ
     Using radial grid of 1073 points,  4 beta functions with: 
                l(1) =   0
                l(2) =   0
                l(3) =   1
                l(4) =   1
     Q(r) pseudized with 0 coefficients 


     PseudoPot. # 3 for  H read from file:
     /users/majewski/.data/PSEUDOPOTENTIALS/H.pbe-kjpaw_psl.1.0.0.UPF
     MD5 check sum: bc0feb48a24907a0b97fa6ee2d589a29
     Pseudo is Projector augmented-wave, Zval =  1.0
     Generated using "atomic" code by A. Dal Corso  v.5.3.0 svn rev. 11974
     Shape of augmentation charge: PSQ
     Using radial grid of  929 points,  2 beta functions with: 
                l(1) =   0
                l(2) =   0
     Q(r) pseudized with 0 coefficients 


     PseudoPot. # 4 for  O read from file:
     /users/majewski/.data/PSEUDOPOTENTIALS/O.pbe-n-kjpaw_psl.1.0.0.UPF
     MD5 check sum: 9c0ade6c043cf4a781bde3908a3a8206
     Pseudo is Projector augmented-wave + core cor, Zval =  6.0
     Generated using "atomic" code by A. Dal Corso  v.5.3.0 svn rev. 11974
     Shape of augmentation charge: PSQ
     Using radial grid of 1095 points,  4 beta functions with: 
                l(1) =   0
                l(2) =   0
                l(3) =   1
                l(4) =   1
     Q(r) pseudized with 0 coefficients 


     atomic species   valence    mass     pseudopotential
        N              5.00    14.00670      N( 1.00)
        C              4.00    12.01100      C( 1.00)
        H              1.00     1.00790      H( 1.00)
        O              6.00    15.99940      O( 1.00)

      2 Sym. Ops., with inversion, found
          (note:  2 additional sym.ops. were found but ignored
           their fractional translations are incommensurate with FFT grid)

                                    s                        frac. trans.

      isym =  1     identity                                     

 cryst.   s( 1) = (     1          0          0      )
                  (     0          1          0      )
                  (     0          0          1      )

 cart.    s( 1) = (  1.0000000  0.0000000  0.0000000 )
                  (  0.0000000  1.0000000  0.0000000 )
                  (  0.0000000  0.0000000  1.0000000 )


      isym =  2     inversion                                    

 cryst.   s( 2) = (    -1          0          0      )
                  (     0         -1          0      )
                  (     0          0         -1      )

 cart.    s( 2) = ( -1.0000000  0.0000000 -0.0000000 )
                  (  0.0000000 -1.0000000  0.0000000 )
                  (  0.0000000  0.0000000 -1.0000000 )


   Cartesian axes

     site n.     atom                  positions (alat units)
         1           N   tau(   1) = (  -0.8614487   6.8444434   3.3109495  )
         2           O   tau(   2) = (   1.0746241   7.9096815   3.1371266  )
         3           N   tau(   3) = (   0.0618658   7.7221249   3.8135664  )
         4           N   tau(   4) = (  -2.0647129   5.7697560   5.0587833  )
         5           O   tau(   5) = (  -3.2542440   4.7069351   6.6110753  )
         6           N   tau(   6) = (  -3.2426279   5.5114399   5.6869828  )
         7           O   tau(   7) = (  -0.1753723   8.2085415   4.8971459  )
         8           C   tau(   8) = (  -2.1300386   6.7612680   3.9714764  )
         9           H   tau(   9) = (  -2.8138762   6.5024025   3.3338152  )
        10           H   tau(  10) = (  -2.3673225   7.6286213   4.3344616  )
        11           O   tau(  11) = (  -4.2140784   6.1608011   5.2929603  )
        12           C   tau(  12) = (  -0.5990533   6.2146399   2.0230832  )
        13           H   tau(  13) = (  -1.3903515   5.7475613   1.7138577  )
        14           H   tau(  14) = (  -0.3482788   6.8660888   1.3518761  )
        15           H   tau(  15) = (   3.7183358  -1.3723388  -2.2321008  )
        16           H   tau(  16) = (   2.6762631  -0.2538112  -1.8701191  )
        17           C   tau(  17) = (   3.4675614  -0.7208899  -1.5608936  )
        18           O   tau(  18) = (  -0.1474638  -0.6670511   1.7089835  )
        19           H   tau(  19) = (   1.6992921  -2.1348713   0.7504847  )
        20           H   tau(  20) = (   1.2527385  -1.0086525  -0.2501616  )
        21           C   tau(  21) = (   1.9365761  -1.2675180   0.3874996  )
        22           O   tau(  22) = (   3.8912424  -2.7147915   1.3131691  )
        23           N   tau(  23) = (   0.8239867  -0.0176899   2.1030059  )
        24           O   tau(  24) = (   0.8123707   0.7868149   3.0270985  )
        25           N   tau(  25) = (   2.0019018  -0.2760060   1.4748065  )
        26           N   tau(  26) = (   4.1284804  -2.2283749   0.2295896  )
        27           O   tau(  27) = (   5.1412387  -2.4159315  -0.4468502  )
        28           N   tau(  28) = (   3.2051660  -1.3506934  -0.2730274  )
        29           H   tau(  29) = (  -1.2560505   4.1214113   5.8160776  )
        30           H   tau(  30) = (  -0.2139778   5.2399388   5.4540959  )
        31           C   tau(  31) = (  -1.0052760   4.7728601   5.1448704  )
        32           O   tau(  32) = (   2.6097491   4.8266989   1.8749933  )
        33           H   tau(  33) = (   0.7629932   3.3588788   2.8334921  )
        34           H   tau(  34) = (   1.2095469   4.4850975   3.8341384  )
        35           C   tau(  35) = (   0.5257093   4.2262320   3.1964773  )
        36           O   tau(  36) = (  -1.4289570   2.7789585   2.2708077  )
        37           N   tau(  37) = (   1.6382987   5.4760601   1.4809709  )
        38           O   tau(  38) = (   1.6499147   6.2805649   0.5568783  )
        39           N   tau(  39) = (   0.4603836   5.2177440   2.1091704  )
        40           N   tau(  40) = (  -1.6661950   3.2653751   3.3543873  )
        41           O   tau(  41) = (  -2.6789534   3.0778185   4.0308271  )
        42           N   tau(  42) = (  -0.7428806   4.1430566   3.8570042  )
        43           H   tau(  43) = (   2.8105642   1.3723388   2.2321008  )
        44           H   tau(  44) = (   3.8526369   0.2538112   1.8701191  )
        45           C   tau(  45) = (   3.0613386   0.7208899   1.5608936  )
        46           O   tau(  46) = (   6.6763638   0.6670511  -1.7089835  )
        47           H   tau(  47) = (   4.8296079   2.1348713  -0.7504847  )
        48           H   tau(  48) = (   5.2761615   1.0086525   0.2501616  )
        49           C   tau(  49) = (   4.5923239   1.2675180  -0.3874996  )
        50           O   tau(  50) = (   2.6376576   2.7147915  -1.3131691  )
        51           N   tau(  51) = (   5.7049133   0.0176899  -2.1030059  )
        52           O   tau(  52) = (   5.7165293  -0.7868149  -3.0270985  )
        53           N   tau(  53) = (   4.5269982   0.2760060  -1.4748065  )
        54           N   tau(  54) = (   2.4004196   2.2283749  -0.2295896  )
        55           O   tau(  55) = (   1.3876613   2.4159315   0.4468502  )
        56           N   tau(  56) = (   3.3237340   1.3506934   0.2730274  )

   Crystallographic axes

     site n.     atom                  positions (cryst. coord.)
         1           N   tau(   1) = ( -0.0184400  0.6229300  0.4619100  )
         2           O   tau(   2) = (  0.2721400  0.7198800  0.4376600  )
         3           N   tau(   3) = (  0.1402100  0.7028100  0.5320300  )
         4           N   tau(   4) = ( -0.1428200  0.5251200  0.7057500  )
         5           O   tau(   5) = ( -0.2718000  0.4283900  0.9223100  )
         6           N   tau(   6) = ( -0.3017000  0.5016100  0.7933900  )
         7           O   tau(   7) = (  0.1410200  0.7470800  0.6832000  )
         8           C   tau(   8) = ( -0.1901000  0.6153600  0.5540600  )
         9           H   tau(   9) = ( -0.3167000  0.5918000  0.4651000  )
        10           H   tau(  10) = ( -0.2140000  0.6943000  0.6047000  )
        11           O   tau(  11) = ( -0.4640000  0.5607100  0.7384200  )
        12           C   tau(  12) = ( -0.0224000  0.5656100  0.2822400  )
        13           H   tau(  13) = ( -0.1542000  0.5231000  0.2391000  )
        14           H   tau(  14) = ( -0.0070000  0.6249000  0.1886000  )
        15           H   tau(  15) = (  0.4930000 -0.1249000 -0.3114000  )
        16           H   tau(  16) = (  0.3458000 -0.0231000 -0.2609000  )
        17           C   tau(  17) = (  0.4776000 -0.0656100 -0.2177600  )
        18           O   tau(  18) = (  0.0360000 -0.0607100  0.2384200  )
        19           H   tau(  19) = (  0.2860000 -0.1943000  0.1047000  )
        20           H   tau(  20) = (  0.1833000 -0.0918000 -0.0349000  )
        21           C   tau(  21) = (  0.3099000 -0.1153600  0.0540600  )
        22           O   tau(  22) = (  0.6410200 -0.2470800  0.1832000  )
        23           N   tau(  23) = (  0.1983000 -0.0016100  0.2933900  )
        24           O   tau(  24) = (  0.2282000  0.0716100  0.4223100  )
        25           N   tau(  25) = (  0.3571800 -0.0251200  0.2057500  )
        26           N   tau(  26) = (  0.6402100 -0.2028100  0.0320300  )
        27           O   tau(  27) = (  0.7721400 -0.2198800 -0.0623400  )
        28           N   tau(  28) = (  0.4815600 -0.1229300 -0.0380900  )
        29           H   tau(  29) = (  0.0070000  0.3751000  0.8114000  )
        30           H   tau(  30) = (  0.1542000  0.4769000  0.7609000  )
        31           C   tau(  31) = (  0.0224000  0.4343900  0.7177600  )
        32           O   tau(  32) = (  0.4640000  0.4392900  0.2615800  )
        33           H   tau(  33) = (  0.2140000  0.3057000  0.3953000  )
        34           H   tau(  34) = (  0.3167000  0.4082000  0.5349000  )
        35           C   tau(  35) = (  0.1901000  0.3846400  0.4459400  )
        36           O   tau(  36) = ( -0.1410200  0.2529200  0.3168000  )
        37           N   tau(  37) = (  0.3017000  0.4983900  0.2066100  )
        38           O   tau(  38) = (  0.2718000  0.5716100  0.0776900  )
        39           N   tau(  39) = (  0.1428200  0.4748800  0.2942500  )
        40           N   tau(  40) = ( -0.1402100  0.2971900  0.4679700  )
        41           O   tau(  41) = ( -0.2721400  0.2801200  0.5623400  )
        42           N   tau(  42) = (  0.0184400  0.3770700  0.5380900  )
        43           H   tau(  43) = (  0.5070000  0.1249000  0.3114000  )
        44           H   tau(  44) = (  0.6542000  0.0231000  0.2609000  )
        45           C   tau(  45) = (  0.5224000  0.0656100  0.2177600  )
        46           O   tau(  46) = (  0.9640000  0.0607100 -0.2384200  )
        47           H   tau(  47) = (  0.7140000  0.1943000 -0.1047000  )
        48           H   tau(  48) = (  0.8167000  0.0918000  0.0349000  )
        49           C   tau(  49) = (  0.6901000  0.1153600 -0.0540600  )
        50           O   tau(  50) = (  0.3589800  0.2470800 -0.1832000  )
        51           N   tau(  51) = (  0.8017000  0.0016100 -0.2933900  )
        52           O   tau(  52) = (  0.7718000 -0.0716100 -0.4223100  )
        53           N   tau(  53) = (  0.6428200  0.0251200 -0.2057500  )
        54           N   tau(  54) = (  0.3597900  0.2028100 -0.0320300  )
        55           O   tau(  55) = (  0.2278600  0.2198800  0.0623400  )
        56           N   tau(  56) = (  0.5184400  0.1229300  0.0380900  )

     number of k points=    32
                       cart. coord. in units 2pi/alat
        k(    1) = (   0.0191456   0.0113766   0.0217239), wk =   0.0625000
        k(    2) = (   0.0191456   0.0113766   0.0566014), wk =   0.0625000
        k(    3) = (   0.0191456   0.0113766  -0.0480310), wk =   0.0625000
        k(    4) = (   0.0191456   0.0113766  -0.0131536), wk =   0.0625000
        k(    5) = (   0.0191456   0.0341297   0.0217239), wk =   0.0625000
        k(    6) = (   0.0191456   0.0341297   0.0566014), wk =   0.0625000
        k(    7) = (   0.0191456   0.0341297  -0.0480310), wk =   0.0625000
        k(    8) = (   0.0191456   0.0341297  -0.0131536), wk =   0.0625000
        k(    9) = (   0.0574369   0.0113766   0.0302942), wk =   0.0625000
        k(   10) = (   0.0574369   0.0113766   0.0651717), wk =   0.0625000
        k(   11) = (   0.0574369   0.0113766  -0.0394607), wk =   0.0625000
        k(   12) = (   0.0574369   0.0113766  -0.0045832), wk =   0.0625000
        k(   13) = (   0.0574369   0.0341297   0.0302942), wk =   0.0625000
        k(   14) = (   0.0574369   0.0341297   0.0651717), wk =   0.0625000
        k(   15) = (   0.0574369   0.0341297  -0.0394607), wk =   0.0625000
        k(   16) = (   0.0574369   0.0341297  -0.0045832), wk =   0.0625000
        k(   17) = (  -0.0191456   0.0113766  -0.0217239), wk =   0.0625000
        k(   18) = (  -0.0191456   0.0113766  -0.0566014), wk =   0.0625000
        k(   19) = (  -0.0191456   0.0113766   0.0480310), wk =   0.0625000
        k(   20) = (  -0.0191456   0.0113766   0.0131536), wk =   0.0625000
        k(   21) = (  -0.0191456   0.0341297  -0.0217239), wk =   0.0625000
        k(   22) = (  -0.0191456   0.0341297  -0.0566014), wk =   0.0625000
        k(   23) = (  -0.0191456   0.0341297   0.0480310), wk =   0.0625000
        k(   24) = (  -0.0191456   0.0341297   0.0131536), wk =   0.0625000
        k(   25) = (  -0.0574369   0.0113766  -0.0302942), wk =   0.0625000
        k(   26) = (  -0.0574369   0.0113766  -0.0651717), wk =   0.0625000
        k(   27) = (  -0.0574369   0.0113766   0.0394607), wk =   0.0625000
        k(   28) = (  -0.0574369   0.0113766   0.0045832), wk =   0.0625000
        k(   29) = (  -0.0574369   0.0341297  -0.0302942), wk =   0.0625000
        k(   30) = (  -0.0574369   0.0341297  -0.0651717), wk =   0.0625000
        k(   31) = (  -0.0574369   0.0341297   0.0394607), wk =   0.0625000
        k(   32) = (  -0.0574369   0.0341297   0.0045832), wk =   0.0625000

                       cryst. coord.
        k(    1) = (   0.1250000   0.1250000   0.1250000), wk =   0.0625000
        k(    2) = (   0.1250000   0.1250000   0.3750000), wk =   0.0625000
        k(    3) = (   0.1250000   0.1250000  -0.3750000), wk =   0.0625000
        k(    4) = (   0.1250000   0.1250000  -0.1250000), wk =   0.0625000
        k(    5) = (   0.1250000   0.3750000   0.1250000), wk =   0.0625000
        k(    6) = (   0.1250000   0.3750000   0.3750000), wk =   0.0625000
        k(    7) = (   0.1250000   0.3750000  -0.3750000), wk =   0.0625000
        k(    8) = (   0.1250000   0.3750000  -0.1250000), wk =   0.0625000
        k(    9) = (   0.3750000   0.1250000   0.1250000), wk =   0.0625000
        k(   10) = (   0.3750000   0.1250000   0.3750000), wk =   0.0625000
        k(   11) = (   0.3750000   0.1250000  -0.3750000), wk =   0.0625000
        k(   12) = (   0.3750000   0.1250000  -0.1250000), wk =   0.0625000
        k(   13) = (   0.3750000   0.3750000   0.1250000), wk =   0.0625000
        k(   14) = (   0.3750000   0.3750000   0.3750000), wk =   0.0625000
        k(   15) = (   0.3750000   0.3750000  -0.3750000), wk =   0.0625000
        k(   16) = (   0.3750000   0.3750000  -0.1250000), wk =   0.0625000
        k(   17) = (  -0.1250000   0.1250000  -0.1250000), wk =   0.0625000
        k(   18) = (  -0.1250000   0.1250000  -0.3750000), wk =   0.0625000
        k(   19) = (  -0.1250000   0.1250000   0.3750000), wk =   0.0625000
        k(   20) = (  -0.1250000   0.1250000   0.1250000), wk =   0.0625000
        k(   21) = (  -0.1250000   0.3750000  -0.1250000), wk =   0.0625000
        k(   22) = (  -0.1250000   0.3750000  -0.3750000), wk =   0.0625000
        k(   23) = (  -0.1250000   0.3750000   0.3750000), wk =   0.0625000
        k(   24) = (  -0.1250000   0.3750000   0.1250000), wk =   0.0625000
        k(   25) = (  -0.3750000   0.1250000  -0.1250000), wk =   0.0625000
        k(   26) = (  -0.3750000   0.1250000  -0.3750000), wk =   0.0625000
        k(   27) = (  -0.3750000   0.1250000   0.3750000), wk =   0.0625000
        k(   28) = (  -0.3750000   0.1250000   0.1250000), wk =   0.0625000
        k(   29) = (  -0.3750000   0.3750000  -0.1250000), wk =   0.0625000
        k(   30) = (  -0.3750000   0.3750000  -0.3750000), wk =   0.0625000
        k(   31) = (  -0.3750000   0.3750000   0.3750000), wk =   0.0625000
        k(   32) = (  -0.3750000   0.3750000   0.1250000), wk =   0.0625000

     Dense  grid:  1853075 G-vectors     FFT dimensions: ( 125, 216, 144)

     Smooth grid:   468881 G-vectors     FFT dimensions: (  80, 135,  90)

     Largest allocated arrays     est. size (Mb)     dimensions
        Kohn-Sham Wavefunctions         3.14 Mb     (    1835,  112)
        NL pseudopotentials             9.86 Mb     (    1835,  352)
        Each V/rho on FFT grid          2.06 Mb     (  135000)
        Each G-vector array             0.44 Mb     (   57909)
        G-vector shells                 0.43 Mb     (   56104)
     Largest temporary arrays     est. size (Mb)     dimensions
        Auxiliary wavefunctions        12.54 Mb     (    1835,  448)
        Each subspace H/S matrix        3.06 Mb     (     448,  448)
        Each <psi_i|beta_j> matrix      0.60 Mb     (     352,  112)
        Arrays for rho mixing          16.48 Mb     (  135000,    8)

     Initial potential from superposition of free atoms

     starting charge  223.99937, renormalised to  224.00000
     Starting wfc are  176 randomized atomic wfcs
     Checking if some PAW data can be deallocated... 
       node    0, deallocated PAW data for type:  2
       node    0, deallocated PAW data for type:  3
       node    1, deallocated PAW data for type:  2
       node    1, deallocated PAW data for type:  3
       node    1, deallocated PAW data for type:  4
       node    2, deallocated PAW data for type:  2
       node    2, deallocated PAW data for type:  3
       node    3, deallocated PAW data for type:  1
       node    3, deallocated PAW data for type:  3
       node    4, deallocated PAW data for type:  1
       node    4, deallocated PAW data for type:  2
       node    4, deallocated PAW data for type:  4
       node    5, deallocated PAW data for type:  1
       node    5, deallocated PAW data for type:  3
       node    6, deallocated PAW data for type:  1
       node    6, deallocated PAW data for type:  2
       node    6, deallocated PAW data for type:  4
       node    7, deallocated PAW data for type:  1
       node    7, deallocated PAW data for type:  2
       node    7, deallocated PAW data for type:  4
       node    8, deallocated PAW data for type:  1
       node    8, deallocated PAW data for type:  3
       node    9, deallocated PAW data for type:  1
       node    9, deallocated PAW data for type:  2
       node    9, deallocated PAW data for type:  4
       node   10, deallocated PAW data for type:  1
       node   10, deallocated PAW data for type:  3
       node   11, deallocated PAW data for type:  2
       node   11, deallocated PAW data for type:  3
       node   12, deallocated PAW data for type:  2
       node   12, deallocated PAW data for type:  3
       node   12, deallocated PAW data for type:  4
       node   13, deallocated PAW data for type:  2
       node   13, deallocated PAW data for type:  3
       node   14, deallocated PAW data for type:  1
       node   14, deallocated PAW data for type:  2
       node   14, deallocated PAW data for type:  4
       node   15, deallocated PAW data for type:  1
       node   15, deallocated PAW data for type:  3
       node   16, deallocated PAW data for type:  1
       node   16, deallocated PAW data for type:  2
       node   16, deallocated PAW data for type:  4
       node   17, deallocated PAW data for type:  1
       node   17, deallocated PAW data for type:  3
       node   18, deallocated PAW data for type:  2
       node   18, deallocated PAW data for type:  3
       node   19, deallocated PAW data for type:  2
       node   19, deallocated PAW data for type:  3
       node   19, deallocated PAW data for type:  4
       node   20, deallocated PAW data for type:  2
       node   20, deallocated PAW data for type:  3
       node   21, deallocated PAW data for type:  1
       node   21, deallocated PAW data for type:  2
       node   21, deallocated PAW data for type:  4
       node   22, deallocated PAW data for type:  1
       node   22, deallocated PAW data for type:  3
       node   23, deallocated PAW data for type:  1
       node   23, deallocated PAW data for type:  2
       node   23, deallocated PAW data for type:  4
       node   24, deallocated PAW data for type:  1
       node   24, deallocated PAW data for type:  3
       node   24, deallocated PAW data for type:  4
       node   25, deallocated PAW data for type:  1
       node   25, deallocated PAW data for type:  2
       node   25, deallocated PAW data for type:  3
       node   26, deallocated PAW data for type:  2
       node   26, deallocated PAW data for type:  3
       node   26, deallocated PAW data for type:  4
       node   27, deallocated PAW data for type:  1
       node   27, deallocated PAW data for type:  2
       node   27, deallocated PAW data for type:  3
       node   28, deallocated PAW data for type:  2
       node   28, deallocated PAW data for type:  3
       node   28, deallocated PAW data for type:  4
       node   29, deallocated PAW data for type:  2
       node   29, deallocated PAW data for type:  3
       node   29, deallocated PAW data for type:  4
       node   30, deallocated PAW data for type:  1
       node   30, deallocated PAW data for type:  2
       node   30, deallocated PAW data for type:  3
       node   31, deallocated PAW data for type:  2
       node   31, deallocated PAW data for type:  3
       node   31, deallocated PAW data for type:  4

     total cpu time spent up to now is      256.0 secs

     per-process dynamical memory:   160.7 Mb

     Self-consistent Calculation

     iteration #  1     ecut=   100.00 Ry     beta=0.70
     Davidson diagonalization with overlap
     ethr =  1.00E-02,  avg # of iterations =  3.0

     total cpu time spent up to now is     1018.4 secs

     total energy              =   -1279.58975175 Ry
     Harris-Foulkes estimate   =   -1283.95509795 Ry
     estimated scf accuracy    <       6.72909195 Ry

     iteration #  2     ecut=   100.00 Ry     beta=0.70
     Davidson diagonalization with overlap
     ethr =  3.00E-03,  avg # of iterations =  4.0

     total cpu time spent up to now is     1774.1 secs

     total energy              =   -1280.26543195 Ry
     Harris-Foulkes estimate   =   -1283.75303376 Ry
     estimated scf accuracy    <       7.01645721 Ry

     iteration #  3     ecut=   100.00 Ry     beta=0.70
     Davidson diagonalization with overlap
     ethr =  3.00E-03,  avg # of iterations =  4.8

     total cpu time spent up to now is     2395.1 secs

     total energy              =   -1281.77172660 Ry
     Harris-Foulkes estimate   =   -1282.00041746 Ry
     estimated scf accuracy    <       0.42276186 Ry

     iteration #  4     ecut=   100.00 Ry     beta=0.70
     Davidson diagonalization with overlap
     ethr =  1.89E-04,  avg # of iterations =  4.9

     total cpu time spent up to now is     3315.7 secs

     total energy              =   -1281.92749959 Ry
     Harris-Foulkes estimate   =   -1282.01132886 Ry
     estimated scf accuracy    <       0.18269754 Ry

     iteration #  5     ecut=   100.00 Ry     beta=0.70
     Davidson diagonalization with overlap
     ethr =  8.16E-05,  avg # of iterations =  4.0

     total cpu time spent up to now is     4069.6 secs

     total energy              =   -1281.96505382 Ry
     Harris-Foulkes estimate   =   -1281.97395104 Ry
     estimated scf accuracy    <       0.02208862 Ry

     iteration #  6     ecut=   100.00 Ry     beta=0.70
     Davidson diagonalization with overlap
     ethr =  9.86E-06,  avg # of iterations =  6.1

     total cpu time spent up to now is     4688.7 secs

     total energy              =   -1281.96821665 Ry
     Harris-Foulkes estimate   =   -1281.96980421 Ry
     estimated scf accuracy    <       0.00362118 Ry

     iteration #  7     ecut=   100.00 Ry     beta=0.70
     Davidson diagonalization with overlap
     ethr =  1.62E-06,  avg # of iterations =  4.7

     total cpu time spent up to now is     5521.4 secs

     total energy              =   -1281.96961647 Ry
     Harris-Foulkes estimate   =   -1281.97001606 Ry
     estimated scf accuracy    <       0.00100373 Ry

     iteration #  8     ecut=   100.00 Ry     beta=0.70
     Davidson diagonalization with overlap
     ethr =  4.48E-07,  avg # of iterations =  6.9

     total cpu time spent up to now is     6172.7 secs

     total energy              =   -1281.96973114 Ry
     Harris-Foulkes estimate   =   -1281.96979255 Ry
     estimated scf accuracy    <       0.00016293 Ry

     iteration #  9     ecut=   100.00 Ry     beta=0.70
     Davidson diagonalization with overlap
     ethr =  7.27E-08,  avg # of iterations =  4.2

     total cpu time spent up to now is     7064.3 secs

     total energy              =   -1281.96982399 Ry
     Harris-Foulkes estimate   =   -1281.96984662 Ry
     estimated scf accuracy    <       0.00007630 Ry

     iteration # 10     ecut=   100.00 Ry     beta=0.70
     Davidson diagonalization with overlap
     ethr =  3.41E-08,  avg # of iterations =  1.0

     total cpu time spent up to now is     7589.3 secs

     total energy              =   -1281.96981149 Ry
     Harris-Foulkes estimate   =   -1281.96982644 Ry
     estimated scf accuracy    <       0.00003752 Ry

     iteration # 11     ecut=   100.00 Ry     beta=0.70
     Davidson diagonalization with overlap
     ethr =  1.68E-08,  avg # of iterations =  4.0

     total cpu time spent up to now is     8474.4 secs

     total energy              =   -1281.96983172 Ry
     Harris-Foulkes estimate   =   -1281.96983999 Ry
     estimated scf accuracy    <       0.00004327 Ry

     iteration # 12     ecut=   100.00 Ry     beta=0.70
     Davidson diagonalization with overlap
     ethr =  1.68E-08,  avg # of iterations =  1.0

     total cpu time spent up to now is     9006.3 secs

     total energy              =   -1281.96982370 Ry
     Harris-Foulkes estimate   =   -1281.96983213 Ry
     estimated scf accuracy    <       0.00002959 Ry

     iteration # 13     ecut=   100.00 Ry     beta=0.70
     Davidson diagonalization with overlap
     ethr =  1.32E-08,  avg # of iterations =  5.0

     total cpu time spent up to now is     9745.3 secs

     total energy              =   -1281.96983107 Ry
     Harris-Foulkes estimate   =   -1281.96983258 Ry
     estimated scf accuracy    <       0.00000574 Ry

     iteration # 14     ecut=   100.00 Ry     beta=0.70
     Davidson diagonalization with overlap
     ethr =  2.56E-09,  avg # of iterations =  1.0

     total cpu time spent up to now is    10254.3 secs

     total energy              =   -1281.96982989 Ry
     Harris-Foulkes estimate   =   -1281.96983122 Ry
     estimated scf accuracy    <       0.00000328 Ry

     iteration # 15     ecut=   100.00 Ry     beta=0.70
     Davidson diagonalization with overlap
     ethr =  1.46E-09,  avg # of iterations =  5.0

     total cpu time spent up to now is    11109.6 secs

     total energy              =   -1281.96983154 Ry
     Harris-Foulkes estimate   =   -1281.96983189 Ry
     estimated scf accuracy    <       0.00000194 Ry

     iteration # 16     ecut=   100.00 Ry     beta=0.70
     Davidson diagonalization with overlap
     ethr =  8.66E-10,  avg # of iterations =  1.0

     total cpu time spent up to now is    11553.7 secs

     total energy              =   -1281.96983107 Ry
     Harris-Foulkes estimate   =   -1281.96983156 Ry
     estimated scf accuracy    <       0.00000138 Ry

     iteration # 17     ecut=   100.00 Ry     beta=0.70
     Davidson diagonalization with overlap
     ethr =  6.15E-10,  avg # of iterations =  5.0

     total cpu time spent up to now is    12156.6 secs

     End of self-consistent calculation

          k = 0.0191 0.0114 0.0217 ( 58606 PWs)   bands (ev):

   -24.0555 -24.0370 -24.0279 -24.0180 -23.6324 -23.6242 -23.6205 -23.6198
   -19.2309 -19.2258 -19.2188 -19.2073 -18.8192 -18.8186 -18.8150 -18.8142
   -18.2943 -18.2699 -17.2872 -17.2405 -17.1001 -17.0996 -16.1023 -16.0898
   -12.1497 -12.1468 -12.1346 -12.0213 -11.9711 -11.9009 -11.8457 -11.8242
    -8.9234  -8.8831  -8.3215  -8.2855  -7.6006  -7.5605  -7.4880  -7.4865
    -6.8775  -6.7708  -6.6201  -6.5679  -6.5578  -6.4168  -6.3684  -6.3092
    -6.1622  -6.1397  -6.0996  -5.9621  -5.9344  -5.8616  -5.7790  -5.7400
    -5.7034  -5.6780  -5.5894  -5.5670  -5.1460  -5.0374  -4.9508  -4.9345
    -4.5130  -4.4751  -4.4444  -4.4145  -4.2515  -4.1643  -3.8792  -3.8701
    -3.7164  -3.6391  -3.5750  -3.5513  -3.1899  -3.1534  -3.1087  -3.0857
    -0.8027  -0.7918  -0.3488  -0.3388  -0.2516  -0.1871  -0.1250  -0.0937
    -0.0430  -0.0096   0.1737   0.2032   0.2158   0.2472   0.3733   0.3876
     0.4344   0.4528   0.6146   0.6660   0.7478   0.8106   0.8569   0.8834
     0.9003   1.0182   1.0581   1.1331   1.2003   1.3294   1.3671   1.3849

     occupation numbers 
     1.0000   1.0000   1.0000   1.0000   1.0000   1.0000   1.0000   1.0000
     1.0000   1.0000   1.0000   1.0000   1.0000   1.0000   1.0000   1.0000
     1.0000   1.0000   1.0000   1.0000   1.0000   1.0000   1.0000   1.0000
     1.0000   1.0000   1.0000   1.0000   1.0000   1.0000   1.0000   1.0000
     1.0000   1.0000   1.0000   1.0000   1.0000   1.0000   1.0000   1.0000
     1.0000   1.0000   1.0000   1.0000   1.0000   1.0000   1.0000   1.0000
     1.0000   1.0000   1.0000   1.0000   1.0000   1.0000   1.0000   1.0000
     1.0000   1.0000   1.0000   1.0000   1.0000   1.0000   1.0000   1.0000
     1.0000   1.0000   1.0000   1.0000   1.0000   1.0000   1.0000   1.0000
     1.0000   1.0000   1.0000   1.0000   1.0000   1.0000   1.0000   1.0000
     1.0000   1.0000   1.0000   1.0000   1.0000   1.0000   1.0000   1.0000
     1.0000   1.0000   1.0000   1.0000   1.0000   1.0000   1.0000   1.0000
     1.0000   1.0000   1.0000   1.0000   1.0000   1.0000   1.0000   1.0000
     1.0000   1.0000   1.0000   1.0000   1.0000   1.0000   1.0000   1.0000

          k = 0.0191 0.0114 0.0566 ( 58630 PWs)   bands (ev):

   -24.0485 -24.0420 -24.0242 -24.0229 -23.6316 -23.6286 -23.6200 -23.6176
   -19.2288 -19.2242 -19.2197 -19.2112 -18.8249 -18.8242 -18.8102 -18.8095
   -18.2834 -18.2829 -17.2654 -17.2626 -17.0958 -17.0930 -16.0985 -16.0968
   -12.1586 -12.1581 -12.0816 -12.0618 -11.9305 -11.9214 -11.8540 -11.8447
    -8.9019  -8.8666  -8.3028  -8.2780  -7.6152  -7.5653  -7.4672  -7.3971
    -6.9218  -6.7986  -6.6255  -6.6065  -6.5722  -6.4392  -6.3902  -6.3727
    -6.2340  -6.2084  -5.9783  -5.9449  -5.9268  -5.8455  -5.8257  -5.7931
    -5.7518  -5.7078  -5.5085  -5.4730  -5.1507  -5.0774  -4.9459  -4.9067
    -4.4424  -4.4341  -4.4211  -4.3372  -4.1759  -4.1498  -3.9809  -3.9634
    -3.7143  -3.6818  -3.5388  -3.5272  -3.2115  -3.2066  -3.0897  -3.0628
    -0.7707  -0.7314  -0.3594  -0.3468  -0.2521  -0.2057  -0.1671  -0.1207
    -0.0962  -0.0437   0.0642   0.1295   0.2414   0.2883   0.3440   0.3565
     0.5369   0.5947   0.6351   0.6746   0.7670   0.7773   0.8154   0.8626
     0.9743   1.0189   1.0911   1.1221   1.2225   1.2907   1.3666   1.3825

     occupation numbers 
     1.0000   1.0000   1.0000   1.0000   1.0000   1.0000   1.0000   1.0000
     1.0000   1.0000   1.0000   1.0000   1.0000   1.0000   1.0000   1.0000
     1.0000   1.0000   1.0000   1.0000   1.0000   1.0000   1.0000   1.0000
     1.0000   1.0000   1.0000   1.0000   1.0000   1.0000   1.0000   1.0000
     1.0000   1.0000   1.0000   1.0000   1.0000   1.0000   1.0000   1.0000
     1.0000   1.0000   1.0000   1.0000   1.0000   1.0000   1.0000   1.0000
     1.0000   1.0000   1.0000   1.0000   1.0000   1.0000   1.0000   1.0000
     1.0000   1.0000   1.0000   1.0000   1.0000   1.0000   1.0000   1.0000
     1.0000   1.0000   1.0000   1.0000   1.0000   1.0000   1.0000   1.0000
     1.0000   1.0000   1.0000   1.0000   1.0000   1.0000   1.0000   1.0000
     1.0000   1.0000   1.0000   1.0000   1.0000   1.0000   1.0000   1.0000
     1.0000   1.0000   1.0000   1.0000   1.0000   1.0000   1.0000   1.0000
     1.0000   1.0000   1.0000   1.0000   1.0000   1.0000   1.0000   1.0000
     1.0000   1.0000   1.0000   1.0000   1.0000   1.0000   1.0000   1.0000

          k = 0.0191 0.0114-0.0480 ( 58601 PWs)   bands (ev):

   -24.0504 -24.0404 -24.0277 -24.0190 -23.6331 -23.6306 -23.6177 -23.6165
   -19.2270 -19.2248 -19.2175 -19.2148 -18.8269 -18.8258 -18.8084 -18.8077
   -18.2942 -18.2707 -17.2853 -17.2428 -17.0992 -17.0951 -16.1019 -16.0869
   -12.1690 -12.1568 -12.1133 -12.0298 -11.9606 -11.8864 -11.8581 -11.8434
    -8.9122  -8.8281  -8.2905  -8.2866  -7.6094  -7.5938  -7.4815  -7.3712
    -6.9258  -6.8218  -6.6339  -6.6086  -6.5214  -6.4939  -6.4089  -6.3781
    -6.2616  -6.2226  -5.9848  -5.9664  -5.8483  -5.8105  -5.8101  -5.7940
    -5.7729  -5.6928  -5.5203  -5.4639  -5.1453  -5.0732  -4.9325  -4.9032
    -4.4742  -4.4300  -4.3804  -4.3355  -4.2129  -4.1556  -3.9756  -3.9319
    -3.7302  -3.6868  -3.5836  -3.5090  -3.2153  -3.1992  -3.0804  -3.0724
    -0.7086  -0.6482  -0.3469  -0.3399  -0.2803  -0.2597  -0.2013  -0.1563
    -0.1195  -0.0955   0.0226   0.1101   0.2568   0.2950   0.3035   0.3463
     0.5731   0.6594   0.6765   0.6977   0.7184   0.8253   0.8325   0.8479
     0.9716   1.0245   1.1009   1.1589   1.2351   1.2590   1.3467   1.3695

     occupation numbers 
     1.0000   1.0000   1.0000   1.0000   1.0000   1.0000   1.0000   1.0000
     1.0000   1.0000   1.0000   1.0000   1.0000   1.0000   1.0000   1.0000
     1.0000   1.0000   1.0000   1.0000   1.0000   1.0000   1.0000   1.0000
     1.0000   1.0000   1.0000   1.0000   1.0000   1.0000   1.0000   1.0000
     1.0000   1.0000   1.0000   1.0000   1.0000   1.0000   1.0000   1.0000
     1.0000   1.0000   1.0000   1.0000   1.0000   1.0000   1.0000   1.0000
     1.0000   1.0000   1.0000   1.0000   1.0000   1.0000   1.0000   1.0000
     1.0000   1.0000   1.0000   1.0000   1.0000   1.0000   1.0000   1.0000
     1.0000   1.0000   1.0000   1.0000   1.0000   1.0000   1.0000   1.0000
     1.0000   1.0000   1.0000   1.0000   1.0000   1.0000   1.0000   1.0000
     1.0000   1.0000   1.0000   1.0000   1.0000   1.0000   1.0000   1.0000
     1.0000   1.0000   1.0000   1.0000   1.0000   1.0000   1.0000   1.0000
     1.0000   1.0000   1.0000   1.0000   1.0000   1.0000   1.0000   1.0000
     1.0000   1.0000   1.0000   1.0000   1.0000   1.0000   1.0000   1.0000

          k = 0.0191 0.0114-0.0132 ( 58597 PWs)   bands (ev):

   -24.0563 -24.0370 -24.0287 -24.0164 -23.6340 -23.6272 -23.6181 -23.6177
   -19.2301 -19.2247 -19.2192 -19.2089 -18.8233 -18.8220 -18.8108 -18.8107
   -18.2985 -18.2644 -17.2955 -17.2324 -17.1038 -17.1014 -16.1025 -16.0831
   -12.1664 -12.1478 -12.1363 -12.0227 -11.9688 -11.8905 -11.8438 -11.8248
    -8.9351  -8.8434  -8.3148  -8.2888  -7.6049  -7.5835  -7.5215  -7.4382
    -6.8419  -6.8260  -6.6317  -6.5660  -6.5317  -6.4661  -6.3767  -6.3233
    -6.2190  -6.1734  -6.0228  -5.9713  -5.8940  -5.8452  -5.7553  -5.7475
    -5.7066  -5.6783  -5.5820  -5.5599  -5.1130  -5.0689  -4.9506  -4.9048
    -4.5121  -4.4659  -4.4470  -4.4292  -4.2545  -4.1772  -3.8849  -3.8114
    -3.7752  -3.6479  -3.5813  -3.5474  -3.1947  -3.1534  -3.1014  -3.0888
    -0.7526  -0.7349  -0.3369  -0.3304  -0.2494  -0.2040  -0.1247  -0.1083
    -0.0945  -0.0557   0.0581   0.1164   0.1919   0.2660   0.3180   0.3845
     0.5511   0.5924   0.6122   0.6934   0.7333   0.8138   0.8700   0.8802
     0.9134   0.9973   1.0840   1.1614   1.1999   1.3103   1.3533   1.3694

     occupation numbers 
     1.0000   1.0000   1.0000   1.0000   1.0000   1.0000   1.0000   1.0000
     1.0000   1.0000   1.0000   1.0000   1.0000   1.0000   1.0000   1.0000
     1.0000   1.0000   1.0000   1.0000   1.0000   1.0000   1.0000   1.0000
     1.0000   1.0000   1.0000   1.0000   1.0000   1.0000   1.0000   1.0000
     1.0000   1.0000   1.0000   1.0000   1.0000   1.0000   1.0000   1.0000
     1.0000   1.0000   1.0000   1.0000   1.0000   1.0000   1.0000   1.0000
     1.0000   1.0000   1.0000   1.0000   1.0000   1.0000   1.0000   1.0000
     1.0000   1.0000   1.0000   1.0000   1.0000   1.0000   1.0000   1.0000
     1.0000   1.0000   1.0000   1.0000   1.0000   1.0000   1.0000   1.0000
     1.0000   1.0000   1.0000   1.0000   1.0000   1.0000   1.0000   1.0000
     1.0000   1.0000   1.0000   1.0000   1.0000   1.0000   1.0000   1.0000
     1.0000   1.0000   1.0000   1.0000   1.0000   1.0000   1.0000   1.0000
     1.0000   1.0000   1.0000   1.0000   1.0000   1.0000   1.0000   1.0000
     1.0000   1.0000   1.0000   1.0000   1.0000   1.0000   1.0000   1.0000

          k = 0.0191 0.0341 0.0217 ( 58584 PWs)   bands (ev):

   -24.0513 -24.0443 -24.0232 -24.0198 -23.6299 -23.6265 -23.6203 -23.6200
   -19.2305 -19.2288 -19.2139 -19.2096 -18.8191 -18.8188 -18.8147 -18.8143
   -18.2874 -18.2773 -17.2734 -17.2540 -17.1001 -17.0997 -16.0985 -16.0934
   -12.1493 -12.1483 -12.1110 -12.0702 -11.9342 -11.9108 -11.8396 -11.8306
    -8.9126  -8.8959  -8.3117  -8.2968  -7.5927  -7.5756  -7.4802  -7.4796
    -6.8531  -6.8060  -6.5831  -6.5658  -6.5481  -6.4718  -6.3493  -6.3298
    -6.1681  -6.1591  -6.0289  -5.9803  -5.9368  -5.9072  -5.7826  -5.7691
    -5.6701  -5.6529  -5.5745  -5.5581  -5.1038  -5.0402  -4.9924  -4.9687
    -4.5009  -4.4925  -4.4156  -4.4055  -4.2393  -4.1973  -3.8670  -3.8626
    -3.7006  -3.6648  -3.5693  -3.5551  -3.1831  -3.1691  -3.0977  -3.0894
    -0.7966  -0.7919  -0.3410  -0.3301  -0.2556  -0.2152  -0.1406  -0.1343
    -0.0101   0.0026   0.1962   0.2053   0.2386   0.2470   0.3870   0.3993
     0.4087   0.4359   0.6287   0.6532   0.7380   0.7601   0.8724   0.8899
     0.9433   0.9897   1.0905   1.1197   1.2328   1.2849   1.3762   1.3821

     occupation numbers 
     1.0000   1.0000   1.0000   1.0000   1.0000   1.0000   1.0000   1.0000
     1.0000   1.0000   1.0000   1.0000   1.0000   1.0000   1.0000   1.0000
     1.0000   1.0000   1.0000   1.0000   1.0000   1.0000   1.0000   1.0000
     1.0000   1.0000   1.0000   1.0000   1.0000   1.0000   1.0000   1.0000
     1.0000   1.0000   1.0000   1.0000   1.0000   1.0000   1.0000   1.0000
     1.0000   1.0000   1.0000   1.0000   1.0000   1.0000   1.0000   1.0000
     1.0000   1.0000   1.0000   1.0000   1.0000   1.0000   1.0000   1.0000
     1.0000   1.0000   1.0000   1.0000   1.0000   1.0000   1.0000   1.0000
     1.0000   1.0000   1.0000   1.0000   1.0000   1.0000   1.0000   1.0000
     1.0000   1.0000   1.0000   1.0000   1.0000   1.0000   1.0000   1.0000
     1.0000   1.0000   1.0000   1.0000   1.0000   1.0000   1.0000   1.0000
     1.0000   1.0000   1.0000   1.0000   1.0000   1.0000   1.0000   1.0000
     1.0000   1.0000   1.0000   1.0000   1.0000   1.0000   1.0000   1.0000
     1.0000   1.0000   1.0000   1.0000   1.0000   1.0000   1.0000   1.0000

          k = 0.0191 0.0341 0.0566 ( 58608 PWs)   bands (ev):

   -24.0464 -24.0436 -24.0241 -24.0235 -23.6305 -23.6292 -23.6195 -23.6185
   -19.2285 -19.2271 -19.2156 -19.2126 -18.8247 -18.8244 -18.8100 -18.8097
   -18.2832 -18.2830 -17.2648 -17.2637 -17.0947 -17.0936 -16.0980 -16.0973
   -12.1579 -12.1574 -12.0789 -12.0706 -11.9239 -11.9194 -11.8533 -11.8493
    -8.8918  -8.8771  -8.2960  -8.2857  -7.5989  -7.5785  -7.4469  -7.4187
    -6.9021  -6.8566  -6.6189  -6.6120  -6.5127  -6.4603  -6.4050  -6.3863
    -6.1898  -6.1729  -5.9997  -5.9636  -5.9048  -5.8707  -5.8200  -5.8041
    -5.7453  -5.7115  -5.5160  -5.4981  -5.0880  -5.0380  -4.9961  -4.9590
    -4.4256  -4.4139  -4.3964  -4.3586  -4.1816  -4.1686  -3.9725  -3.9657
    -3.7010  -3.6865  -3.5369  -3.5314  -3.2048  -3.2007  -3.0908  -3.0776
    -0.7588  -0.7427  -0.3516  -0.3425  -0.2574  -0.2265  -0.1703  -0.1482
    -0.0687  -0.0448   0.1126   0.1350   0.2448   0.2670   0.3368   0.3486
     0.5515   0.5776   0.6464   0.6653   0.7715   0.7815   0.8172   0.8474
     0.9816   1.0028   1.1048   1.1175   1.2443   1.2720   1.3705   1.3770

     occupation numbers 
     1.0000   1.0000   1.0000   1.0000   1.0000   1.0000   1.0000   1.0000
     1.0000   1.0000   1.0000   1.0000   1.0000   1.0000   1.0000   1.0000
     1.0000   1.0000   1.0000   1.0000   1.0000   1.0000   1.0000   1.0000
     1.0000   1.0000   1.0000   1.0000   1.0000   1.0000   1.0000   1.0000
     1.0000   1.0000   1.0000   1.0000   1.0000   1.0000   1.0000   1.0000
     1.0000   1.0000   1.0000   1.0000   1.0000   1.0000   1.0000   1.0000
     1.0000   1.0000   1.0000   1.0000   1.0000   1.0000   1.0000   1.0000
     1.0000   1.0000   1.0000   1.0000   1.0000   1.0000   1.0000   1.0000
     1.0000   1.0000   1.0000   1.0000   1.0000   1.0000   1.0000   1.0000
     1.0000   1.0000   1.0000   1.0000   1.0000   1.0000   1.0000   1.0000
     1.0000   1.0000   1.0000   1.0000   1.0000   1.0000   1.0000   1.0000
     1.0000   1.0000   1.0000   1.0000   1.0000   1.0000   1.0000   1.0000
     1.0000   1.0000   1.0000   1.0000   1.0000   1.0000   1.0000   1.0000
     1.0000   1.0000   1.0000   1.0000   1.0000   1.0000   1.0000   1.0000

          k = 0.0191 0.0341-0.0480 ( 58615 PWs)   bands (ev):

   -24.0479 -24.0438 -24.0247 -24.0212 -23.6322 -23.6311 -23.6175 -23.6170
   -19.2271 -19.2263 -19.2157 -19.2148 -18.8265 -18.8261 -18.8082 -18.8079
   -18.2875 -18.2778 -17.2728 -17.2552 -17.0980 -17.0963 -16.0974 -16.0912
   -12.1651 -12.1600 -12.0973 -12.0662 -11.9274 -11.9003 -11.8537 -11.8475
    -8.8886  -8.8538  -8.2907  -8.2888  -7.6006  -7.5954  -7.4525  -7.4056
    -6.8955  -6.8519  -6.6315  -6.6126  -6.5126  -6.5036  -6.4367  -6.4170
    -6.1777  -6.1604  -6.0153  -5.9966  -5.8427  -5.8274  -5.8175  -5.7980
    -5.7462  -5.7088  -5.5107  -5.4822  -5.1194  -5.0664  -4.9598  -4.9235
    -4.4636  -4.4431  -4.3509  -4.3345  -4.2051  -4.1804  -3.9612  -3.9426
    -3.7117  -3.6932  -3.5619  -3.5310  -3.2044  -3.1950  -3.0882  -3.0858
    -0.6926  -0.6680  -0.3461  -0.3407  -0.2538  -0.2414  -0.2187  -0.1877
    -0.1266  -0.1138   0.0751   0.1088   0.2585   0.2740   0.3141   0.3378
     0.5981   0.6324   0.6929   0.7047   0.7316   0.7790   0.8402   0.8468
     0.9864   1.0038   1.1254   1.1474   1.2401   1.2505   1.3533   1.3630

     occupation numbers 
     1.0000   1.0000   1.0000   1.0000   1.0000   1.0000   1.0000   1.0000
     1.0000   1.0000   1.0000   1.0000   1.0000   1.0000   1.0000   1.0000
     1.0000   1.0000   1.0000   1.0000   1.0000   1.0000   1.0000   1.0000
     1.0000   1.0000   1.0000   1.0000   1.0000   1.0000   1.0000   1.0000
     1.0000   1.0000   1.0000   1.0000   1.0000   1.0000   1.0000   1.0000
     1.0000   1.0000   1.0000   1.0000   1.0000   1.0000   1.0000   1.0000
     1.0000   1.0000   1.0000   1.0000   1.0000   1.0000   1.0000   1.0000
     1.0000   1.0000   1.0000   1.0000   1.0000   1.0000   1.0000   1.0000
     1.0000   1.0000   1.0000   1.0000   1.0000   1.0000   1.0000   1.0000
     1.0000   1.0000   1.0000   1.0000   1.0000   1.0000   1.0000   1.0000
     1.0000   1.0000   1.0000   1.0000   1.0000   1.0000   1.0000   1.0000
     1.0000   1.0000   1.0000   1.0000   1.0000   1.0000   1.0000   1.0000
     1.0000   1.0000   1.0000   1.0000   1.0000   1.0000   1.0000   1.0000
     1.0000   1.0000   1.0000   1.0000   1.0000   1.0000   1.0000   1.0000

          k = 0.0191 0.0341-0.0132 ( 58596 PWs)   bands (ev):

   -24.0521 -24.0449 -24.0228 -24.0186 -23.6319 -23.6290 -23.6180 -23.6179
   -19.2297 -19.2280 -19.2145 -19.2108 -18.8229 -18.8224 -18.8108 -18.8107
   -18.2890 -18.2749 -17.2765 -17.2503 -17.1034 -17.1024 -16.0966 -16.0886
   -12.1590 -12.1528 -12.1154 -12.0743 -11.9288 -11.9026 -11.8379 -11.8300
    -8.9100  -8.8720  -8.3088  -8.2981  -7.5995  -7.5894  -7.4931  -7.4597
    -6.8173  -6.8041  -6.6155  -6.5781  -6.5475  -6.5051  -6.3972  -6.3698
    -6.1527  -6.1465  -6.0247  -6.0023  -5.8909  -5.8676  -5.7689  -5.7603
    -5.6663  -5.6593  -5.5692  -5.5539  -5.1109  -5.0819  -4.9543  -4.9291
    -4.5041  -4.4917  -4.4280  -4.4096  -4.2437  -4.2053  -3.8608  -3.8305
    -3.7295  -3.6753  -3.5742  -3.5592  -3.1865  -3.1695  -3.0960  -3.0910
    -0.7448  -0.7374  -0.3321  -0.3229  -0.2511  -0.2139  -0.1432  -0.1365
    -0.0839  -0.0675   0.0874   0.1159   0.2112   0.2447   0.3552   0.3836
     0.5617   0.5865   0.6246   0.6720   0.7213   0.7613   0.8848   0.8852
     0.9495   0.9810   1.1188   1.1501   1.2214   1.2679   1.3613   1.3665

     occupation numbers 
     1.0000   1.0000   1.0000   1.0000   1.0000   1.0000   1.0000   1.0000
     1.0000   1.0000   1.0000   1.0000   1.0000   1.0000   1.0000   1.0000
     1.0000   1.0000   1.0000   1.0000   1.0000   1.0000   1.0000   1.0000
     1.0000   1.0000   1.0000   1.0000   1.0000   1.0000   1.0000   1.0000
     1.0000   1.0000   1.0000   1.0000   1.0000   1.0000   1.0000   1.0000
     1.0000   1.0000   1.0000   1.0000   1.0000   1.0000   1.0000   1.0000
     1.0000   1.0000   1.0000   1.0000   1.0000   1.0000   1.0000   1.0000
     1.0000   1.0000   1.0000   1.0000   1.0000   1.0000   1.0000   1.0000
     1.0000   1.0000   1.0000   1.0000   1.0000   1.0000   1.0000   1.0000
     1.0000   1.0000   1.0000   1.0000   1.0000   1.0000   1.0000   1.0000
     1.0000   1.0000   1.0000   1.0000   1.0000   1.0000   1.0000   1.0000
     1.0000   1.0000   1.0000   1.0000   1.0000   1.0000   1.0000   1.0000
     1.0000   1.0000   1.0000   1.0000   1.0000   1.0000   1.0000   1.0000
     1.0000   1.0000   1.0000   1.0000   1.0000   1.0000   1.0000   1.0000

          k = 0.0574 0.0114 0.0303 ( 58589 PWs)   bands (ev):

   -24.0466 -24.0399 -24.0246 -24.0235 -23.6295 -23.6260 -23.6231 -23.6211
   -19.2283 -19.2243 -19.2204 -19.2120 -18.8223 -18.8209 -18.8128 -18.8128
   -18.2890 -18.2886 -17.2608 -17.2582 -17.1039 -17.1014 -16.0990 -16.0970
   -12.1468 -12.1462 -12.0549 -12.0351 -11.9035 -11.8905 -11.8524 -11.8380
    -8.9207  -8.8880  -8.3217  -8.2992  -7.5923  -7.5723  -7.5468  -7.4999
    -6.9961  -6.9196  -6.6823  -6.5707  -6.5295  -6.4785  -6.3032  -6.2522
    -6.2401  -6.1696  -6.0491  -5.9842  -5.9090  -5.8662  -5.7800  -5.7640
    -5.6921  -5.6468  -5.5979  -5.5890  -5.1626  -5.0529  -4.9340  -4.9269
    -4.4758  -4.4598  -4.4316  -4.3739  -4.0709  -4.0142  -3.8317  -3.8135
    -3.7176  -3.6887  -3.6569  -3.6367  -3.1850  -3.1796  -3.1097  -3.0760
    -0.7596  -0.7384  -0.3267  -0.3219  -0.2340  -0.2098  -0.1307  -0.1128
    -0.0769  -0.0631   0.1103   0.1216   0.2100   0.2230   0.3564   0.3716
     0.5710   0.5764   0.6363   0.6919   0.7700   0.7804   0.8594   0.8705
     0.9238   0.9783   1.0003   1.0591   1.2831   1.3056   1.3494   1.3846

     occupation numbers 
     1.0000   1.0000   1.0000   1.0000   1.0000   1.0000   1.0000   1.0000
     1.0000   1.0000   1.0000   1.0000   1.0000   1.0000   1.0000   1.0000
     1.0000   1.0000   1.0000   1.0000   1.0000   1.0000   1.0000   1.0000
     1.0000   1.0000   1.0000   1.0000   1.0000   1.0000   1.0000   1.0000
     1.0000   1.0000   1.0000   1.0000   1.0000   1.0000   1.0000   1.0000
     1.0000   1.0000   1.0000   1.0000   1.0000   1.0000   1.0000   1.0000
     1.0000   1.0000   1.0000   1.0000   1.0000   1.0000   1.0000   1.0000
     1.0000   1.0000   1.0000   1.0000   1.0000   1.0000   1.0000   1.0000
     1.0000   1.0000   1.0000   1.0000   1.0000   1.0000   1.0000   1.0000
     1.0000   1.0000   1.0000   1.0000   1.0000   1.0000   1.0000   1.0000
     1.0000   1.0000   1.0000   1.0000   1.0000   1.0000   1.0000   1.0000
     1.0000   1.0000   1.0000   1.0000   1.0000   1.0000   1.0000   1.0000
     1.0000   1.0000   1.0000   1.0000   1.0000   1.0000   1.0000   1.0000
     1.0000   1.0000   1.0000   1.0000   1.0000   1.0000   1.0000   1.0000

          k = 0.0574 0.0114 0.0652 ( 58603 PWs)   bands (ev):

   -24.0432 -24.0426 -24.0276 -24.0204 -23.6281 -23.6277 -23.6253 -23.6193
   -19.2283 -19.2251 -19.2209 -19.2119 -18.8319 -18.8298 -18.8056 -18.8038
   -18.3028 -18.2800 -17.2791 -17.2392 -17.0940 -17.0879 -16.1147 -16.0968
   -12.1584 -12.1564 -12.0826 -12.0071 -11.9062 -11.8583 -11.8579 -11.8444
    -8.9635  -8.8408  -8.3161  -8.2784  -7.6013  -7.5745  -7.5081  -7.3898
    -7.0917  -6.8711  -6.6895  -6.5616  -6.5547  -6.4478  -6.4285  -6.3609
    -6.2787  -6.2236  -6.0241  -5.9969  -5.9256  -5.8695  -5.8144  -5.7695
    -5.6760  -5.6172  -5.5467  -5.4781  -5.1712  -5.0158  -5.0001  -4.9369
    -4.4240  -4.4134  -4.3617  -4.3327  -4.0289  -3.9732  -3.8965  -3.8822
    -3.7907  -3.7198  -3.6681  -3.5804  -3.2200  -3.1971  -3.1070  -3.0440
    -0.8334  -0.7813  -0.3338  -0.2992  -0.2358  -0.2034  -0.1318  -0.0968
    -0.0441  -0.0268   0.1771   0.2123   0.2296   0.2486   0.3253   0.4099
     0.4866   0.5055   0.5447   0.6660   0.7559   0.7938   0.8383   0.8626
     0.9620   1.0033   1.0165   1.0441   1.2958   1.3302   1.3549   1.3931

     occupation numbers 
     1.0000   1.0000   1.0000   1.0000   1.0000   1.0000   1.0000   1.0000
     1.0000   1.0000   1.0000   1.0000   1.0000   1.0000   1.0000   1.0000
     1.0000   1.0000   1.0000   1.0000   1.0000   1.0000   1.0000   1.0000
     1.0000   1.0000   1.0000   1.0000   1.0000   1.0000   1.0000   1.0000
     1.0000   1.0000   1.0000   1.0000   1.0000   1.0000   1.0000   1.0000
     1.0000   1.0000   1.0000   1.0000   1.0000   1.0000   1.0000   1.0000
     1.0000   1.0000   1.0000   1.0000   1.0000   1.0000   1.0000   1.0000
     1.0000   1.0000   1.0000   1.0000   1.0000   1.0000   1.0000   1.0000
     1.0000   1.0000   1.0000   1.0000   1.0000   1.0000   1.0000   1.0000
     1.0000   1.0000   1.0000   1.0000   1.0000   1.0000   1.0000   1.0000
     1.0000   1.0000   1.0000   1.0000   1.0000   1.0000   1.0000   1.0000
     1.0000   1.0000   1.0000   1.0000   1.0000   1.0000   1.0000   1.0000
     1.0000   1.0000   1.0000   1.0000   1.0000   1.0000   1.0000   1.0000
     1.0000   1.0000   1.0000   1.0000   1.0000   1.0000   1.0000   1.0000

          k = 0.0574 0.0114-0.0395 ( 58567 PWs)   bands (ev):

   -24.0469 -24.0394 -24.0293 -24.0181 -23.6310 -23.6305 -23.6216 -23.6174
   -19.2265 -19.2249 -19.2202 -19.2147 -18.8330 -18.8308 -18.8045 -18.8026
   -18.3071 -18.2744 -17.2886 -17.2297 -17.0969 -17.0906 -16.1142 -16.0908
   -12.1621 -12.1577 -12.1058 -11.9868 -11.9214 -11.8582 -11.8527 -11.8333
    -8.9594  -8.8168  -8.3104  -8.2797  -7.5977  -7.5836  -7.5299  -7.3768
    -7.1058  -6.8735  -6.6768  -6.5700  -6.5565  -6.5021  -6.4313  -6.3617
    -6.2967  -6.2345  -6.0068  -5.9565  -5.8983  -5.8790  -5.8147  -5.7771
    -5.6561  -5.6138  -5.5565  -5.4762  -5.1612  -5.0361  -4.9734  -4.9272
    -4.4293  -4.3922  -4.3709  -4.3384  -4.0438  -3.9947  -3.8674  -3.8427
    -3.7686  -3.7515  -3.7146  -3.5868  -3.2234  -3.1958  -3.0997  -3.0504
    -0.7938  -0.7203  -0.3260  -0.2782  -0.2409  -0.2218  -0.1411  -0.1196
    -0.1033  -0.0617   0.1011   0.1890   0.2287   0.2760   0.2866   0.3043
     0.5286   0.6092   0.6349   0.6534   0.7468   0.7945   0.8589   0.8753
     0.9532   0.9843   1.0379   1.0959   1.3155   1.3272   1.3333   1.3548

     occupation numbers 
     1.0000   1.0000   1.0000   1.0000   1.0000   1.0000   1.0000   1.0000
     1.0000   1.0000   1.0000   1.0000   1.0000   1.0000   1.0000   1.0000
     1.0000   1.0000   1.0000   1.0000   1.0000   1.0000   1.0000   1.0000
     1.0000   1.0000   1.0000   1.0000   1.0000   1.0000   1.0000   1.0000
     1.0000   1.0000   1.0000   1.0000   1.0000   1.0000   1.0000   1.0000
     1.0000   1.0000   1.0000   1.0000   1.0000   1.0000   1.0000   1.0000
     1.0000   1.0000   1.0000   1.0000   1.0000   1.0000   1.0000   1.0000
     1.0000   1.0000   1.0000   1.0000   1.0000   1.0000   1.0000   1.0000
     1.0000   1.0000   1.0000   1.0000   1.0000   1.0000   1.0000   1.0000
     1.0000   1.0000   1.0000   1.0000   1.0000   1.0000   1.0000   1.0000
     1.0000   1.0000   1.0000   1.0000   1.0000   1.0000   1.0000   1.0000
     1.0000   1.0000   1.0000   1.0000   1.0000   1.0000   1.0000   1.0000
     1.0000   1.0000   1.0000   1.0000   1.0000   1.0000   1.0000   1.0000
     1.0000   1.0000   1.0000   1.0000   1.0000   1.0000   1.0000   1.0000

          k = 0.0574 0.0114-0.0046 ( 58529 PWs)   bands (ev):

   -24.0485 -24.0385 -24.0281 -24.0194 -23.6318 -23.6291 -23.6202 -23.6187
   -19.2267 -19.2245 -19.2183 -19.2157 -18.8250 -18.8235 -18.8103 -18.8098
   -18.3000 -18.2763 -17.2813 -17.2375 -17.1066 -17.1044 -16.1024 -16.0872
   -12.1505 -12.1474 -12.0946 -11.9972 -11.9300 -11.8718 -11.8422 -11.8404
    -8.9315  -8.8487  -8.3100  -8.3069  -7.5905  -7.5823  -7.5787  -7.4760
    -7.0050  -6.9214  -6.6401  -6.6146  -6.5254  -6.5209  -6.3339  -6.2871
    -6.2208  -6.2145  -5.9751  -5.9433  -5.8837  -5.8613  -5.7936  -5.7842
    -5.6677  -5.6569  -5.5978  -5.5881  -5.1209  -5.1033  -4.9160  -4.9053
    -4.4776  -4.4604  -4.4164  -4.3915  -4.0608  -4.0425  -3.7924  -3.7874
    -3.7564  -3.7064  -3.6632  -3.6503  -3.1987  -3.1708  -3.0991  -3.0838
    -0.7076  -0.6584  -0.3228  -0.3133  -0.2310  -0.2260  -0.2036  -0.1844
    -0.0935  -0.0712   0.0543   0.1219   0.1932   0.2308   0.3259   0.3605
     0.5472   0.6219   0.7061   0.7315   0.7545   0.8021   0.8729   0.8941
     0.9281   0.9420   1.0168   1.1052   1.3004   1.3008   1.3267   1.3469

     occupation numbers 
     1.0000   1.0000   1.0000   1.0000   1.0000   1.0000   1.0000   1.0000
     1.0000   1.0000   1.0000   1.0000   1.0000   1.0000   1.0000   1.0000
     1.0000   1.0000   1.0000   1.0000   1.0000   1.0000   1.0000   1.0000
     1.0000   1.0000   1.0000   1.0000   1.0000   1.0000   1.0000   1.0000
     1.0000   1.0000   1.0000   1.0000   1.0000   1.0000   1.0000   1.0000
     1.0000   1.0000   1.0000   1.0000   1.0000   1.0000   1.0000   1.0000
     1.0000   1.0000   1.0000   1.0000   1.0000   1.0000   1.0000   1.0000
     1.0000   1.0000   1.0000   1.0000   1.0000   1.0000   1.0000   1.0000
     1.0000   1.0000   1.0000   1.0000   1.0000   1.0000   1.0000   1.0000
     1.0000   1.0000   1.0000   1.0000   1.0000   1.0000   1.0000   1.0000
     1.0000   1.0000   1.0000   1.0000   1.0000   1.0000   1.0000   1.0000
     1.0000   1.0000   1.0000   1.0000   1.0000   1.0000   1.0000   1.0000
     1.0000   1.0000   1.0000   1.0000   1.0000   1.0000   1.0000   1.0000
     1.0000   1.0000   1.0000   1.0000   1.0000   1.0000   1.0000   1.0000

          k = 0.0574 0.0341 0.0303 ( 58582 PWs)   bands (ev):

   -24.0445 -24.0417 -24.0245 -24.0240 -23.6280 -23.6266 -23.6229 -23.6221
   -19.2282 -19.2270 -19.2164 -19.2135 -18.8219 -18.8213 -18.8128 -18.8127
   -18.2889 -18.2888 -17.2602 -17.2591 -17.1030 -17.1020 -16.0985 -16.0977
   -12.1466 -12.1463 -12.0478 -12.0393 -11.9016 -11.8960 -11.8481 -11.8421
    -8.9112  -8.8976  -8.3118  -8.3023  -7.5854  -7.5776  -7.5377  -7.5177
    -6.9958  -6.9691  -6.6112  -6.5793  -6.5076  -6.4705  -6.3315  -6.2947
    -6.2117  -6.1835  -6.0211  -5.9948  -5.9011  -5.8801  -5.7799  -5.7629
    -5.6769  -5.6642  -5.5926  -5.5845  -5.1333  -5.0879  -4.9376  -4.9335
    -4.4732  -4.4645  -4.4115  -4.3902  -4.0492  -4.0234  -3.8144  -3.8081
    -3.7250  -3.7090  -3.6506  -3.6396  -3.1831  -3.1801  -3.1038  -3.0891
    -0.7505  -0.7417  -0.3167  -0.3100  -0.2614  -0.2419  -0.1141  -0.0934
    -0.0848  -0.0705   0.1249   0.1368   0.2112   0.2236   0.3549   0.3622
     0.5913   0.6017   0.6168   0.6511   0.7730   0.7764   0.8648   0.8816
     0.9398   0.9703   1.0072   1.0348   1.2901   1.2992   1.3604   1.3747

     occupation numbers 
     1.0000   1.0000   1.0000   1.0000   1.0000   1.0000   1.0000   1.0000
     1.0000   1.0000   1.0000   1.0000   1.0000   1.0000   1.0000   1.0000
     1.0000   1.0000   1.0000   1.0000   1.0000   1.0000   1.0000   1.0000
     1.0000   1.0000   1.0000   1.0000   1.0000   1.0000   1.0000   1.0000
     1.0000   1.0000   1.0000   1.0000   1.0000   1.0000   1.0000   1.0000
     1.0000   1.0000   1.0000   1.0000   1.0000   1.0000   1.0000   1.0000
     1.0000   1.0000   1.0000   1.0000   1.0000   1.0000   1.0000   1.0000
     1.0000   1.0000   1.0000   1.0000   1.0000   1.0000   1.0000   1.0000
     1.0000   1.0000   1.0000   1.0000   1.0000   1.0000   1.0000   1.0000
     1.0000   1.0000   1.0000   1.0000   1.0000   1.0000   1.0000   1.0000
     1.0000   1.0000   1.0000   1.0000   1.0000   1.0000   1.0000   1.0000
     1.0000   1.0000   1.0000   1.0000   1.0000   1.0000   1.0000   1.0000
     1.0000   1.0000   1.0000   1.0000   1.0000   1.0000   1.0000   1.0000
     1.0000   1.0000   1.0000   1.0000   1.0000   1.0000   1.0000   1.0000

          k = 0.0574 0.0341 0.0652 ( 58607 PWs)   bands (ev):

   -24.0429 -24.0426 -24.0257 -24.0226 -23.6279 -23.6278 -23.6236 -23.6211
   -19.2284 -19.2276 -19.2166 -19.2134 -18.8312 -18.8304 -18.8050 -18.8043
   -18.2963 -18.2869 -17.2673 -17.2508 -17.0923 -17.0898 -16.1093 -16.1019
   -12.1601 -12.1582 -12.0606 -12.0304 -11.8894 -11.8702 -11.8543 -11.8486
    -8.9289  -8.8781  -8.3035  -8.2878  -7.5756  -7.5634  -7.5011  -7.4465
    -7.0509  -6.9727  -6.5987  -6.5672  -6.5384  -6.4951  -6.3857  -6.3337
    -6.2895  -6.2407  -6.0060  -5.9909  -5.9191  -5.8957  -5.8245  -5.7948
    -5.6676  -5.6436  -5.5169  -5.4894  -5.1350  -5.0683  -4.9815  -4.9528
    -4.4091  -4.3912  -4.3626  -4.3342  -4.0136  -3.9913  -3.8946  -3.8877
    -3.7747  -3.7510  -3.6363  -3.6028  -3.2135  -3.2040  -3.0899  -3.0636
    -0.8155  -0.7940  -0.3213  -0.3056  -0.2573  -0.2452  -0.1145  -0.1053
    -0.0144  -0.0090   0.1940   0.2060   0.2424   0.2542   0.3445   0.3846
     0.4714   0.4814   0.5957   0.6523   0.7452   0.7789   0.8478   0.8626
     0.9550   0.9790   1.0353   1.0518   1.3044   1.3182   1.3664   1.3818

     occupation numbers 
     1.0000   1.0000   1.0000   1.0000   1.0000   1.0000   1.0000   1.0000
     1.0000   1.0000   1.0000   1.0000   1.0000   1.0000   1.0000   1.0000
     1.0000   1.0000   1.0000   1.0000   1.0000   1.0000   1.0000   1.0000
     1.0000   1.0000   1.0000   1.0000   1.0000   1.0000   1.0000   1.0000
     1.0000   1.0000   1.0000   1.0000   1.0000   1.0000   1.0000   1.0000
     1.0000   1.0000   1.0000   1.0000   1.0000   1.0000   1.0000   1.0000
     1.0000   1.0000   1.0000   1.0000   1.0000   1.0000   1.0000   1.0000
     1.0000   1.0000   1.0000   1.0000   1.0000   1.0000   1.0000   1.0000
     1.0000   1.0000   1.0000   1.0000   1.0000   1.0000   1.0000   1.0000
     1.0000   1.0000   1.0000   1.0000   1.0000   1.0000   1.0000   1.0000
     1.0000   1.0000   1.0000   1.0000   1.0000   1.0000   1.0000   1.0000
     1.0000   1.0000   1.0000   1.0000   1.0000   1.0000   1.0000   1.0000
     1.0000   1.0000   1.0000   1.0000   1.0000   1.0000   1.0000   1.0000
     1.0000   1.0000   1.0000   1.0000   1.0000   1.0000   1.0000   1.0000

          k = 0.0574 0.0341-0.0395 ( 58583 PWs)   bands (ev):

   -24.0452 -24.0423 -24.0254 -24.0210 -23.6308 -23.6305 -23.6204 -23.6187
   -19.2270 -19.2267 -19.2173 -19.2153 -18.8323 -18.8314 -18.8039 -18.8031
   -18.2979 -18.2844 -17.2709 -17.2465 -17.0954 -17.0928 -16.1071 -16.0974
   -12.1638 -12.1615 -12.0752 -12.0307 -11.8901 -11.8677 -11.8485 -11.8408
    -8.9197  -8.8609  -8.3010  -8.2882  -7.5784  -7.5628  -7.5164  -7.4410
    -7.0544  -6.9696  -6.5988  -6.5756  -6.5487  -6.5120  -6.4450  -6.3812
    -6.2541  -6.2108  -5.9992  -5.9689  -5.9052  -5.9014  -5.8177  -5.7928
    -5.6510  -5.6329  -5.5191  -5.4868  -5.1475  -5.0958  -4.9488  -4.9269
    -4.4282  -4.4138  -4.3400  -4.3236  -4.0271  -4.0071  -3.8654  -3.8554
    -3.7692  -3.7591  -3.6730  -3.6212  -3.2131  -3.2004  -3.0903  -3.0690
    -0.7708  -0.7401  -0.3164  -0.2987  -0.2593  -0.2438  -0.1279  -0.1176
    -0.0773  -0.0515   0.1323   0.1665   0.2350   0.2522   0.2917   0.3100
     0.5556   0.5872   0.6565   0.6639   0.7524   0.7739   0.8436   0.8491
     0.9636   0.9830   1.0605   1.0832   1.3177   1.3239   1.3372   1.3476

     occupation numbers 
     1.0000   1.0000   1.0000   1.0000   1.0000   1.0000   1.0000   1.0000
     1.0000   1.0000   1.0000   1.0000   1.0000   1.0000   1.0000   1.0000
     1.0000   1.0000   1.0000   1.0000   1.0000   1.0000   1.0000   1.0000
     1.0000   1.0000   1.0000   1.0000   1.0000   1.0000   1.0000   1.0000
     1.0000   1.0000   1.0000   1.0000   1.0000   1.0000   1.0000   1.0000
     1.0000   1.0000   1.0000   1.0000   1.0000   1.0000   1.0000   1.0000
     1.0000   1.0000   1.0000   1.0000   1.0000   1.0000   1.0000   1.0000
     1.0000   1.0000   1.0000   1.0000   1.0000   1.0000   1.0000   1.0000
     1.0000   1.0000   1.0000   1.0000   1.0000   1.0000   1.0000   1.0000
     1.0000   1.0000   1.0000   1.0000   1.0000   1.0000   1.0000   1.0000
     1.0000   1.0000   1.0000   1.0000   1.0000   1.0000   1.0000   1.0000
     1.0000   1.0000   1.0000   1.0000   1.0000   1.0000   1.0000   1.0000
     1.0000   1.0000   1.0000   1.0000   1.0000   1.0000   1.0000   1.0000
     1.0000   1.0000   1.0000   1.0000   1.0000   1.0000   1.0000   1.0000

          k = 0.0574 0.0341-0.0046 ( 58579 PWs)   bands (ev):

   -24.0460 -24.0421 -24.0249 -24.0215 -23.6308 -23.6297 -23.6199 -23.6193
   -19.2268 -19.2260 -19.2167 -19.2158 -18.8246 -18.8240 -18.8101 -18.8099
   -18.2933 -18.2835 -17.2683 -17.2501 -17.1060 -17.1051 -16.0979 -16.0916
   -12.1507 -12.1496 -12.0704 -12.0330 -11.9043 -11.8827 -11.8427 -11.8411
    -8.9079  -8.8737  -8.3079  -8.3049  -7.5876  -7.5841  -7.5524  -7.5096
    -6.9934  -6.9597  -6.6088  -6.5982  -6.5021  -6.4993  -6.3884  -6.3674
    -6.1744  -6.1677  -5.9828  -5.9658  -5.8792  -5.8685  -5.7764  -5.7697
    -5.6742  -5.6592  -5.5952  -5.5926  -5.1260  -5.1159  -4.9104  -4.9075
    -4.4787  -4.4651  -4.4161  -4.3946  -4.0454  -4.0358  -3.7936  -3.7900
    -3.7281  -3.6940  -3.6855  -3.6669  -3.1893  -3.1761  -3.1006  -3.0951
    -0.6925  -0.6722  -0.3084  -0.3066  -0.2458  -0.2221  -0.2067  -0.1877
    -0.1061  -0.0877   0.0846   0.1116   0.2065   0.2251   0.3379   0.3559
     0.5766   0.6134   0.6930   0.7145   0.7579   0.7902   0.8776   0.8825
     0.9458   0.9554   1.0328   1.0732   1.3008   1.3018   1.3321   1.3409

     occupation numbers 
     1.0000   1.0000   1.0000   1.0000   1.0000   1.0000   1.0000   1.0000
     1.0000   1.0000   1.0000   1.0000   1.0000   1.0000   1.0000   1.0000
     1.0000   1.0000   1.0000   1.0000   1.0000   1.0000   1.0000   1.0000
     1.0000   1.0000   1.0000   1.0000   1.0000   1.0000   1.0000   1.0000
     1.0000   1.0000   1.0000   1.0000   1.0000   1.0000   1.0000   1.0000
     1.0000   1.0000   1.0000   1.0000   1.0000   1.0000   1.0000   1.0000
     1.0000   1.0000   1.0000   1.0000   1.0000   1.0000   1.0000   1.0000
     1.0000   1.0000   1.0000   1.0000   1.0000   1.0000   1.0000   1.0000
     1.0000   1.0000   1.0000   1.0000   1.0000   1.0000   1.0000   1.0000
     1.0000   1.0000   1.0000   1.0000   1.0000   1.0000   1.0000   1.0000
     1.0000   1.0000   1.0000   1.0000   1.0000   1.0000   1.0000   1.0000
     1.0000   1.0000   1.0000   1.0000   1.0000   1.0000   1.0000   1.0000
     1.0000   1.0000   1.0000   1.0000   1.0000   1.0000   1.0000   1.0000
     1.0000   1.0000   1.0000   1.0000   1.0000   1.0000   1.0000   1.0000

          k =-0.0191 0.0114-0.0217 ( 58606 PWs)   bands (ev):

   -24.0555 -24.0370 -24.0279 -24.0180 -23.6324 -23.6242 -23.6206 -23.6197
   -19.2309 -19.2258 -19.2188 -19.2073 -18.8192 -18.8186 -18.8149 -18.8142
   -18.2943 -18.2699 -17.2872 -17.2405 -17.1001 -17.0996 -16.1023 -16.0898
   -12.1497 -12.1468 -12.1346 -12.0213 -11.9711 -11.9009 -11.8457 -11.8242
    -8.9234  -8.8831  -8.3215  -8.2855  -7.6006  -7.5605  -7.4879  -7.4865
    -6.8774  -6.7709  -6.6201  -6.5678  -6.5579  -6.4168  -6.3684  -6.3092
    -6.1622  -6.1397  -6.0996  -5.9621  -5.9344  -5.8616  -5.7791  -5.7400
    -5.7034  -5.6781  -5.5894  -5.5670  -5.1460  -5.0374  -4.9507  -4.9345
    -4.5130  -4.4752  -4.4443  -4.4145  -4.2515  -4.1643  -3.8792  -3.8701
    -3.7164  -3.6391  -3.5750  -3.5514  -3.1899  -3.1534  -3.1087  -3.0857
    -0.8027  -0.7918  -0.3488  -0.3388  -0.2515  -0.1871  -0.1250  -0.0937
    -0.0430  -0.0096   0.1737   0.2032   0.2158   0.2472   0.3734   0.3876
     0.4343   0.4528   0.6146   0.6660   0.7478   0.8106   0.8569   0.8834
     0.9003   1.0182   1.0581   1.1332   1.2004   1.3294   1.3671   1.3849

     occupation numbers 
     1.0000   1.0000   1.0000   1.0000   1.0000   1.0000   1.0000   1.0000
     1.0000   1.0000   1.0000   1.0000   1.0000   1.0000   1.0000   1.0000
     1.0000   1.0000   1.0000   1.0000   1.0000   1.0000   1.0000   1.0000
     1.0000   1.0000   1.0000   1.0000   1.0000   1.0000   1.0000   1.0000
     1.0000   1.0000   1.0000   1.0000   1.0000   1.0000   1.0000   1.0000
     1.0000   1.0000   1.0000   1.0000   1.0000   1.0000   1.0000   1.0000
     1.0000   1.0000   1.0000   1.0000   1.0000   1.0000   1.0000   1.0000
     1.0000   1.0000   1.0000   1.0000   1.0000   1.0000   1.0000   1.0000
     1.0000   1.0000   1.0000   1.0000   1.0000   1.0000   1.0000   1.0000
     1.0000   1.0000   1.0000   1.0000   1.0000   1.0000   1.0000   1.0000
     1.0000   1.0000   1.0000   1.0000   1.0000   1.0000   1.0000   1.0000
     1.0000   1.0000   1.0000   1.0000   1.0000   1.0000   1.0000   1.0000
     1.0000   1.0000   1.0000   1.0000   1.0000   1.0000   1.0000   1.0000
     1.0000   1.0000   1.0000   1.0000   1.0000   1.0000   1.0000   1.0000

          k =-0.0191 0.0114-0.0566 ( 58630 PWs)   bands (ev):

   -24.0485 -24.0420 -24.0242 -24.0229 -23.6316 -23.6286 -23.6200 -23.6176
   -19.2287 -19.2242 -19.2197 -19.2112 -18.8249 -18.8242 -18.8102 -18.8095
   -18.2834 -18.2829 -17.2654 -17.2626 -17.0958 -17.0930 -16.0985 -16.0968
   -12.1587 -12.1581 -12.0816 -12.0618 -11.9305 -11.9214 -11.8540 -11.8447
    -8.9019  -8.8666  -8.3028  -8.2780  -7.6152  -7.5653  -7.4672  -7.3971
    -6.9218  -6.7986  -6.6254  -6.6066  -6.5723  -6.4391  -6.3902  -6.3727
    -6.2340  -6.2084  -5.9783  -5.9449  -5.9268  -5.8455  -5.8257  -5.7932
    -5.7518  -5.7079  -5.5085  -5.4730  -5.1507  -5.0774  -4.9459  -4.9067
    -4.4424  -4.4341  -4.4211  -4.3372  -4.1760  -4.1498  -3.9809  -3.9634
    -3.7143  -3.6818  -3.5388  -3.5272  -3.2115  -3.2066  -3.0897  -3.0628
    -0.7707  -0.7314  -0.3594  -0.3468  -0.2521  -0.2057  -0.1671  -0.1207
    -0.0963  -0.0437   0.0641   0.1295   0.2414   0.2883   0.3440   0.3566
     0.5369   0.5947   0.6351   0.6746   0.7670   0.7773   0.8154   0.8626
     0.9743   1.0189   1.0911   1.1221   1.2225   1.2907   1.3666   1.3825

     occupation numbers 
     1.0000   1.0000   1.0000   1.0000   1.0000   1.0000   1.0000   1.0000
     1.0000   1.0000   1.0000   1.0000   1.0000   1.0000   1.0000   1.0000
     1.0000   1.0000   1.0000   1.0000   1.0000   1.0000   1.0000   1.0000
     1.0000   1.0000   1.0000   1.0000   1.0000   1.0000   1.0000   1.0000
     1.0000   1.0000   1.0000   1.0000   1.0000   1.0000   1.0000   1.0000
     1.0000   1.0000   1.0000   1.0000   1.0000   1.0000   1.0000   1.0000
     1.0000   1.0000   1.0000   1.0000   1.0000   1.0000   1.0000   1.0000
     1.0000   1.0000   1.0000   1.0000   1.0000   1.0000   1.0000   1.0000
     1.0000   1.0000   1.0000   1.0000   1.0000   1.0000   1.0000   1.0000
     1.0000   1.0000   1.0000   1.0000   1.0000   1.0000   1.0000   1.0000
     1.0000   1.0000   1.0000   1.0000   1.0000   1.0000   1.0000   1.0000
     1.0000   1.0000   1.0000   1.0000   1.0000   1.0000   1.0000   1.0000
     1.0000   1.0000   1.0000   1.0000   1.0000   1.0000   1.0000   1.0000
     1.0000   1.0000   1.0000   1.0000   1.0000   1.0000   1.0000   1.0000

          k =-0.0191 0.0114 0.0480 ( 58601 PWs)   bands (ev):

   -24.0504 -24.0404 -24.0277 -24.0190 -23.6331 -23.6306 -23.6177 -23.6165
   -19.2270 -19.2248 -19.2175 -19.2148 -18.8269 -18.8258 -18.8084 -18.8077
   -18.2942 -18.2707 -17.2853 -17.2428 -17.0992 -17.0951 -16.1019 -16.0869
   -12.1690 -12.1568 -12.1133 -12.0298 -11.9606 -11.8864 -11.8581 -11.8434
    -8.9122  -8.8281  -8.2905  -8.2866  -7.6094  -7.5938  -7.4815  -7.3712
    -6.9258  -6.8218  -6.6339  -6.6086  -6.5214  -6.4939  -6.4090  -6.3781
    -6.2616  -6.2226  -5.9849  -5.9664  -5.8483  -5.8105  -5.8101  -5.7940
    -5.7729  -5.6928  -5.5203  -5.4638  -5.1453  -5.0732  -4.9325  -4.9032
    -4.4742  -4.4300  -4.3804  -4.3355  -4.2130  -4.1556  -3.9756  -3.9319
    -3.7302  -3.6868  -3.5836  -3.5090  -3.2153  -3.1992  -3.0804  -3.0724
    -0.7086  -0.6482  -0.3469  -0.3399  -0.2804  -0.2597  -0.2014  -0.1563
    -0.1195  -0.0955   0.0226   0.1101   0.2568   0.2950   0.3035   0.3463
     0.5731   0.6594   0.6765   0.6977   0.7184   0.8253   0.8325   0.8479
     0.9716   1.0245   1.1009   1.1589   1.2351   1.2590   1.3467   1.3694

     occupation numbers 
     1.0000   1.0000   1.0000   1.0000   1.0000   1.0000   1.0000   1.0000
     1.0000   1.0000   1.0000   1.0000   1.0000   1.0000   1.0000   1.0000
     1.0000   1.0000   1.0000   1.0000   1.0000   1.0000   1.0000   1.0000
     1.0000   1.0000   1.0000   1.0000   1.0000   1.0000   1.0000   1.0000
     1.0000   1.0000   1.0000   1.0000   1.0000   1.0000   1.0000   1.0000
     1.0000   1.0000   1.0000   1.0000   1.0000   1.0000   1.0000   1.0000
     1.0000   1.0000   1.0000   1.0000   1.0000   1.0000   1.0000   1.0000
     1.0000   1.0000   1.0000   1.0000   1.0000   1.0000   1.0000   1.0000
     1.0000   1.0000   1.0000   1.0000   1.0000   1.0000   1.0000   1.0000
     1.0000   1.0000   1.0000   1.0000   1.0000   1.0000   1.0000   1.0000
     1.0000   1.0000   1.0000   1.0000   1.0000   1.0000   1.0000   1.0000
     1.0000   1.0000   1.0000   1.0000   1.0000   1.0000   1.0000   1.0000
     1.0000   1.0000   1.0000   1.0000   1.0000   1.0000   1.0000   1.0000
     1.0000   1.0000   1.0000   1.0000   1.0000   1.0000   1.0000   1.0000

          k =-0.0191 0.0114 0.0132 ( 58597 PWs)   bands (ev):

   -24.0563 -24.0370 -24.0287 -24.0164 -23.6340 -23.6272 -23.6181 -23.6177
   -19.2301 -19.2247 -19.2192 -19.2089 -18.8233 -18.8220 -18.8108 -18.8107
   -18.2985 -18.2644 -17.2955 -17.2324 -17.1038 -17.1014 -16.1025 -16.0831
   -12.1664 -12.1478 -12.1363 -12.0227 -11.9688 -11.8905 -11.8438 -11.8248
    -8.9351  -8.8434  -8.3148  -8.2888  -7.6049  -7.5835  -7.5215  -7.4382
    -6.8419  -6.8260  -6.6317  -6.5660  -6.5317  -6.4661  -6.3767  -6.3233
    -6.2189  -6.1734  -6.0228  -5.9713  -5.8940  -5.8452  -5.7553  -5.7476
    -5.7065  -5.6783  -5.5820  -5.5599  -5.1130  -5.0689  -4.9506  -4.9049
    -4.5121  -4.4659  -4.4470  -4.4292  -4.2545  -4.1772  -3.8849  -3.8114
    -3.7752  -3.6479  -3.5813  -3.5474  -3.1946  -3.1534  -3.1014  -3.0888
    -0.7526  -0.7349  -0.3369  -0.3304  -0.2494  -0.2040  -0.1247  -0.1083
    -0.0945  -0.0556   0.0580   0.1164   0.1919   0.2660   0.3180   0.3845
     0.5511   0.5925   0.6122   0.6934   0.7333   0.8138   0.8700   0.8802
     0.9134   0.9973   1.0840   1.1614   1.1999   1.3103   1.3533   1.3694

     occupation numbers 
     1.0000   1.0000   1.0000   1.0000   1.0000   1.0000   1.0000   1.0000
     1.0000   1.0000   1.0000   1.0000   1.0000   1.0000   1.0000   1.0000
     1.0000   1.0000   1.0000   1.0000   1.0000   1.0000   1.0000   1.0000
     1.0000   1.0000   1.0000   1.0000   1.0000   1.0000   1.0000   1.0000
     1.0000   1.0000   1.0000   1.0000   1.0000   1.0000   1.0000   1.0000
     1.0000   1.0000   1.0000   1.0000   1.0000   1.0000   1.0000   1.0000
     1.0000   1.0000   1.0000   1.0000   1.0000   1.0000   1.0000   1.0000
     1.0000   1.0000   1.0000   1.0000   1.0000   1.0000   1.0000   1.0000
     1.0000   1.0000   1.0000   1.0000   1.0000   1.0000   1.0000   1.0000
     1.0000   1.0000   1.0000   1.0000   1.0000   1.0000   1.0000   1.0000
     1.0000   1.0000   1.0000   1.0000   1.0000   1.0000   1.0000   1.0000
     1.0000   1.0000   1.0000   1.0000   1.0000   1.0000   1.0000   1.0000
     1.0000   1.0000   1.0000   1.0000   1.0000   1.0000   1.0000   1.0000
     1.0000   1.0000   1.0000   1.0000   1.0000   1.0000   1.0000   1.0000

          k =-0.0191 0.0341-0.0217 ( 58584 PWs)   bands (ev):

   -24.0513 -24.0443 -24.0232 -24.0198 -23.6299 -23.6265 -23.6203 -23.6200
   -19.2305 -19.2289 -19.2139 -19.2096 -18.8191 -18.8188 -18.8147 -18.8144
   -18.2874 -18.2773 -17.2734 -17.2540 -17.1000 -17.0998 -16.0985 -16.0934
   -12.1492 -12.1484 -12.1110 -12.0702 -11.9342 -11.9108 -11.8396 -11.8306
    -8.9126  -8.8959  -8.3117  -8.2968  -7.5927  -7.5756  -7.4802  -7.4796
    -6.8531  -6.8060  -6.5831  -6.5658  -6.5481  -6.4718  -6.3493  -6.3298
    -6.1681  -6.1591  -6.0289  -5.9803  -5.9369  -5.9072  -5.7826  -5.7691
    -5.6701  -5.6530  -5.5745  -5.5581  -5.1038  -5.0402  -4.9924  -4.9688
    -4.5009  -4.4925  -4.4156  -4.4055  -4.2393  -4.1973  -3.8670  -3.8626
    -3.7006  -3.6648  -3.5692  -3.5551  -3.1832  -3.1691  -3.0977  -3.0894
    -0.7966  -0.7919  -0.3410  -0.3301  -0.2555  -0.2152  -0.1406  -0.1343
    -0.0101   0.0026   0.1962   0.2053   0.2386   0.2469   0.3870   0.3993
     0.4087   0.4359   0.6287   0.6532   0.7380   0.7601   0.8724   0.8899
     0.9433   0.9897   1.0905   1.1197   1.2328   1.2849   1.3762   1.3821

     occupation numbers 
     1.0000   1.0000   1.0000   1.0000   1.0000   1.0000   1.0000   1.0000
     1.0000   1.0000   1.0000   1.0000   1.0000   1.0000   1.0000   1.0000
     1.0000   1.0000   1.0000   1.0000   1.0000   1.0000   1.0000   1.0000
     1.0000   1.0000   1.0000   1.0000   1.0000   1.0000   1.0000   1.0000
     1.0000   1.0000   1.0000   1.0000   1.0000   1.0000   1.0000   1.0000
     1.0000   1.0000   1.0000   1.0000   1.0000   1.0000   1.0000   1.0000
     1.0000   1.0000   1.0000   1.0000   1.0000   1.0000   1.0000   1.0000
     1.0000   1.0000   1.0000   1.0000   1.0000   1.0000   1.0000   1.0000
     1.0000   1.0000   1.0000   1.0000   1.0000   1.0000   1.0000   1.0000
     1.0000   1.0000   1.0000   1.0000   1.0000   1.0000   1.0000   1.0000
     1.0000   1.0000   1.0000   1.0000   1.0000   1.0000   1.0000   1.0000
     1.0000   1.0000   1.0000   1.0000   1.0000   1.0000   1.0000   1.0000
     1.0000   1.0000   1.0000   1.0000   1.0000   1.0000   1.0000   1.0000
     1.0000   1.0000   1.0000   1.0000   1.0000   1.0000   1.0000   1.0000

          k =-0.0191 0.0341-0.0566 ( 58608 PWs)   bands (ev):

   -24.0464 -24.0436 -24.0241 -24.0235 -23.6305 -23.6292 -23.6196 -23.6185
   -19.2285 -19.2271 -19.2156 -19.2126 -18.8247 -18.8244 -18.8100 -18.8097
   -18.2832 -18.2830 -17.2648 -17.2637 -17.0947 -17.0936 -16.0980 -16.0973
   -12.1580 -12.1573 -12.0789 -12.0706 -11.9239 -11.9194 -11.8533 -11.8493
    -8.8918  -8.8771  -8.2960  -8.2857  -7.5989  -7.5785  -7.4469  -7.4187
    -6.9021  -6.8566  -6.6189  -6.6121  -6.5128  -6.4602  -6.4051  -6.3863
    -6.1898  -6.1729  -5.9997  -5.9636  -5.9048  -5.8706  -5.8200  -5.8041
    -5.7453  -5.7115  -5.5160  -5.4980  -5.0880  -5.0381  -4.9961  -4.9590
    -4.4256  -4.4138  -4.3964  -4.3586  -4.1816  -4.1686  -3.9725  -3.9658
    -3.7010  -3.6866  -3.5368  -3.5314  -3.2048  -3.2007  -3.0908  -3.0776
    -0.7588  -0.7427  -0.3516  -0.3425  -0.2574  -0.2265  -0.1703  -0.1482
    -0.0687  -0.0448   0.1126   0.1350   0.2448   0.2670   0.3369   0.3486
     0.5516   0.5776   0.6464   0.6653   0.7716   0.7814   0.8171   0.8475
     0.9816   1.0027   1.1048   1.1174   1.2444   1.2720   1.3705   1.3770

     occupation numbers 
     1.0000   1.0000   1.0000   1.0000   1.0000   1.0000   1.0000   1.0000
     1.0000   1.0000   1.0000   1.0000   1.0000   1.0000   1.0000   1.0000
     1.0000   1.0000   1.0000   1.0000   1.0000   1.0000   1.0000   1.0000
     1.0000   1.0000   1.0000   1.0000   1.0000   1.0000   1.0000   1.0000
     1.0000   1.0000   1.0000   1.0000   1.0000   1.0000   1.0000   1.0000
     1.0000   1.0000   1.0000   1.0000   1.0000   1.0000   1.0000   1.0000
     1.0000   1.0000   1.0000   1.0000   1.0000   1.0000   1.0000   1.0000
     1.0000   1.0000   1.0000   1.0000   1.0000   1.0000   1.0000   1.0000
     1.0000   1.0000   1.0000   1.0000   1.0000   1.0000   1.0000   1.0000
[...]
     1.0000   1.0000   1.0000   1.0000   1.0000   1.0000   1.0000   1.0000
     1.0000   1.0000   1.0000   1.0000   1.0000   1.0000   1.0000   1.0000
     1.0000   1.0000   1.0000   1.0000   1.0000   1.0000   1.0000   1.0000
     1.0000   1.0000   1.0000   1.0000   1.0000   1.0000   1.0000   1.0000
     1.0000   1.0000   1.0000   1.0000   1.0000   1.0000   1.0000   1.0000
     1.0000   1.0000   1.0000   1.0000   1.0000   1.0000   1.0000   1.0000
     1.0000   1.0000   1.0000   1.0000   1.0000   1.0000   1.0000   1.0000
     1.0000   1.0000   1.0000   1.0000   1.0000   1.0000   1.0000   1.0000
     1.0000   1.0000   1.0000   1.0000   1.0000   1.0000   1.0000   1.0000
     1.0000   1.0000   1.0000   1.0000   1.0000   1.0000   1.0000   1.0000
     1.0000   1.0000   1.0000   1.0000   1.0000   1.0000   1.0000   1.0000
     1.0000   1.0000   1.0000   1.0000   1.0000   1.0000   1.0000   1.0000
     1.0000   1.0000   1.0000   1.0000   1.0000   1.0000   1.0000   1.0000
     1.0000   1.0000   1.0000   1.0000   1.0000   1.0000   1.0000   1.0000

          k =-0.0574 0.0114-0.0652 ( 58603 PWs)   bands (ev):

   -24.0432 -24.0426 -24.0276 -24.0204 -23.6281 -23.6277 -23.6253 -23.6193
   -19.2283 -19.2251 -19.2209 -19.2119 -18.8319 -18.8298 -18.8056 -18.8038
   -18.3028 -18.2800 -17.2791 -17.2392 -17.0940 -17.0879 -16.1147 -16.0968
   -12.1584 -12.1564 -12.0826 -12.0071 -11.9062 -11.8583 -11.8579 -11.8444
    -8.9635  -8.8408  -8.3161  -8.2784  -7.6013  -7.5745  -7.5081  -7.3898
    -7.0916  -6.8711  -6.6895  -6.5615  -6.5547  -6.4479  -6.4285  -6.3609
    -6.2786  -6.2236  -6.0241  -5.9969  -5.9256  -5.8695  -5.8144  -5.7695
    -5.6760  -5.6172  -5.5468  -5.4780  -5.1712  -5.0157  -5.0001  -4.9369
    -4.4240  -4.4134  -4.3617  -4.3326  -4.0289  -3.9732  -3.8965  -3.8822
    -3.7907  -3.7198  -3.6681  -3.5804  -3.2200  -3.1971  -3.1070  -3.0440
    -0.8334  -0.7813  -0.3338  -0.2992  -0.2358  -0.2034  -0.1318  -0.0968
    -0.0441  -0.0269   0.1771   0.2123   0.2296   0.2487   0.3253   0.4099
     0.4866   0.5055   0.5447   0.6660   0.7559   0.7938   0.8383   0.8626
     0.9620   1.0033   1.0165   1.0441   1.2958   1.3302   1.3549   1.3931

     occupation numbers 
     1.0000   1.0000   1.0000   1.0000   1.0000   1.0000   1.0000   1.0000
     1.0000   1.0000   1.0000   1.0000   1.0000   1.0000   1.0000   1.0000
     1.0000   1.0000   1.0000   1.0000   1.0000   1.0000   1.0000   1.0000
     1.0000   1.0000   1.0000   1.0000   1.0000   1.0000   1.0000   1.0000
     1.0000   1.0000   1.0000   1.0000   1.0000   1.0000   1.0000   1.0000
     1.0000   1.0000   1.0000   1.0000   1.0000   1.0000   1.0000   1.0000
     1.0000   1.0000   1.0000   1.0000   1.0000   1.0000   1.0000   1.0000
     1.0000   1.0000   1.0000   1.0000   1.0000   1.0000   1.0000   1.0000
     1.0000   1.0000   1.0000   1.0000   1.0000   1.0000   1.0000   1.0000
     1.0000   1.0000   1.0000   1.0000   1.0000   1.0000   1.0000   1.0000
     1.0000   1.0000   1.0000   1.0000   1.0000   1.0000   1.0000   1.0000
     1.0000   1.0000   1.0000   1.0000   1.0000   1.0000   1.0000   1.0000
     1.0000   1.0000   1.0000   1.0000   1.0000   1.0000   1.0000   1.0000
     1.0000   1.0000   1.0000   1.0000   1.0000   1.0000   1.0000   1.0000

          k =-0.0574 0.0114 0.0395 ( 58567 PWs)   bands (ev):

   -24.0469 -24.0394 -24.0293 -24.0181 -23.6310 -23.6305 -23.6216 -23.6174
   -19.2265 -19.2249 -19.2202 -19.2147 -18.8330 -18.8308 -18.8045 -18.8026
   -18.3071 -18.2744 -17.2886 -17.2297 -17.0969 -17.0906 -16.1142 -16.0908
   -12.1621 -12.1577 -12.1058 -11.9868 -11.9214 -11.8582 -11.8527 -11.8333
    -8.9594  -8.8168  -8.3104  -8.2797  -7.5977  -7.5836  -7.5299  -7.3768
    -7.1058  -6.8734  -6.6769  -6.5700  -6.5565  -6.5020  -6.4313  -6.3617
    -6.2966  -6.2345  -6.0068  -5.9565  -5.8983  -5.8791  -5.8147  -5.7771
    -5.6561  -5.6138  -5.5566  -5.4762  -5.1612  -5.0361  -4.9734  -4.9273
    -4.4293  -4.3922  -4.3709  -4.3385  -4.0438  -3.9947  -3.8674  -3.8427
    -3.7687  -3.7515  -3.7146  -3.5868  -3.2234  -3.1958  -3.0997  -3.0504
    -0.7938  -0.7203  -0.3260  -0.2782  -0.2409  -0.2217  -0.1410  -0.1196
    -0.1033  -0.0617   0.1010   0.1890   0.2287   0.2760   0.2866   0.3043
     0.5286   0.6092   0.6348   0.6534   0.7468   0.7946   0.8589   0.8753
     0.9532   0.9843   1.0379   1.0959   1.3155   1.3272   1.3333   1.3548

     occupation numbers 
     1.0000   1.0000   1.0000   1.0000   1.0000   1.0000   1.0000   1.0000
     1.0000   1.0000   1.0000   1.0000   1.0000   1.0000   1.0000   1.0000
     1.0000   1.0000   1.0000   1.0000   1.0000   1.0000   1.0000   1.0000
     1.0000   1.0000   1.0000   1.0000   1.0000   1.0000   1.0000   1.0000
     1.0000   1.0000   1.0000   1.0000   1.0000   1.0000   1.0000   1.0000
     1.0000   1.0000   1.0000   1.0000   1.0000   1.0000   1.0000   1.0000
     1.0000   1.0000   1.0000   1.0000   1.0000   1.0000   1.0000   1.0000
     1.0000   1.0000   1.0000   1.0000   1.0000   1.0000   1.0000   1.0000
     1.0000   1.0000   1.0000   1.0000   1.0000   1.0000   1.0000   1.0000
     1.0000   1.0000   1.0000   1.0000   1.0000   1.0000   1.0000   1.0000
     1.0000   1.0000   1.0000   1.0000   1.0000   1.0000   1.0000   1.0000
     1.0000   1.0000   1.0000   1.0000   1.0000   1.0000   1.0000   1.0000
     1.0000   1.0000   1.0000   1.0000   1.0000   1.0000   1.0000   1.0000
     1.0000   1.0000   1.0000   1.0000   1.0000   1.0000   1.0000   1.0000

          k =-0.0574 0.0114 0.0046 ( 58529 PWs)   bands (ev):

   -24.0485 -24.0385 -24.0281 -24.0194 -23.6318 -23.6291 -23.6202 -23.6187
   -19.2267 -19.2245 -19.2183 -19.2157 -18.8250 -18.8235 -18.8103 -18.8098
   -18.3000 -18.2763 -17.2813 -17.2375 -17.1066 -17.1044 -16.1024 -16.0872
   -12.1506 -12.1474 -12.0946 -11.9972 -11.9300 -11.8718 -11.8421 -11.8405
    -8.9315  -8.8487  -8.3100  -8.3069  -7.5905  -7.5823  -7.5787  -7.4760
    -7.0050  -6.9214  -6.6401  -6.6145  -6.5254  -6.5209  -6.3340  -6.2871
    -6.2208  -6.2145  -5.9752  -5.9433  -5.8838  -5.8612  -5.7936  -5.7842
    -5.6677  -5.6569  -5.5978  -5.5881  -5.1209  -5.1033  -4.9160  -4.9053
    -4.4777  -4.4604  -4.4164  -4.3915  -4.0608  -4.0425  -3.7924  -3.7874
    -3.7564  -3.7064  -3.6632  -3.6503  -3.1987  -3.1708  -3.0991  -3.0838
    -0.7076  -0.6584  -0.3228  -0.3133  -0.2311  -0.2260  -0.2036  -0.1844
    -0.0935  -0.0712   0.0543   0.1219   0.1932   0.2309   0.3259   0.3605
     0.5472   0.6218   0.7062   0.7315   0.7545   0.8021   0.8729   0.8941
     0.9281   0.9420   1.0168   1.1052   1.3004   1.3008   1.3267   1.3469

     occupation numbers 
     1.0000   1.0000   1.0000   1.0000   1.0000   1.0000   1.0000   1.0000
     1.0000   1.0000   1.0000   1.0000   1.0000   1.0000   1.0000   1.0000
     1.0000   1.0000   1.0000   1.0000   1.0000   1.0000   1.0000   1.0000
     1.0000   1.0000   1.0000   1.0000   1.0000   1.0000   1.0000   1.0000
     1.0000   1.0000   1.0000   1.0000   1.0000   1.0000   1.0000   1.0000
     1.0000   1.0000   1.0000   1.0000   1.0000   1.0000   1.0000   1.0000
     1.0000   1.0000   1.0000   1.0000   1.0000   1.0000   1.0000   1.0000
     1.0000   1.0000   1.0000   1.0000   1.0000   1.0000   1.0000   1.0000
     1.0000   1.0000   1.0000   1.0000   1.0000   1.0000   1.0000   1.0000
     1.0000   1.0000   1.0000   1.0000   1.0000   1.0000   1.0000   1.0000
     1.0000   1.0000   1.0000   1.0000   1.0000   1.0000   1.0000   1.0000
     1.0000   1.0000   1.0000   1.0000   1.0000   1.0000   1.0000   1.0000
     1.0000   1.0000   1.0000   1.0000   1.0000   1.0000   1.0000   1.0000
     1.0000   1.0000   1.0000   1.0000   1.0000   1.0000   1.0000   1.0000

          k =-0.0574 0.0341-0.0303 ( 58582 PWs)   bands (ev):

   -24.0445 -24.0417 -24.0245 -24.0240 -23.6280 -23.6266 -23.6229 -23.6221
   -19.2282 -19.2270 -19.2164 -19.2135 -18.8219 -18.8213 -18.8128 -18.8128
   -18.2889 -18.2888 -17.2602 -17.2591 -17.1030 -17.1020 -16.0985 -16.0977
   -12.1466 -12.1463 -12.0477 -12.0393 -11.9016 -11.8960 -11.8481 -11.8421
    -8.9111  -8.8976  -8.3118  -8.3023  -7.5854  -7.5776  -7.5377  -7.5177
    -6.9958  -6.9691  -6.6113  -6.5792  -6.5076  -6.4706  -6.3315  -6.2947
    -6.2118  -6.1835  -6.0211  -5.9948  -5.9011  -5.8801  -5.7799  -5.7629
    -5.6769  -5.6642  -5.5925  -5.5846  -5.1333  -5.0879  -4.9375  -4.9335
    -4.4732  -4.4644  -4.4115  -4.3902  -4.0492  -4.0234  -3.8144  -3.8081
    -3.7250  -3.7090  -3.6507  -3.6396  -3.1830  -3.1801  -3.1038  -3.0891
    -0.7505  -0.7417  -0.3167  -0.3100  -0.2614  -0.2419  -0.1141  -0.0935
    -0.0848  -0.0704   0.1249   0.1368   0.2112   0.2236   0.3549   0.3622
     0.5914   0.6017   0.6168   0.6511   0.7730   0.7764   0.8648   0.8816
     0.9398   0.9703   1.0073   1.0347   1.2901   1.2992   1.3604   1.3747

     occupation numbers 
     1.0000   1.0000   1.0000   1.0000   1.0000   1.0000   1.0000   1.0000
     1.0000   1.0000   1.0000   1.0000   1.0000   1.0000   1.0000   1.0000
     1.0000   1.0000   1.0000   1.0000   1.0000   1.0000   1.0000   1.0000
     1.0000   1.0000   1.0000   1.0000   1.0000   1.0000   1.0000   1.0000
     1.0000   1.0000   1.0000   1.0000   1.0000   1.0000   1.0000   1.0000
     1.0000   1.0000   1.0000   1.0000   1.0000   1.0000   1.0000   1.0000
     1.0000   1.0000   1.0000   1.0000   1.0000   1.0000   1.0000   1.0000
     1.0000   1.0000   1.0000   1.0000   1.0000   1.0000   1.0000   1.0000
     1.0000   1.0000   1.0000   1.0000   1.0000   1.0000   1.0000   1.0000
     1.0000   1.0000   1.0000   1.0000   1.0000   1.0000   1.0000   1.0000
     1.0000   1.0000   1.0000   1.0000   1.0000   1.0000   1.0000   1.0000
     1.0000   1.0000   1.0000   1.0000   1.0000   1.0000   1.0000   1.0000
     1.0000   1.0000   1.0000   1.0000   1.0000   1.0000   1.0000   1.0000
     1.0000   1.0000   1.0000   1.0000   1.0000   1.0000   1.0000   1.0000

          k =-0.0574 0.0341-0.0652 ( 58607 PWs)   bands (ev):

   -24.0429 -24.0426 -24.0257 -24.0226 -23.6279 -23.6278 -23.6236 -23.6211
   -19.2284 -19.2276 -19.2166 -19.2134 -18.8312 -18.8304 -18.8050 -18.8043
   -18.2963 -18.2869 -17.2673 -17.2508 -17.0923 -17.0898 -16.1093 -16.1019
   -12.1601 -12.1582 -12.0606 -12.0304 -11.8894 -11.8702 -11.8543 -11.8486
    -8.9289  -8.8782  -8.3035  -8.2878  -7.5756  -7.5634  -7.5011  -7.4465
    -7.0509  -6.9728  -6.5987  -6.5672  -6.5384  -6.4952  -6.3857  -6.3337
    -6.2894  -6.2408  -6.0060  -5.9910  -5.9191  -5.8957  -5.8245  -5.7948
    -5.6676  -5.6436  -5.5170  -5.4893  -5.1350  -5.0683  -4.9815  -4.9528
    -4.4090  -4.3912  -4.3626  -4.3342  -4.0136  -3.9913  -3.8945  -3.8877
    -3.7747  -3.7510  -3.6363  -3.6028  -3.2135  -3.2040  -3.0899  -3.0636
    -0.8155  -0.7941  -0.3213  -0.3056  -0.2573  -0.2452  -0.1145  -0.1053
    -0.0144  -0.0090   0.1941   0.2060   0.2424   0.2543   0.3445   0.3846
     0.4714   0.4814   0.5957   0.6523   0.7451   0.7789   0.8478   0.8626
     0.9550   0.9790   1.0353   1.0518   1.3044   1.3182   1.3664   1.3818

     occupation numbers 
     1.0000   1.0000   1.0000   1.0000   1.0000   1.0000   1.0000   1.0000
     1.0000   1.0000   1.0000   1.0000   1.0000   1.0000   1.0000   1.0000
     1.0000   1.0000   1.0000   1.0000   1.0000   1.0000   1.0000   1.0000
     1.0000   1.0000   1.0000   1.0000   1.0000   1.0000   1.0000   1.0000
     1.0000   1.0000   1.0000   1.0000   1.0000   1.0000   1.0000   1.0000
     1.0000   1.0000   1.0000   1.0000   1.0000   1.0000   1.0000   1.0000
     1.0000   1.0000   1.0000   1.0000   1.0000   1.0000   1.0000   1.0000
     1.0000   1.0000   1.0000   1.0000   1.0000   1.0000   1.0000   1.0000
     1.0000   1.0000   1.0000   1.0000   1.0000   1.0000   1.0000   1.0000
     1.0000   1.0000   1.0000   1.0000   1.0000   1.0000   1.0000   1.0000
     1.0000   1.0000   1.0000   1.0000   1.0000   1.0000   1.0000   1.0000
     1.0000   1.0000   1.0000   1.0000   1.0000   1.0000   1.0000   1.0000
     1.0000   1.0000   1.0000   1.0000   1.0000   1.0000   1.0000   1.0000
     1.0000   1.0000   1.0000   1.0000   1.0000   1.0000   1.0000   1.0000

          k =-0.0574 0.0341 0.0395 ( 58583 PWs)   bands (ev):

   -24.0452 -24.0423 -24.0254 -24.0210 -23.6308 -23.6305 -23.6204 -23.6187
   -19.2270 -19.2267 -19.2173 -19.2153 -18.8323 -18.8314 -18.8039 -18.8031
   -18.2979 -18.2844 -17.2709 -17.2465 -17.0954 -17.0928 -16.1071 -16.0974
   -12.1639 -12.1615 -12.0752 -12.0307 -11.8901 -11.8678 -11.8485 -11.8408
    -8.9197  -8.8609  -8.3010  -8.2882  -7.5784  -7.5629  -7.5164  -7.4410
    -7.0544  -6.9695  -6.5989  -6.5756  -6.5487  -6.5119  -6.4450  -6.3812
    -6.2541  -6.2109  -5.9991  -5.9689  -5.9052  -5.9014  -5.8176  -5.7928
    -5.6510  -5.6329  -5.5191  -5.4868  -5.1475  -5.0958  -4.9487  -4.9269
    -4.4282  -4.4138  -4.3400  -4.3237  -4.0271  -4.0071  -3.8654  -3.8554
    -3.7693  -3.7591  -3.6730  -3.6212  -3.2131  -3.2004  -3.0903  -3.0690
    -0.7707  -0.7401  -0.3164  -0.2987  -0.2593  -0.2438  -0.1279  -0.1176
    -0.0773  -0.0515   0.1323   0.1665   0.2350   0.2522   0.2917   0.3100
     0.5556   0.5872   0.6565   0.6639   0.7524   0.7739   0.8436   0.8491
     0.9636   0.9829   1.0605   1.0832   1.3177   1.3239   1.3372   1.3476

     occupation numbers 
     1.0000   1.0000   1.0000   1.0000   1.0000   1.0000   1.0000   1.0000
     1.0000   1.0000   1.0000   1.0000   1.0000   1.0000   1.0000   1.0000
     1.0000   1.0000   1.0000   1.0000   1.0000   1.0000   1.0000   1.0000
     1.0000   1.0000   1.0000   1.0000   1.0000   1.0000   1.0000   1.0000
     1.0000   1.0000   1.0000   1.0000   1.0000   1.0000   1.0000   1.0000
     1.0000   1.0000   1.0000   1.0000   1.0000   1.0000   1.0000   1.0000
     1.0000   1.0000   1.0000   1.0000   1.0000   1.0000   1.0000   1.0000
     1.0000   1.0000   1.0000   1.0000   1.0000   1.0000   1.0000   1.0000
     1.0000   1.0000   1.0000   1.0000   1.0000   1.0000   1.0000   1.0000
     1.0000   1.0000   1.0000   1.0000   1.0000   1.0000   1.0000   1.0000
     1.0000   1.0000   1.0000   1.0000   1.0000   1.0000   1.0000   1.0000
     1.0000   1.0000   1.0000   1.0000   1.0000   1.0000   1.0000   1.0000
     1.0000   1.0000   1.0000   1.0000   1.0000   1.0000   1.0000   1.0000
     1.0000   1.0000   1.0000   1.0000   1.0000   1.0000   1.0000   1.0000

          k =-0.0574 0.0341 0.0046 ( 58579 PWs)   bands (ev):

   -24.0460 -24.0421 -24.0249 -24.0215 -23.6308 -23.6297 -23.6199 -23.6193
   -19.2268 -19.2260 -19.2167 -19.2158 -18.8246 -18.8240 -18.8101 -18.8099
   -18.2933 -18.2835 -17.2683 -17.2501 -17.1060 -17.1051 -16.0979 -16.0916
   -12.1507 -12.1496 -12.0704 -12.0330 -11.9043 -11.8827 -11.8426 -11.8411
    -8.9079  -8.8737  -8.3079  -8.3049  -7.5876  -7.5841  -7.5524  -7.5096
    -6.9934  -6.9597  -6.6089  -6.5981  -6.5021  -6.4992  -6.3885  -6.3674
    -6.1744  -6.1677  -5.9828  -5.9658  -5.8792  -5.8685  -5.7764  -5.7697
    -5.6742  -5.6593  -5.5952  -5.5925  -5.1260  -5.1159  -4.9104  -4.9075
    -4.4787  -4.4651  -4.4161  -4.3946  -4.0454  -4.0359  -3.7936  -3.7901
    -3.7281  -3.6940  -3.6855  -3.6669  -3.1893  -3.1761  -3.1006  -3.0951
    -0.6925  -0.6722  -0.3084  -0.3066  -0.2458  -0.2220  -0.2068  -0.1877
    -0.1062  -0.0876   0.0845   0.1116   0.2065   0.2251   0.3379   0.3559
     0.5766   0.6133   0.6931   0.7145   0.7580   0.7902   0.8777   0.8825
     0.9458   0.9554   1.0328   1.0732   1.3008   1.3018   1.3321   1.3409

     occupation numbers 
     1.0000   1.0000   1.0000   1.0000   1.0000   1.0000   1.0000   1.0000
     1.0000   1.0000   1.0000   1.0000   1.0000   1.0000   1.0000   1.0000
     1.0000   1.0000   1.0000   1.0000   1.0000   1.0000   1.0000   1.0000
     1.0000   1.0000   1.0000   1.0000   1.0000   1.0000   1.0000   1.0000
     1.0000   1.0000   1.0000   1.0000   1.0000   1.0000   1.0000   1.0000
     1.0000   1.0000   1.0000   1.0000   1.0000   1.0000   1.0000   1.0000
     1.0000   1.0000   1.0000   1.0000   1.0000   1.0000   1.0000   1.0000
     1.0000   1.0000   1.0000   1.0000   1.0000   1.0000   1.0000   1.0000
     1.0000   1.0000   1.0000   1.0000   1.0000   1.0000   1.0000   1.0000
     1.0000   1.0000   1.0000   1.0000   1.0000   1.0000   1.0000   1.0000
     1.0000   1.0000   1.0000   1.0000   1.0000   1.0000   1.0000   1.0000
     1.0000   1.0000   1.0000   1.0000   1.0000   1.0000   1.0000   1.0000
     1.0000   1.0000   1.0000   1.0000   1.0000   1.0000   1.0000   1.0000
     1.0000   1.0000   1.0000   1.0000   1.0000   1.0000   1.0000   1.0000

     highest occupied level (ev):     1.3931

!    total energy              =   -1281.96983135 Ry
     Harris-Foulkes estimate   =   -1281.96983154 Ry
     estimated scf accuracy    <       0.00000021 Ry

     total all-electron energy =     -4786.413579 Ry

     The total energy is the sum of the following terms:

     one-electron contribution =    -646.83043830 Ry
     hartree contribution      =     421.53413857 Ry
     xc contribution           =    -260.41413444 Ry
     ewald contribution        =    -465.86389729 Ry
     one-center paw contrib.   =    -330.39549990 Ry

     convergence has been achieved in  17 iterations

     Writing output data file scf.pbe-ec-100-kp444.HMX-792827-nofor.nostress.save

     init_run     :    183.40s CPU    253.87s WALL (       1 calls)
     electrons    :   8567.72s CPU  11907.78s WALL (       1 calls)

     Called by init_run:
     wfcinit      :    135.16s CPU    191.71s WALL (       1 calls)
     potinit      :     15.08s CPU     17.25s WALL (       1 calls)

     Called by electrons:
     c_bands      :   7478.07s CPU  10393.53s WALL (      17 calls)
     sum_band     :   1010.63s CPU   1413.26s WALL (      17 calls)
     v_of_rho     :     15.49s CPU     22.82s WALL (      18 calls)
     v_h          :      1.39s CPU      2.05s WALL (      18 calls)
     v_xc         :     14.08s CPU     20.76s WALL (      18 calls)
     newd         :     40.49s CPU     46.56s WALL (      18 calls)
     PAW_pot      :      6.36s CPU      7.59s WALL (      18 calls)
     mix_rho      :     12.06s CPU     15.09s WALL (      17 calls)

     Called by c_bands:
     init_us_2    :    107.67s CPU    119.31s WALL (    1120 calls)
     cegterg      :   7101.92s CPU   9902.78s WALL (     544 calls)

     Called by sum_band:
     sum_band:bec :      1.03s CPU      1.09s WALL (     544 calls)
     addusdens    :    140.99s CPU    141.95s WALL (      17 calls)

     Called by *egterg:
     h_psi        :   3415.17s CPU   5483.00s WALL (    2673 calls)
     s_psi        :    449.31s CPU    409.12s WALL (    2673 calls)
     g_psi        :      6.80s CPU      9.76s WALL (    2097 calls)
     cdiaghg      :    895.61s CPU    988.90s WALL (    2641 calls)
     cegterg:over :    638.94s CPU   1027.83s WALL (    2097 calls)
     cegterg:upda :    582.81s CPU    468.71s WALL (    2097 calls)
     cegterg:last :    255.27s CPU    330.29s WALL (     544 calls)

     Called by h_psi:
     h_psi:vloc   :   1941.73s CPU   3318.80s WALL (    2673 calls)
     h_psi:vnl    :   1358.40s CPU   2039.12s WALL (    2673 calls)
     add_vuspsi   :    509.17s CPU    560.45s WALL (    2673 calls)

     General routines
     calbec       :   1060.74s CPU   1833.58s WALL (    3217 calls)
     fft          :     14.58s CPU     30.05s WALL (     284 calls)
     ffts         :      1.04s CPU      1.85s WALL (      35 calls)
     fftw         :   1678.06s CPU   3237.94s WALL (  418972 calls)
     interpolate  :      9.32s CPU     12.13s WALL (      35 calls)
     davcio       :      1.76s CPU    102.15s WALL (      32 calls)

     Parallel routines
     fft_scatter  :    952.56s CPU   2457.84s WALL (  419291 calls)

     PAW routines
     PAW_pot      :      6.36s CPU      7.59s WALL (      18 calls)
     PAW_symme    :      0.14s CPU      0.42s WALL (      35 calls)

     PWSCF        :     2h25m CPU        3h24m WALL


   This run was terminated on:   3: 2:12  22May2016            

=------------------------------------------------------------------------------=
   JOB DONE.
=------------------------------------------------------------------------------=
