
     Program PWSCF v.4.3.2      starts on 31Aug2015 at  5:42:34 

     This program is part of the open-source Quantum ESPRESSO suite
     for quantum simulation of materials; please cite
         "P. Giannozzi et al., J. Phys.:Condens. Matter 21 395502 (2009);
          URL http://www.quantum-espresso.org", 
     in publications or presentations arising from this work. More details at
     http://www.quantum-espresso.org/wiki/index.php/Citing_Quantum-ESPRESSO

     Parallel version (MPI), running on    16 processors
     K-points division:     npool     =    8
     R & G space division:  proc/pool =    2
     wavefunctions fft division:  fft/group =    2

     Current dimensions of program PWSCF are:
     Max number of different atomic species (ntypx) = 10
     Max number of k-points (npk) =  40000
     Max angular momentum in pseudopotentials (lmaxx) =  3
     Waiting for input...
     Reading input from stdin
Warning: card  !&CELL ignored
Warning: card  !/ ignored
               file H.pbe-kjpaw_psl.0.1.UPF: wavefunction(s)  1S renormalized
               file C.pbe-n-kjpaw_psl.0.1.UPF: wavefunction(s)  2P renormalized
               file N.pbe-n-kjpaw_psl.0.1.UPF: wavefunction(s)  2P renormalized
               file S.pbe-n-kjpaw_psl.0.1.UPF: wavefunction(s)  3P renormalized
               file Cl.pbe-n-kjpaw_psl.0.3.0.UPF: wavefunction(s)  3S 3P renormalized
               file Ni.pbe-n-kjpaw_psl.0.1.UPF: wavefunction(s)  4S 3D renormalized

     Atomic positions and unit cell read from directory:
     ./scratch/run-mystery.save/
     Nothing found: using input atomic positions and unit cell


     Subspace diagonalization in iterative solution of the eigenvalue problem:
     a serial algorithm will be used


   Task Groups are in USE
   groups and procs/group :     2    1

     Parallelization info
     --------------------
     sticks:   dense  smooth     PW     G-vecs:    dense   smooth      PW
     Min        7794    3110    824               687172   173780   23756
     Max        7795    3111    825               687173   173795   23759
     Sum       15589    6221   1649              1374345   347575   47515



     bravais-lattice index     =            6
     lattice parameter (alat)  =      18.0620  a.u.
     unit-cell volume          =    5536.7556 (a.u.)^3
     number of atoms/cell      =           70
     number of atomic types    =            6
     number of electrons       =       240.00
     number of Kohn-Sham states=          120
     kinetic-energy cutoff     =      60.0000  Ry
     charge density cutoff     =     600.0000  Ry
     convergence threshold     =      1.0E-07
     mixing beta               =       0.7000
     number of iterations used =            8  plain     mixing
     Exchange-correlation      =  SLA  PW   PBX  PBC ( 1 4 3 4 0)
     EXX-fraction              =        0.00
     nstep                     =           50


     celldm(1)=  18.062002  celldm(2)=   0.000000  celldm(3)=   0.939632
     celldm(4)=   0.000000  celldm(5)=   0.000000  celldm(6)=   0.000000

     crystal axes: (cart. coord. in units of alat)
               a(1) = (   1.000000   0.000000   0.000000 )  
               a(2) = (   0.000000   1.000000   0.000000 )  
               a(3) = (   0.000000   0.000000   0.939632 )  

     reciprocal axes: (cart. coord. in units 2 pi/alat)
               b(1) = (  1.000000  0.000000  0.000000 )  
               b(2) = (  0.000000  1.000000  0.000000 )  
               b(3) = (  0.000000  0.000000  1.064247 )  


     PseudoPot. # 1 for  H read from file:
     ./PSEUDOPOTENTIALS_GIPAW/H.pbe-kjpaw_psl.0.1.UPF
     MD5 check sum: fb87beb2c97a016760e7ba63abd37dee
     Pseudo is Projector augmented-wave, Zval =  1.0
     Generated using "atomic" code by A. Dal Corso  v.5.0.2 svn rev. 9605
     Shape of augmentation charge: PSQ
     Using radial grid of  929 points,  2 beta functions with: 
                l(1) =   0
                l(2) =   0
     Q(r) pseudized with 0 coefficients 


     PseudoPot. # 2 for  C read from file:
     ./PSEUDOPOTENTIALS_GIPAW/C.pbe-n-kjpaw_psl.0.1.UPF
     MD5 check sum: a13d6e77fdf331d01cbdc71e4cdf2375
     Pseudo is Projector augmented-wave + core cor, Zval =  4.0
     Generated using "atomic" code by A. Dal Corso  v.5.0.2 svn rev. 9605
     Shape of augmentation charge: BESSEL
     Using radial grid of 1073 points,  4 beta functions with: 
                l(1) =   0
                l(2) =   0
                l(3) =   1
                l(4) =   1
     Q(r) pseudized with 0 coefficients 


     PseudoPot. # 3 for  N read from file:
     ./PSEUDOPOTENTIALS_GIPAW/N.pbe-n-kjpaw_psl.0.1.UPF
     MD5 check sum: 68470fc8bd1ac1219743345880a0c0b4
     Pseudo is Projector augmented-wave + core cor, Zval =  5.0
     Generated using "atomic" code by A. Dal Corso  v.5.0.2 svn rev. 9605
     Shape of augmentation charge: PSQ
     Using radial grid of 1085 points,  4 beta functions with: 
                l(1) =   0
                l(2) =   0
                l(3) =   1
                l(4) =   1
     Q(r) pseudized with 0 coefficients 


     PseudoPot. # 4 for  S read from file:
     ./PSEUDOPOTENTIALS_GIPAW/S.pbe-n-kjpaw_psl.0.1.UPF
     MD5 check sum: c16a8bdd0a9fb4c97e90bb687cb57061
     Pseudo is Projector augmented-wave + core cor, Zval =  6.0
     Generated using "atomic" code by A. Dal Corso  v.5.0.2 svn rev. 9605
     Shape of augmentation charge: PSQ
     Using radial grid of 1151 points,  4 beta functions with: 
                l(1) =   0
                l(2) =   0
                l(3) =   1
                l(4) =   1
     Q(r) pseudized with 0 coefficients 


     PseudoPot. # 5 for Cl read from file:
     ./PSEUDOPOTENTIALS_GIPAW/Cl.pbe-n-kjpaw_psl.0.3.0.UPF
     MD5 check sum: d9e21192cb2aad6691c9ae241b29215e
     Pseudo is Projector augmented-wave + core cor, Zval =  7.0
     Generated using "atomic" code by A. Dal Corso  v.5.0.2 svn rev. 9605
     Shape of augmentation charge: PSQ
     Using radial grid of 1157 points,  4 beta functions with: 
                l(1) =   0
                l(2) =   0
                l(3) =   1
                l(4) =   1
     Q(r) pseudized with 0 coefficients 


     PseudoPot. # 6 for Ni read from file:
     ./PSEUDOPOTENTIALS_GIPAW/Ni.pbe-n-kjpaw_psl.0.1.UPF
     MD5 check sum: 946620350e71423045bef2cd4176bf8e
     Pseudo is Projector augmented-wave + core cor, Zval = 10.0
     Generated using "atomic" code by A. Dal Corso  v.5.0.2 svn rev. 9605
     Shape of augmentation charge: PSQ
     Using radial grid of 1195 points,  6 beta functions with: 
                l(1) =   0
                l(2) =   0
                l(3) =   1
                l(4) =   1
                l(5) =   2
                l(6) =   2
     Q(r) pseudized with 0 coefficients 


     atomic species   valence    mass     pseudopotential
        H              1.00     1.00000      H( 1.00)
        C              4.00     1.00000      C( 1.00)
        N              5.00     1.00000      N( 1.00)
        S              6.00     1.00000      S( 1.00)
        Cl             7.00     1.00000     Cl( 1.00)
        Ni            10.00     1.00000     Ni( 1.00)

      4 Sym.Ops. (no inversion)

                                    s                        frac. trans.

      isym =  1     identity                                     

 cryst.   s( 1) = (     1          0          0      )    f =(  0.0000000 )
                  (     0          1          0      )       (  0.0000000 )
                  (     0          0          1      )       (  0.0000000 )

 cart.    s( 1) = (  1.0000000  0.0000000  0.0000000 )    f =(  0.0000000 )
                  (  0.0000000  1.0000000  0.0000000 )       (  0.0000000 )
                  (  0.0000000  0.0000000  1.0000000 )       (  0.0000000 )


      isym =  2     180 deg rotation - cart. axis [0,0,1]        

 cryst.   s( 2) = (    -1          0          0      )    f =(  0.0000000 )
                  (     0         -1          0      )       (  0.0000000 )
                  (     0          0          1      )       (  0.0000000 )

 cart.    s( 2) = ( -1.0000000  0.0000000  0.0000000 )    f =(  0.0000000 )
                  (  0.0000000 -1.0000000  0.0000000 )       (  0.0000000 )
                  (  0.0000000  0.0000000  1.0000000 )       (  0.0000000 )


      isym =  3      90 deg rotation - cart. axis [0,0,-1]       

 cryst.   s( 3) = (     0         -1          0      )    f =(  0.0000000 )
                  (     1          0          0      )       (  0.0000000 )
                  (     0          0          1      )       (  0.0000000 )

 cart.    s( 3) = (  0.0000000  1.0000000  0.0000000 )    f =(  0.0000000 )
                  ( -1.0000000  0.0000000  0.0000000 )       (  0.0000000 )
                  (  0.0000000  0.0000000  1.0000000 )       (  0.0000000 )


      isym =  4      90 deg rotation - cart. axis [0,0,1]        

 cryst.   s( 4) = (     0          1          0      )    f =(  0.0000000 )
                  (    -1          0          0      )       (  0.0000000 )
                  (     0          0          1      )       (  0.0000000 )

 cart.    s( 4) = (  0.0000000 -1.0000000  0.0000000 )    f =(  0.0000000 )
                  (  1.0000000  0.0000000  0.0000000 )       (  0.0000000 )
                  (  0.0000000  0.0000000  1.0000000 )       (  0.0000000 )


     point group C_4 (4)    
     there are  4 classes
     the character table:

       E     C4    C2    C4^3 
A      1.00  1.00  1.00  1.00
B      1.00 -1.00  1.00 -1.00
E      1.00  0.00 -1.00  0.00
E*     1.00  0.00 -1.00  0.00
     imaginary part
A      0.00  0.00  0.00  0.00
B      0.00  0.00  0.00  0.00
E      0.00  1.00  0.00 -1.00
E*     0.00 -1.00  0.00  1.00

     the symmetry operations in each class:
     E        1
     C2       2
     C4^3     3
     C4       4

   Cartesian axes

     site n.     atom                  positions (alat units)
         1           C   tau(   1) = (   0.1524483   0.3075414   0.0753897  )
         2           C   tau(   2) = (  -0.1524483  -0.3075414   0.0753897  )
         3           C   tau(   3) = (   0.1924643   0.6524597   0.5451931  )
         4           C   tau(   4) = (  -0.3075414   0.1524483   0.0753897  )
         5           C   tau(   5) = (   0.3075414  -0.1524483   0.0753897  )
         6           C   tau(   6) = (   0.3475403   0.1924643   0.5451931  )
         7           C   tau(   7) = (   0.6524597   0.8075357   0.5451931  )
         8           C   tau(   8) = (   0.8075357   0.3475403   0.5451931  )
         9           Cl  tau(   9) = (   0.0000000   0.0000000  -0.3038804  )
        10           Cl  tau(  10) = (   0.0000000   0.0000000   0.2912064  )
        11           Cl  tau(  11) = (   0.5000000   0.5000000   0.1659372  )
        12           Cl  tau(  12) = (   0.5000000   0.5000000   0.7610264  )
        13           H   tau(  13) = (   0.0253160   0.6699411   0.4146402  )
        14           H   tau(  14) = (   0.0270733   0.7904903   0.5521372  )
        15           H   tau(  15) = (   0.1699355   0.4746869  -0.0551820  )
        16           H   tau(  16) = (  -0.1699355  -0.4746869  -0.0551820  )
        17           H   tau(  17) = (  -0.2097193   0.2206878  -0.2202567  )
        18           H   tau(  18) = (   0.2097193  -0.2206878  -0.2202567  )
        19           H   tau(  19) = (   0.2206878   0.2097193  -0.2202567  )
        20           H   tau(  20) = (  -0.2206878  -0.2097193  -0.2202567  )
        21           H   tau(  21) = (   0.1547931   0.8441308   0.2228486  )
        22           H   tau(  22) = (   0.1558692   0.1547931   0.2228486  )
        23           H   tau(  23) = (   0.2095097   0.0270733   0.5521372  )
        24           H   tau(  24) = (   0.2904727   0.4729449   0.0823246  )
        25           H   tau(  25) = (  -0.2904727  -0.4729449   0.0823246  )
        26           H   tau(  26) = (   0.3441408   0.3452061  -0.2469473  )
        27           H   tau(  27) = (  -0.3441408  -0.3452061  -0.2469473  )
        28           H   tau(  28) = (  -0.3452061   0.3441408  -0.2469473  )
        29           H   tau(  29) = (   0.3452061  -0.3441408  -0.2469473  )
        30           H   tau(  30) = (   0.2793101   0.2902833   0.2495658  )
        31           H   tau(  31) = (   0.2902833   0.7206899   0.2495658  )
        32           H   tau(  32) = (   0.3300589   0.0253160   0.4146402  )
        33           H   tau(  33) = (  -0.4729449   0.2904727   0.0823246  )
        34           H   tau(  34) = (   0.4729449  -0.2904727   0.0823246  )
        35           H   tau(  35) = (  -0.4746869   0.1699355  -0.0551820  )
        36           H   tau(  36) = (   0.4746869  -0.1699355  -0.0551820  )
        37           H   tau(  37) = (   0.6699411   0.9746840   0.4146402  )
        38           H   tau(  38) = (   0.7097167   0.2793101   0.2495658  )
        39           H   tau(  39) = (   0.7206899   0.7097167   0.2495658  )
        40           H   tau(  40) = (   0.7904903   0.9729267   0.5521372  )
        41           H   tau(  41) = (   0.8441308   0.8452069   0.2228486  )
        42           H   tau(  42) = (   0.8452069   0.1558692   0.2228486  )
        43           H   tau(  43) = (   0.9729267   0.2095097   0.5521372  )
        44           H   tau(  44) = (   0.9746840   0.3300589   0.4146402  )
        45           N   tau(  45) = (   0.0660526   0.7000007   0.5077414  )
        46           N   tau(  46) = (   0.2000018   0.4339691   0.0379431  )
        47           N   tau(  47) = (  -0.2000018  -0.4339691   0.0379431  )
        48           N   tau(  48) = (   0.2004538   0.2473535   0.1913063  )
        49           N   tau(  49) = (  -0.2004538  -0.2473535   0.1913063  )
        50           N   tau(  50) = (   0.2526522   0.7004368   0.6611398  )
        51           N   tau(  51) = (  -0.2473535   0.2004538   0.1913063  )
        52           N   tau(  52) = (   0.2473535  -0.2004538   0.1913063  )
        53           N   tau(  53) = (   0.2995632   0.2526522   0.6611398  )
        54           N   tau(  54) = (   0.2999993   0.0660526   0.5077414  )
        55           N   tau(  55) = (   0.4339691  -0.2000018   0.0379431  )
        56           N   tau(  56) = (  -0.4339691   0.2000018   0.0379431  )
        57           N   tau(  57) = (   0.7000007   0.9339474   0.5077414  )
        58           N   tau(  58) = (   0.7004368   0.7473478   0.6611398  )
        59           N   tau(  59) = (   0.7473478   0.2995632   0.6611398  )
        60           N   tau(  60) = (   0.9339474   0.2999993   0.5077414  )
        61           Ni  tau(  61) = (   0.0000000   0.0000000   0.0136532  )
        62           Ni  tau(  62) = (   0.5000000   0.5000000   0.4834282  )
        63           S   tau(  63) = (   0.0285051   0.2278822  -0.0292798  )
        64           S   tau(  64) = (  -0.0285051  -0.2278822  -0.0292798  )
        65           S   tau(  65) = (   0.2721050   0.5285091   0.4405170  )
        66           S   tau(  66) = (  -0.2278822   0.0285051  -0.0292798  )
        67           S   tau(  67) = (   0.2278822  -0.0285051  -0.0292798  )
        68           S   tau(  68) = (   0.4714909   0.2721050   0.4405170  )
        69           S   tau(  69) = (   0.5285091   0.7278950   0.4405170  )
        70           S   tau(  70) = (   0.7278950   0.4714909   0.4405170  )

   Crystallographic axes

     site n.     atom                  positions (cryst. coord.)
         1           C   tau(   1) = (  0.1524483  0.3075414  0.0802332  )
         2           C   tau(   2) = ( -0.1524483 -0.3075414  0.0802332  )
         3           C   tau(   3) = (  0.1924643  0.6524597  0.5802200  )
         4           C   tau(   4) = ( -0.3075414  0.1524483  0.0802332  )
         5           C   tau(   5) = (  0.3075414 -0.1524483  0.0802332  )
         6           C   tau(   6) = (  0.3475403  0.1924643  0.5802200  )
         7           C   tau(   7) = (  0.6524597  0.8075357  0.5802200  )
         8           C   tau(   8) = (  0.8075357  0.3475403  0.5802200  )
         9           Cl  tau(   9) = (  0.0000000  0.0000000 -0.3234037  )
        10           Cl  tau(  10) = (  0.0000000  0.0000000  0.3099155  )
        11           Cl  tau(  11) = (  0.5000000  0.5000000  0.1765981  )
        12           Cl  tau(  12) = (  0.5000000  0.5000000  0.8099199  )
        13           H   tau(  13) = (  0.0253160  0.6699411  0.4412794  )
        14           H   tau(  14) = (  0.0270733  0.7904903  0.5876102  )
        15           H   tau(  15) = (  0.1699355  0.4746869 -0.0587273  )
        16           H   tau(  16) = ( -0.1699355 -0.4746869 -0.0587273  )
        17           H   tau(  17) = ( -0.2097193  0.2206878 -0.2344075  )
        18           H   tau(  18) = (  0.2097193 -0.2206878 -0.2344075  )
        19           H   tau(  19) = (  0.2206878  0.2097193 -0.2344075  )
        20           H   tau(  20) = ( -0.2206878 -0.2097193 -0.2344075  )
        21           H   tau(  21) = (  0.1547931  0.8441308  0.2371659  )
        22           H   tau(  22) = (  0.1558692  0.1547931  0.2371659  )
        23           H   tau(  23) = (  0.2095097  0.0270733  0.5876102  )
        24           H   tau(  24) = (  0.2904727  0.4729449  0.0876136  )
        25           H   tau(  25) = ( -0.2904727 -0.4729449  0.0876136  )
        26           H   tau(  26) = (  0.3441408  0.3452061 -0.2628129  )
        27           H   tau(  27) = ( -0.3441408 -0.3452061 -0.2628129  )
        28           H   tau(  28) = ( -0.3452061  0.3441408 -0.2628129  )
        29           H   tau(  29) = (  0.3452061 -0.3441408 -0.2628129  )
        30           H   tau(  30) = (  0.2793101  0.2902833  0.2655996  )
        31           H   tau(  31) = (  0.2902833  0.7206899  0.2655996  )
        32           H   tau(  32) = (  0.3300589  0.0253160  0.4412794  )
        33           H   tau(  33) = ( -0.4729449  0.2904727  0.0876136  )
        34           H   tau(  34) = (  0.4729449 -0.2904727  0.0876136  )
        35           H   tau(  35) = ( -0.4746869  0.1699355 -0.0587273  )
        36           H   tau(  36) = (  0.4746869 -0.1699355 -0.0587273  )
        37           H   tau(  37) = (  0.6699411  0.9746840  0.4412794  )
        38           H   tau(  38) = (  0.7097167  0.2793101  0.2655996  )
        39           H   tau(  39) = (  0.7206899  0.7097167  0.2655996  )
        40           H   tau(  40) = (  0.7904903  0.9729267  0.5876102  )
        41           H   tau(  41) = (  0.8441308  0.8452069  0.2371659  )
        42           H   tau(  42) = (  0.8452069  0.1558692  0.2371659  )
        43           H   tau(  43) = (  0.9729267  0.2095097  0.5876102  )
        44           H   tau(  44) = (  0.9746840  0.3300589  0.4412794  )
        45           N   tau(  45) = (  0.0660526  0.7000007  0.5403621  )
        46           N   tau(  46) = (  0.2000018  0.4339691  0.0403809  )
        47           N   tau(  47) = ( -0.2000018 -0.4339691  0.0403809  )
        48           N   tau(  48) = (  0.2004538  0.2473535  0.2035971  )
        49           N   tau(  49) = ( -0.2004538 -0.2473535  0.2035971  )
        50           N   tau(  50) = (  0.2526522  0.7004368  0.7036159  )
        51           N   tau(  51) = ( -0.2473535  0.2004538  0.2035971  )
        52           N   tau(  52) = (  0.2473535 -0.2004538  0.2035971  )
        53           N   tau(  53) = (  0.2995632  0.2526522  0.7036159  )
        54           N   tau(  54) = (  0.2999993  0.0660526  0.5403621  )
        55           N   tau(  55) = (  0.4339691 -0.2000018  0.0403809  )
        56           N   tau(  56) = ( -0.4339691  0.2000018  0.0403809  )
        57           N   tau(  57) = (  0.7000007  0.9339474  0.5403621  )
        58           N   tau(  58) = (  0.7004368  0.7473478  0.7036159  )
        59           N   tau(  59) = (  0.7473478  0.2995632  0.7036159  )
        60           N   tau(  60) = (  0.9339474  0.2999993  0.5403621  )
        61           Ni  tau(  61) = (  0.0000000  0.0000000  0.0145304  )
        62           Ni  tau(  62) = (  0.5000000  0.5000000  0.5144869  )
        63           S   tau(  63) = (  0.0285051  0.2278822 -0.0311609  )
        64           S   tau(  64) = ( -0.0285051 -0.2278822 -0.0311609  )
        65           S   tau(  65) = (  0.2721050  0.5285091  0.4688188  )
        66           S   tau(  66) = ( -0.2278822  0.0285051 -0.0311609  )
        67           S   tau(  67) = (  0.2278822 -0.0285051 -0.0311609  )
        68           S   tau(  68) = (  0.4714909  0.2721050  0.4688188  )
        69           S   tau(  69) = (  0.5285091  0.7278950  0.4688188  )
        70           S   tau(  70) = (  0.7278950  0.4714909  0.4688188  )

     number of k points=     8
                       cart. coord. in units 2pi/alat
        k(    1) = (   0.1250000   0.1250000   0.1330308), wk =   0.2500000
        k(    2) = (   0.1250000   0.1250000   0.3990925), wk =   0.2500000
        k(    3) = (   0.1250000   0.3750000   0.1330308), wk =   0.2500000
        k(    4) = (   0.1250000   0.3750000   0.3990925), wk =   0.2500000
        k(    5) = (   0.3750000   0.3750000   0.1330308), wk =   0.2500000
        k(    6) = (   0.3750000   0.3750000   0.3990925), wk =   0.2500000
        k(    7) = (   0.3750000   0.1250000  -0.1330308), wk =   0.2500000
        k(    8) = (   0.3750000   0.1250000  -0.3990925), wk =   0.2500000

                       cryst. coord.
        k(    1) = (   0.1250000   0.1250000   0.1250000), wk =   0.2500000
        k(    2) = (   0.1250000   0.1250000   0.3750000), wk =   0.2500000
        k(    3) = (   0.1250000   0.3750000   0.1250000), wk =   0.2500000
        k(    4) = (   0.1250000   0.3750000   0.3750000), wk =   0.2500000
        k(    5) = (   0.3750000   0.3750000   0.1250000), wk =   0.2500000
        k(    6) = (   0.3750000   0.3750000   0.3750000), wk =   0.2500000
        k(    7) = (   0.3750000   0.1250000  -0.1250000), wk =   0.2500000
        k(    8) = (   0.3750000   0.1250000  -0.3750000), wk =   0.2500000

     Dense  grid:  1374345 G-vectors     FFT dimensions: ( 144, 144, 135)

     Smooth grid:   347575 G-vectors     FFT dimensions: (  90,  90,  90)

     Largest allocated arrays     est. size (Mb)     dimensions
        Kohn-Sham Wavefunctions        39.80 Mb     (  21734,  120)
        NL pseudopotentials           128.67 Mb     (  21734,  388)
        Each V/rho on FFT grid         21.52 Mb     (1410048)
        Each G-vector array             5.24 Mb     ( 687172)
        G-vector shells                 0.50 Mb     (  65320)
     Largest temporary arrays     est. size (Mb)     dimensions
        Auxiliary wavefunctions       159.18 Mb     (  21734,  480)
        Each subspace H/S matrix        3.52 Mb     ( 480, 480)
        Each <psi_i|beta_j> matrix      0.71 Mb     (    388,  120)
        Arrays for rho mixing         172.13 Mb     (1410048,   8)
     Cannot read wfc : file not found
     Cannot read rho : file not found

     Initial potential from superposition of free atoms

     starting charge  239.99845, renormalised to  240.00000
     Starting wfc are  194 atomic wfcs
     Checking if some PAW data can be deallocated... 
       node    0, deallocated PAW data for type:  1
       node    0, deallocated PAW data for type:  3
       node    0, deallocated PAW data for type:  4
       node    0, deallocated PAW data for type:  5
       node    0, deallocated PAW data for type:  6
       node    1, deallocated PAW data for type:  1
       node    1, deallocated PAW data for type:  3
       node    1, deallocated PAW data for type:  4
       node    1, deallocated PAW data for type:  6
       node    2, deallocated PAW data for type:  2
       node    2, deallocated PAW data for type:  3
       node    2, deallocated PAW data for type:  4
       node    2, deallocated PAW data for type:  6
       node    3, deallocated PAW data for type:  2
       node    3, deallocated PAW data for type:  3
       node    3, deallocated PAW data for type:  4
       node    3, deallocated PAW data for type:  5
       node    3, deallocated PAW data for type:  6
       node    4, deallocated PAW data for type:  2
       node    4, deallocated PAW data for type:  3
       node    4, deallocated PAW data for type:  4
       node    4, deallocated PAW data for type:  5
       node    4, deallocated PAW data for type:  6
       node    5, deallocated PAW data for type:  2
       node    5, deallocated PAW data for type:  3
       node    5, deallocated PAW data for type:  4
       node    5, deallocated PAW data for type:  5
       node    5, deallocated PAW data for type:  6
       node    6, deallocated PAW data for type:  2
       node    6, deallocated PAW data for type:  3
       node    6, deallocated PAW data for type:  4
       node    6, deallocated PAW data for type:  5
       node    6, deallocated PAW data for type:  6
       node    7, deallocated PAW data for type:  2
       node    7, deallocated PAW data for type:  3
       node    7, deallocated PAW data for type:  4
       node    7, deallocated PAW data for type:  5
       node    7, deallocated PAW data for type:  6
       node    8, deallocated PAW data for type:  2
       node    8, deallocated PAW data for type:  3
       node    8, deallocated PAW data for type:  4
       node    8, deallocated PAW data for type:  5
       node    8, deallocated PAW data for type:  6
       node    9, deallocated PAW data for type:  2
       node    9, deallocated PAW data for type:  4
       node    9, deallocated PAW data for type:  5
       node    9, deallocated PAW data for type:  6
       node   10, deallocated PAW data for type:  1
       node   10, deallocated PAW data for type:  2
       node   10, deallocated PAW data for type:  4
       node   10, deallocated PAW data for type:  5
       node   10, deallocated PAW data for type:  6
       node   11, deallocated PAW data for type:  1
       node   11, deallocated PAW data for type:  2
       node   11, deallocated PAW data for type:  4
       node   11, deallocated PAW data for type:  5
       node   11, deallocated PAW data for type:  6
       node   12, deallocated PAW data for type:  1
       node   12, deallocated PAW data for type:  2
       node   12, deallocated PAW data for type:  4
       node   12, deallocated PAW data for type:  5
       node   12, deallocated PAW data for type:  6
       node   13, deallocated PAW data for type:  1
       node   13, deallocated PAW data for type:  2
       node   13, deallocated PAW data for type:  4
       node   13, deallocated PAW data for type:  5
       node   14, deallocated PAW data for type:  1
       node   14, deallocated PAW data for type:  2
       node   14, deallocated PAW data for type:  3
       node   14, deallocated PAW data for type:  5
       node   14, deallocated PAW data for type:  6
       node   15, deallocated PAW data for type:  1
       node   15, deallocated PAW data for type:  2
       node   15, deallocated PAW data for type:  3
       node   15, deallocated PAW data for type:  5
       node   15, deallocated PAW data for type:  6

     total cpu time spent up to now is      376.6 secs

     per-process dynamical memory:   559.6 Mb

     Self-consistent Calculation

     iteration #  1     ecut=    60.00 Ry     beta=0.70
     Davidson diagonalization with overlap
     ethr =  1.00E-05,  avg # of iterations =  7.9

     total cpu time spent up to now is      885.2 secs

     total energy              =   -1853.84975324 Ry
     Harris-Foulkes estimate   =   -1859.10243063 Ry
     estimated scf accuracy    <       7.62843944 Ry

     iteration #  2     ecut=    60.00 Ry     beta=0.70
     Davidson diagonalization with overlap
     ethr =  3.18E-03,  avg # of iterations =  6.0

     total cpu time spent up to now is     1252.2 secs

     total energy              =   -1843.22373849 Ry
     Harris-Foulkes estimate   =   -1863.24509534 Ry
     estimated scf accuracy    <     101.75785517 Ry

     iteration #  3     ecut=    60.00 Ry     beta=0.70
     Davidson diagonalization with overlap
     ethr =  3.18E-03,  avg # of iterations =  4.0

     total cpu time spent up to now is     1532.5 secs

     total energy              =   -1855.06833285 Ry
     Harris-Foulkes estimate   =   -1860.16161070 Ry
     estimated scf accuracy    <      19.05085856 Ry

     iteration #  4     ecut=    60.00 Ry     beta=0.70
     Davidson diagonalization with overlap
     ethr =  3.18E-03,  avg # of iterations =  7.0

     total cpu time spent up to now is     1809.5 secs

     total energy              =   -1856.85302361 Ry
     Harris-Foulkes estimate   =   -1857.24070692 Ry
     estimated scf accuracy    <       2.37565991 Ry

     iteration #  5     ecut=    60.00 Ry     beta=0.70
     Davidson diagonalization with overlap
     ethr =  9.90E-04,  avg # of iterations =  3.0

     total cpu time spent up to now is     2058.3 secs

     total energy              =   -1856.90120125 Ry
     Harris-Foulkes estimate   =   -1857.02273166 Ry
     estimated scf accuracy    <       0.88825057 Ry

     iteration #  6     ecut=    60.00 Ry     beta=0.70
     Davidson diagonalization with overlap
     ethr =  3.70E-04,  avg # of iterations =  4.0

     total cpu time spent up to now is     2301.8 secs

     total energy              =   -1856.90723667 Ry
     Harris-Foulkes estimate   =   -1856.95884965 Ry
     estimated scf accuracy    <       0.36507227 Ry

     iteration #  7     ecut=    60.00 Ry     beta=0.70
     Davidson diagonalization with overlap
     ethr =  1.52E-04,  avg # of iterations =  4.0

     total cpu time spent up to now is     2576.6 secs

     total energy              =   -1856.93373790 Ry
     Harris-Foulkes estimate   =   -1856.95312455 Ry
     estimated scf accuracy    <       0.07348666 Ry

     iteration #  8     ecut=    60.00 Ry     beta=0.70
     Davidson diagonalization with overlap
     ethr =  3.06E-05,  avg # of iterations =  4.0

     total cpu time spent up to now is     2848.8 secs

     total energy              =   -1856.94322162 Ry
     Harris-Foulkes estimate   =   -1856.94605669 Ry
     estimated scf accuracy    <       0.01342500 Ry

     iteration #  9     ecut=    60.00 Ry     beta=0.70
     Davidson diagonalization with overlap
     ethr =  5.59E-06,  avg # of iterations =  5.0

     total cpu time spent up to now is     3106.1 secs

     total energy              =   -1856.94487090 Ry
     Harris-Foulkes estimate   =   -1856.94602462 Ry
     estimated scf accuracy    <       0.00322736 Ry

     iteration # 10     ecut=    60.00 Ry     beta=0.70
     Davidson diagonalization with overlap
     ethr =  1.34E-06,  avg # of iterations =  6.1

     total cpu time spent up to now is     3363.4 secs

     total energy              =   -1856.94505999 Ry
     Harris-Foulkes estimate   =   -1856.94655544 Ry
     estimated scf accuracy    <       0.00740330 Ry

     iteration # 11     ecut=    60.00 Ry     beta=0.70
     Davidson diagonalization with overlap
     ethr =  1.34E-06,  avg # of iterations =  4.9

     total cpu time spent up to now is     3594.2 secs

     total energy              =   -1856.94567788 Ry
     Harris-Foulkes estimate   =   -1856.94575552 Ry
     estimated scf accuracy    <       0.00016229 Ry

     iteration # 12     ecut=    60.00 Ry     beta=0.70
     Davidson diagonalization with overlap
     ethr =  6.76E-08,  avg # of iterations =  4.8

     total cpu time spent up to now is     3857.7 secs

     total energy              =   -1856.94573435 Ry
     Harris-Foulkes estimate   =   -1856.94576045 Ry
     estimated scf accuracy    <       0.00007366 Ry

     iteration # 13     ecut=    60.00 Ry     beta=0.70
     Davidson diagonalization with overlap
     ethr =  3.07E-08,  avg # of iterations =  4.9

     total cpu time spent up to now is     4118.6 secs

     total energy              =   -1856.94574030 Ry
     Harris-Foulkes estimate   =   -1856.94574775 Ry
     estimated scf accuracy    <       0.00001813 Ry

     iteration # 14     ecut=    60.00 Ry     beta=0.70
     Davidson diagonalization with overlap
     ethr =  7.56E-09,  avg # of iterations =  4.3

     total cpu time spent up to now is     4366.7 secs

     total energy              =   -1856.94574392 Ry
     Harris-Foulkes estimate   =   -1856.94574489 Ry
     estimated scf accuracy    <       0.00000207 Ry

     iteration # 15     ecut=    60.00 Ry     beta=0.70
     Davidson diagonalization with overlap
     ethr =  8.64E-10,  avg # of iterations =  4.4

     total cpu time spent up to now is     4626.4 secs

     total energy              =   -1856.94574447 Ry
     Harris-Foulkes estimate   =   -1856.94574464 Ry
     estimated scf accuracy    <       0.00000045 Ry

     iteration # 16     ecut=    60.00 Ry     beta=0.70
     Davidson diagonalization with overlap
     ethr =  1.88E-10,  avg # of iterations =  4.0

     total cpu time spent up to now is     4871.5 secs

     End of self-consistent calculation

          k = 0.1250 0.1250 0.1330 ( 43456 PWs)   bands (ev):

   -17.7040 -17.6618 -17.6599 -17.6433 -17.6367 -17.6178 -17.6159 -17.6081
   -15.2964 -15.2623 -15.2537 -15.2488 -15.2104 -15.2074 -15.2016 -15.1926
   -12.0613 -11.7573 -11.6996 -11.5779 -11.5487 -11.5422 -11.4740 -11.4327
   -11.3679 -11.3455 -11.2687 -11.2599  -8.6237  -8.5491  -8.5406  -8.4435
    -8.4375  -8.3674  -8.3496  -8.3304  -6.8840  -6.8559  -6.8391  -6.8047
    -6.7691  -6.7453  -6.7242  -6.7192  -6.6432  -6.6093  -6.5649  -6.4804
    -6.4556  -6.3887  -6.3830  -6.3283  -5.1073  -5.0710  -5.0248  -4.9768
    -4.9619  -4.9196  -4.9026  -4.8426  -3.7091  -3.7075  -3.5875  -3.5449
    -3.4825  -3.4159  -3.3980  -3.3682  -3.1537  -3.1148  -2.9008  -2.7950
    -2.7934  -2.6709  -2.6455  -2.4827  -1.0076  -0.7413  -0.6949  -0.5931
    -0.4528  -0.3291  -0.2489  -0.1686  -0.1671  -0.1129   0.0016   0.0454
     0.0629   0.1120   0.1132   0.1531   0.1539   0.1965   0.2624   0.2791
     0.3333   0.3663   0.4395   0.4697   0.5850   0.6179   0.6442   0.6866
     0.6989   0.7196   1.1453   1.1532   1.2268   1.2508   1.6596   1.7270
     1.8579   1.8581   2.3552   2.3663   2.3725   2.3811   3.1005   3.1023

     occupation numbers 
     0.2500   0.2500   0.2500   0.2500   0.2500   0.2500   0.2500   0.2500
     0.2500   0.2500   0.2500   0.2500   0.2500   0.2500   0.2500   0.2500
     0.2500   0.2500   0.2500   0.2500   0.2500   0.2500   0.2500   0.2500
     0.2500   0.2500   0.2500   0.2500   0.2500   0.2500   0.2500   0.2500
     0.2500   0.2500   0.2500   0.2500   0.2500   0.2500   0.2500   0.2500
     0.2500   0.2500   0.2500   0.2500   0.2500   0.2500   0.2500   0.2500
     0.2500   0.2500   0.2500   0.2500   0.2500   0.2500   0.2500   0.2500
     0.2500   0.2500   0.2500   0.2500   0.2500   0.2500   0.2500   0.2500
     0.2500   0.2500   0.2500   0.2500   0.2500   0.2500   0.2500   0.2500
     0.2500   0.2500   0.2500   0.2500   0.2500   0.2500   0.2500   0.2500
     0.2500   0.2500   0.2500   0.2500   0.2500   0.2500   0.2500   0.2500
     0.2500   0.2500   0.2500   0.2500   0.2500   0.2500   0.2500   0.2500
     0.2500   0.2500   0.2500   0.2500   0.2500   0.2500   0.2500   0.2500
     0.2500   0.2500   0.2500   0.2500   0.2500   0.2500   0.2500   0.2500
     0.2500   0.2500   0.2500   0.2500   0.2500   0.2500   0.2500   0.2500

          k = 0.1250 0.1250 0.3991 ( 43452 PWs)   bands (ev):

   -17.6867 -17.6616 -17.6502 -17.6461 -17.6321 -17.6294 -17.6268 -17.6165
   -15.2706 -15.2516 -15.2387 -15.2362 -15.2286 -15.2247 -15.2181 -15.2028
   -11.9876 -11.8679 -11.6534 -11.5936 -11.5530 -11.5135 -11.5066 -11.4561
   -11.3319 -11.3294 -11.2828 -11.2724  -8.5681  -8.5116  -8.4953  -8.4713
    -8.4355  -8.4193  -8.3719  -8.3520  -6.8787  -6.8386  -6.7850  -6.7819
    -6.7719  -6.7436  -6.7434  -6.7272  -6.6418  -6.6038  -6.5738  -6.5302
    -6.4744  -6.4026  -6.3665  -6.3464  -5.0904  -5.0424  -5.0199  -4.9871
    -4.9467  -4.9209  -4.9188  -4.8839  -3.7281  -3.7274  -3.5647  -3.5351
    -3.4799  -3.4325  -3.3879  -3.3838  -3.1530  -3.1334  -2.8899  -2.8684
    -2.7067  -2.6231  -2.5723  -2.5211  -1.0303  -0.9454  -0.6602  -0.6150
    -0.3004  -0.2443  -0.2271  -0.2115  -0.1420  -0.1379   0.0148   0.0240
     0.0733   0.0794   0.1392   0.1586   0.2009   0.2209   0.2948   0.3109
     0.3560   0.3749   0.4247   0.4301   0.5649   0.5814   0.6557   0.6584
     0.6794   0.7126   1.1336   1.1603   1.1684   1.2137   1.5895   1.6067
     1.8512   1.8513   2.3587   2.3685   2.3689   2.3738   3.2781   3.2849

     occupation numbers 
     0.2500   0.2500   0.2500   0.2500   0.2500   0.2500   0.2500   0.2500
     0.2500   0.2500   0.2500   0.2500   0.2500   0.2500   0.2500   0.2500
     0.2500   0.2500   0.2500   0.2500   0.2500   0.2500   0.2500   0.2500
     0.2500   0.2500   0.2500   0.2500   0.2500   0.2500   0.2500   0.2500
     0.2500   0.2500   0.2500   0.2500   0.2500   0.2500   0.2500   0.2500
     0.2500   0.2500   0.2500   0.2500   0.2500   0.2500   0.2500   0.2500
     0.2500   0.2500   0.2500   0.2500   0.2500   0.2500   0.2500   0.2500
     0.2500   0.2500   0.2500   0.2500   0.2500   0.2500   0.2500   0.2500
     0.2500   0.2500   0.2500   0.2500   0.2500   0.2500   0.2500   0.2500
     0.2500   0.2500   0.2500   0.2500   0.2500   0.2500   0.2500   0.2500
     0.2500   0.2500   0.2500   0.2500   0.2500   0.2500   0.2500   0.2500
     0.2500   0.2500   0.2500   0.2500   0.2500   0.2500   0.2500   0.2500
     0.2500   0.2500   0.2500   0.2500   0.2500   0.2500   0.2500   0.2500
     0.2500   0.2500   0.2500   0.2500   0.2500   0.2500   0.2500   0.2500
     0.2500   0.2500   0.2500   0.2500   0.2500   0.2500   0.2500   0.2500

          k = 0.1250 0.3750 0.1330 ( 43457 PWs)   bands (ev):

   -17.6921 -17.6744 -17.6537 -17.6438 -17.6357 -17.6247 -17.6137 -17.6100
   -15.2865 -15.2721 -15.2548 -15.2523 -15.2068 -15.2027 -15.2014 -15.1959
   -11.9875 -11.8602 -11.6847 -11.6033 -11.5454 -11.5099 -11.5026 -11.4870
   -11.3408 -11.3354 -11.2442 -11.2313  -8.6182  -8.5861  -8.5195  -8.4782
    -8.4203  -8.3808  -8.3271  -8.3141  -6.8718  -6.8656  -6.8354  -6.8140
    -6.7668  -6.7519  -6.7253  -6.7136  -6.6457  -6.5932  -6.5702  -6.4550
    -6.4214  -6.4046  -6.3862  -6.3801  -5.0961  -5.0769  -5.0531  -5.0001
    -4.9347  -4.9005  -4.8818  -4.8594  -3.7076  -3.6798  -3.5928  -3.5923
    -3.5034  -3.4271  -3.3454  -3.3253  -3.1492  -3.1179  -2.9692  -2.8322
    -2.7228  -2.7162  -2.5712  -2.5244  -0.9327  -0.8245  -0.6945  -0.6554
    -0.4408  -0.3878  -0.1682  -0.1460  -0.1043  -0.0905  -0.0222   0.0025
     0.0309   0.0662   0.1499   0.1641   0.2291   0.2337   0.3294   0.3321
     0.3632   0.3649   0.4052   0.4188   0.5401   0.5983   0.6443   0.6495
     0.7044   0.7154   1.1529   1.1797   1.1974   1.2494   1.6208   1.6503
     1.8497   1.8533   2.3544   2.3715   2.3862   2.3899   3.1024   3.1041

     occupation numbers 
     0.2500   0.2500   0.2500   0.2500   0.2500   0.2500   0.2500   0.2500
     0.2500   0.2500   0.2500   0.2500   0.2500   0.2500   0.2500   0.2500
     0.2500   0.2500   0.2500   0.2500   0.2500   0.2500   0.2500   0.2500
     0.2500   0.2500   0.2500   0.2500   0.2500   0.2500   0.2500   0.2500
     0.2500   0.2500   0.2500   0.2500   0.2500   0.2500   0.2500   0.2500
     0.2500   0.2500   0.2500   0.2500   0.2500   0.2500   0.2500   0.2500
     0.2500   0.2500   0.2500   0.2500   0.2500   0.2500   0.2500   0.2500
     0.2500   0.2500   0.2500   0.2500   0.2500   0.2500   0.2500   0.2500
     0.2500   0.2500   0.2500   0.2500   0.2500   0.2500   0.2500   0.2500
     0.2500   0.2500   0.2500   0.2500   0.2500   0.2500   0.2500   0.2500
     0.2500   0.2500   0.2500   0.2500   0.2500   0.2500   0.2500   0.2500
     0.2500   0.2500   0.2500   0.2500   0.2500   0.2500   0.2500   0.2500
     0.2500   0.2500   0.2500   0.2500   0.2500   0.2500   0.2500   0.2500
     0.2500   0.2500   0.2500   0.2500   0.2500   0.2500   0.2500   0.2500
     0.2500   0.2500   0.2500   0.2500   0.2500   0.2500   0.2500   0.2500

          k = 0.1250 0.3750 0.3991 ( 43465 PWs)   bands (ev):

   -17.6760 -17.6605 -17.6525 -17.6421 -17.6402 -17.6338 -17.6252 -17.6198
   -15.2644 -15.2570 -15.2419 -15.2396 -15.2269 -15.2234 -15.2112 -15.2060
   -11.9312 -11.8652 -11.7089 -11.6626 -11.5219 -11.5095 -11.5044 -11.4845
   -11.3479 -11.3442 -11.2362 -11.2294  -8.5630  -8.5406  -8.4788  -8.4699
    -8.4638  -8.4248  -8.3485  -8.3377  -6.8639  -6.8473  -6.7849  -6.7846
    -6.7664  -6.7526  -6.7281  -6.7228  -6.6513  -6.6266  -6.5497  -6.5080
    -6.4524  -6.4325  -6.3752  -6.3737  -5.0669  -5.0523  -5.0329  -5.0118
    -4.9426  -4.9199  -4.8920  -4.8850  -3.7232  -3.7144  -3.5522  -3.5465
    -3.5005  -3.4609  -3.3501  -3.3435  -3.1430  -3.1309  -2.8811  -2.8404
    -2.7458  -2.7219  -2.5394  -2.5350  -1.0198  -0.9851  -0.6654  -0.6468
    -0.2887  -0.2567  -0.1742  -0.1726  -0.1177  -0.1159   0.0091   0.0098
     0.0563   0.0696   0.1659   0.1786   0.2391   0.2663   0.3144   0.3264
     0.3916   0.3929   0.4341   0.4380   0.5311   0.5491   0.6041   0.6074
     0.6817   0.6836   1.1472   1.1571   1.1757   1.2009   1.5386   1.5488
     1.8493   1.8494   2.3598   2.3700   2.3796   2.3836   3.2841   3.2875

     occupation numbers 
     0.2500   0.2500   0.2500   0.2500   0.2500   0.2500   0.2500   0.2500
     0.2500   0.2500   0.2500   0.2500   0.2500   0.2500   0.2500   0.2500
     0.2500   0.2500   0.2500   0.2500   0.2500   0.2500   0.2500   0.2500
     0.2500   0.2500   0.2500   0.2500   0.2500   0.2500   0.2500   0.2500
     0.2500   0.2500   0.2500   0.2500   0.2500   0.2500   0.2500   0.2500
     0.2500   0.2500   0.2500   0.2500   0.2500   0.2500   0.2500   0.2500
     0.2500   0.2500   0.2500   0.2500   0.2500   0.2500   0.2500   0.2500
     0.2500   0.2500   0.2500   0.2500   0.2500   0.2500   0.2500   0.2500
     0.2500   0.2500   0.2500   0.2500   0.2500   0.2500   0.2500   0.2500
     0.2500   0.2500   0.2500   0.2500   0.2500   0.2500   0.2500   0.2500
     0.2500   0.2500   0.2500   0.2500   0.2500   0.2500   0.2500   0.2500
     0.2500   0.2500   0.2500   0.2500   0.2500   0.2500   0.2500   0.2500
     0.2500   0.2500   0.2500   0.2500   0.2500   0.2500   0.2500   0.2500
     0.2500   0.2500   0.2500   0.2500   0.2500   0.2500   0.2500   0.2500
     0.2500   0.2500   0.2500   0.2500   0.2500   0.2500   0.2500   0.2500

          k = 0.3750 0.3750 0.1330 ( 43410 PWs)   bands (ev):

   -17.6815 -17.6682 -17.6629 -17.6527 -17.6294 -17.6221 -17.6181 -17.6137
   -15.2786 -15.2678 -15.2644 -15.2583 -15.2039 -15.2027 -15.1991 -15.1966
   -11.9409 -11.8833 -11.6550 -11.6227 -11.5682 -11.5406 -11.4978 -11.4690
   -11.4121 -11.3866 -11.1824 -11.1723  -8.6070  -8.5890  -8.5357  -8.5128
    -8.3954  -8.3819  -8.3114  -8.3078  -6.8569  -6.8519  -6.8316  -6.8257
    -6.7328  -6.7266  -6.7156  -6.7120  -6.6645  -6.6485  -6.5564  -6.5264
    -6.4200  -6.4085  -6.3767  -6.3675  -5.1292  -5.1178  -5.0013  -4.9740
    -4.9522  -4.9276  -4.8550  -4.8473  -3.6691  -3.6479  -3.5423  -3.5372
    -3.4739  -3.4186  -3.3806  -3.3573  -3.1391  -3.1369  -3.0550  -3.0062
    -2.6576  -2.6518  -2.5601  -2.5404  -0.9131  -0.8778  -0.6947  -0.6892
    -0.3737  -0.3404  -0.2221  -0.2000  -0.0718  -0.0695  -0.0124   0.0173
     0.0727   0.0781   0.1432   0.1769   0.2479   0.2742   0.3203   0.3307
     0.3617   0.3799   0.4041   0.4259   0.5305   0.5395   0.6244   0.6317
     0.6870   0.6893   1.2002   1.2158   1.2228   1.2421   1.5745   1.5889
     1.8321   1.8349   2.3617   2.3637   2.4107   2.4111   3.1018   3.1025

     occupation numbers 
     0.2500   0.2500   0.2500   0.2500   0.2500   0.2500   0.2500   0.2500
     0.2500   0.2500   0.2500   0.2500   0.2500   0.2500   0.2500   0.2500
     0.2500   0.2500   0.2500   0.2500   0.2500   0.2500   0.2500   0.2500
     0.2500   0.2500   0.2500   0.2500   0.2500   0.2500   0.2500   0.2500
     0.2500   0.2500   0.2500   0.2500   0.2500   0.2500   0.2500   0.2500
     0.2500   0.2500   0.2500   0.2500   0.2500   0.2500   0.2500   0.2500
     0.2500   0.2500   0.2500   0.2500   0.2500   0.2500   0.2500   0.2500
     0.2500   0.2500   0.2500   0.2500   0.2500   0.2500   0.2500   0.2500
     0.2500   0.2500   0.2500   0.2500   0.2500   0.2500   0.2500   0.2500
     0.2500   0.2500   0.2500   0.2500   0.2500   0.2500   0.2500   0.2500
     0.2500   0.2500   0.2500   0.2500   0.2500   0.2500   0.2500   0.2500
     0.2500   0.2500   0.2500   0.2500   0.2500   0.2500   0.2500   0.2500
     0.2500   0.2500   0.2500   0.2500   0.2500   0.2500   0.2500   0.2500
     0.2500   0.2500   0.2500   0.2500   0.2500   0.2500   0.2500   0.2500
     0.2500   0.2500   0.2500   0.2500   0.2500   0.2500   0.2500   0.2500

          k = 0.3750 0.3750 0.3991 ( 43494 PWs)   bands (ev):

   -17.6667 -17.6550 -17.6506 -17.6445 -17.6419 -17.6359 -17.6309 -17.6251
   -15.2603 -15.2562 -15.2463 -15.2455 -15.2229 -15.2220 -15.2092 -15.2070
   -11.9014 -11.8724 -11.6865 -11.6688 -11.5271 -11.5173 -11.4983 -11.4681
   -11.4416 -11.4154 -11.1764 -11.1724  -8.5497  -8.5281  -8.5151  -8.4918
    -8.4480  -8.4415  -8.3255  -8.3234  -6.8416  -6.8330  -6.7854  -6.7836
    -6.7454  -6.7351  -6.7233  -6.7225  -6.6457  -6.6099  -6.5832  -6.5336
    -6.4897  -6.4873  -6.3672  -6.3644  -5.0838  -5.0748  -5.0206  -5.0182
    -4.9415  -4.9360  -4.8648  -4.8616  -3.6672  -3.6563  -3.5071  -3.5046
    -3.4707  -3.4282  -3.4084  -3.3824  -3.1435  -3.1418  -2.9345  -2.9087
    -2.7588  -2.7576  -2.5397  -2.5371  -1.0392  -1.0281  -0.6310  -0.6256
    -0.2455  -0.2221  -0.2001  -0.1905  -0.1273  -0.1249   0.0338   0.0468
     0.0873   0.0949   0.1619   0.1640   0.2960   0.3046   0.3302   0.3365
     0.3801   0.3866   0.4139   0.4180   0.5467   0.5497   0.5821   0.5836
     0.6264   0.6314   1.1841   1.2028   1.2141   1.2168   1.4593   1.4633
     1.8373   1.8386   2.3739   2.3745   2.3950   2.3958   3.2879   3.2893

     occupation numbers 
     0.2500   0.2500   0.2500   0.2500   0.2500   0.2500   0.2500   0.2500
     0.2500   0.2500   0.2500   0.2500   0.2500   0.2500   0.2500   0.2500
     0.2500   0.2500   0.2500   0.2500   0.2500   0.2500   0.2500   0.2500
     0.2500   0.2500   0.2500   0.2500   0.2500   0.2500   0.2500   0.2500
     0.2500   0.2500   0.2500   0.2500   0.2500   0.2500   0.2500   0.2500
     0.2500   0.2500   0.2500   0.2500   0.2500   0.2500   0.2500   0.2500
     0.2500   0.2500   0.2500   0.2500   0.2500   0.2500   0.2500   0.2500
     0.2500   0.2500   0.2500   0.2500   0.2500   0.2500   0.2500   0.2500
     0.2500   0.2500   0.2500   0.2500   0.2500   0.2500   0.2500   0.2500
     0.2500   0.2500   0.2500   0.2500   0.2500   0.2500   0.2500   0.2500
     0.2500   0.2500   0.2500   0.2500   0.2500   0.2500   0.2500   0.2500
     0.2500   0.2500   0.2500   0.2500   0.2500   0.2500   0.2500   0.2500
     0.2500   0.2500   0.2500   0.2500   0.2500   0.2500   0.2500   0.2500
     0.2500   0.2500   0.2500   0.2500   0.2500   0.2500   0.2500   0.2500
     0.2500   0.2500   0.2500   0.2500   0.2500   0.2500   0.2500   0.2500

          k = 0.3750 0.1250-0.1330 ( 43457 PWs)   bands (ev):

   -17.6921 -17.6744 -17.6538 -17.6438 -17.6356 -17.6248 -17.6136 -17.6100
   -15.2867 -15.2713 -15.2559 -15.2518 -15.2057 -15.2032 -15.2021 -15.1956
   -11.9876 -11.8600 -11.6822 -11.6084 -11.5446 -11.5210 -11.5136 -11.4486
   -11.3690 -11.3219 -11.2556 -11.2199  -8.6154  -8.5912  -8.5167  -8.4789
    -8.4127  -8.3913  -8.3195  -8.3186  -6.8774  -6.8615  -6.8287  -6.8200
    -6.7662  -6.7518  -6.7162  -6.7152  -6.6454  -6.6269  -6.5081  -6.4963
    -6.4344  -6.4023  -6.3835  -6.3668  -5.1051  -5.0658  -5.0397  -5.0212
    -4.9201  -4.9072  -4.8861  -4.8574  -3.6965  -3.6863  -3.6029  -3.5833
    -3.4854  -3.4671  -3.3402  -3.3154  -3.1427  -3.1317  -2.8954  -2.8857
    -2.7783  -2.6776  -2.5668  -2.5212  -0.9303  -0.8283  -0.6926  -0.6575
    -0.4325  -0.3997  -0.1564  -0.1409  -0.1086  -0.0943  -0.0305   0.0058
     0.0336   0.0532   0.1245   0.1865   0.2628   0.2702   0.2812   0.3217
     0.3536   0.3694   0.4042   0.4313   0.5486   0.5671   0.6375   0.6793
     0.7045   0.7123   1.1437   1.1932   1.2033   1.2376   1.6213   1.6508
     1.8472   1.8547   2.3611   2.3642   2.3828   2.3943   3.1030   3.1034

     occupation numbers 
     0.2500   0.2500   0.2500   0.2500   0.2500   0.2500   0.2500   0.2500
     0.2500   0.2500   0.2500   0.2500   0.2500   0.2500   0.2500   0.2500
     0.2500   0.2500   0.2500   0.2500   0.2500   0.2500   0.2500   0.2500
     0.2500   0.2500   0.2500   0.2500   0.2500   0.2500   0.2500   0.2500
     0.2500   0.2500   0.2500   0.2500   0.2500   0.2500   0.2500   0.2500
     0.2500   0.2500   0.2500   0.2500   0.2500   0.2500   0.2500   0.2500
     0.2500   0.2500   0.2500   0.2500   0.2500   0.2500   0.2500   0.2500
     0.2500   0.2500   0.2500   0.2500   0.2500   0.2500   0.2500   0.2500
     0.2500   0.2500   0.2500   0.2500   0.2500   0.2500   0.2500   0.2500
     0.2500   0.2500   0.2500   0.2500   0.2500   0.2500   0.2500   0.2500
     0.2500   0.2500   0.2500   0.2500   0.2500   0.2500   0.2500   0.2500
     0.2500   0.2500   0.2500   0.2500   0.2500   0.2500   0.2500   0.2500
     0.2500   0.2500   0.2500   0.2500   0.2500   0.2500   0.2500   0.2500
     0.2500   0.2500   0.2500   0.2500   0.2500   0.2500   0.2500   0.2500
     0.2500   0.2500   0.2500   0.2500   0.2500   0.2500   0.2500   0.2500

          k = 0.3750 0.1250-0.3991 ( 43465 PWs)   bands (ev):

   -17.6760 -17.6604 -17.6527 -17.6419 -17.6400 -17.6340 -17.6251 -17.6199
   -15.2648 -15.2561 -15.2419 -15.2406 -15.2252 -15.2244 -15.2115 -15.2058
   -11.9311 -11.8652 -11.7083 -11.6646 -11.5212 -11.5121 -11.5083 -11.4717
   -11.3610 -11.3389 -11.2389 -11.2246  -8.5619  -8.5392  -8.4966  -8.4587
    -8.4435  -8.4425  -8.3433  -8.3416  -6.8637  -6.8477  -6.7817  -6.7811
    -6.7649  -6.7628  -6.7292  -6.7182  -6.6543  -6.6262  -6.5404  -6.5177
    -6.4553  -6.4267  -6.3803  -6.3701  -5.0743  -5.0436  -5.0240  -5.0210
    -4.9380  -4.9281  -4.8927  -4.8816  -3.7102  -3.7068  -3.5755  -3.5704
    -3.4815  -3.4594  -3.3471  -3.3439  -3.1403  -3.1338  -2.8618  -2.8442
    -2.7723  -2.7051  -2.5444  -2.5315  -1.0181  -0.9877  -0.6646  -0.6484
    -0.2851  -0.2687  -0.1664  -0.1632  -0.1279  -0.0957  -0.0265   0.0058
     0.0714   0.0813   0.1434   0.1741   0.2759   0.2811   0.3029   0.3211
     0.3810   0.3979   0.4274   0.4299   0.5403   0.5413   0.6142   0.6152
     0.6693   0.6842   1.1356   1.1603   1.1849   1.2024   1.5393   1.5448
     1.8489   1.8509   2.3616   2.3646   2.3798   2.3870   3.2845   3.2872

     occupation numbers 
     0.2500   0.2500   0.2500   0.2500   0.2500   0.2500   0.2500   0.2500
     0.2500   0.2500   0.2500   0.2500   0.2500   0.2500   0.2500   0.2500
     0.2500   0.2500   0.2500   0.2500   0.2500   0.2500   0.2500   0.2500
     0.2500   0.2500   0.2500   0.2500   0.2500   0.2500   0.2500   0.2500
     0.2500   0.2500   0.2500   0.2500   0.2500   0.2500   0.2500   0.2500
     0.2500   0.2500   0.2500   0.2500   0.2500   0.2500   0.2500   0.2500
     0.2500   0.2500   0.2500   0.2500   0.2500   0.2500   0.2500   0.2500
     0.2500   0.2500   0.2500   0.2500   0.2500   0.2500   0.2500   0.2500
     0.2500   0.2500   0.2500   0.2500   0.2500   0.2500   0.2500   0.2500
     0.2500   0.2500   0.2500   0.2500   0.2500   0.2500   0.2500   0.2500
     0.2500   0.2500   0.2500   0.2500   0.2500   0.2500   0.2500   0.2500
     0.2500   0.2500   0.2500   0.2500   0.2500   0.2500   0.2500   0.2500
     0.2500   0.2500   0.2500   0.2500   0.2500   0.2500   0.2500   0.2500
     0.2500   0.2500   0.2500   0.2500   0.2500   0.2500   0.2500   0.2500
     0.2500   0.2500   0.2500   0.2500   0.2500   0.2500   0.2500   0.2500

!    total energy              =   -1856.94574449 Ry
     Harris-Foulkes estimate   =   -1856.94574456 Ry
     estimated scf accuracy    <       0.00000007 Ry

     total all-electron energy =    -18563.106148 Ry

     The total energy is the sum of the following terms:

     one-electron contribution =    -545.99030844 Ry
     hartree contribution      =     382.58691610 Ry
     xc contribution           =    -327.04314524 Ry
     ewald contribution        =    -475.56035587 Ry
     one-center paw contrib.   =    -890.93885105 Ry

     convergence has been achieved in  16 iterations

     Forces acting on atoms (Ry/au):

     atom    1 type  2   force =    -0.00004909    0.00057272    0.00004575
     atom    2 type  2   force =     0.00004909   -0.00057272    0.00004575
     atom    3 type  2   force =    -0.00024014   -0.00021616    0.00026749
     atom    4 type  2   force =    -0.00057272   -0.00004909    0.00004575
     atom    5 type  2   force =     0.00057272    0.00004909    0.00004575
     atom    6 type  2   force =     0.00021616   -0.00024014    0.00026749
     atom    7 type  2   force =    -0.00021616    0.00024014    0.00026749
     atom    8 type  2   force =     0.00024014    0.00021616    0.00026749
     atom    9 type  5   force =     0.00000000    0.00000000    0.00012071
     atom   10 type  5   force =     0.00000000    0.00000000    0.00038952
     atom   11 type  5   force =     0.00000000    0.00000000    0.00013327
     atom   12 type  5   force =     0.00000000    0.00000000    0.00039448
     atom   13 type  1   force =     0.00017161   -0.00042497   -0.00029469
     atom   14 type  1   force =    -0.00009226   -0.00001103    0.00028746
     atom   15 type  1   force =    -0.00033188   -0.00023632   -0.00005031
     atom   16 type  1   force =     0.00033188    0.00023632   -0.00005031
     atom   17 type  1   force =    -0.00011769   -0.00039387   -0.00011183
     atom   18 type  1   force =     0.00011769    0.00039387   -0.00011183
     atom   19 type  1   force =    -0.00039387    0.00011769   -0.00011183
     atom   20 type  1   force =     0.00039387   -0.00011769   -0.00011183
     atom   21 type  1   force =     0.00026265    0.00020269    0.00031767
     atom   22 type  1   force =    -0.00020269    0.00026265    0.00031767
     atom   23 type  1   force =     0.00001103   -0.00009226    0.00028746
     atom   24 type  1   force =     0.00023826    0.00017127    0.00040832
     atom   25 type  1   force =    -0.00023826   -0.00017127    0.00040832
     atom   26 type  1   force =     0.00026259   -0.00016274    0.00032885
     atom   27 type  1   force =    -0.00026259    0.00016274    0.00032885
     atom   28 type  1   force =     0.00016274    0.00026259    0.00032885
     atom   29 type  1   force =    -0.00016274   -0.00026259    0.00032885
     atom   30 type  1   force =     0.00043373   -0.00007905   -0.00012204
     atom   31 type  1   force =    -0.00007905   -0.00043373   -0.00012204
     atom   32 type  1   force =     0.00042497    0.00017161   -0.00029469
     atom   33 type  1   force =    -0.00017127    0.00023826    0.00040832
     atom   34 type  1   force =     0.00017127   -0.00023826    0.00040832
     atom   35 type  1   force =     0.00023632   -0.00033188   -0.00005031
     atom   36 type  1   force =    -0.00023632    0.00033188   -0.00005031
     atom   37 type  1   force =    -0.00042497   -0.00017161   -0.00029469
     atom   38 type  1   force =     0.00007905    0.00043373   -0.00012204
     atom   39 type  1   force =    -0.00043373    0.00007905   -0.00012204
     atom   40 type  1   force =    -0.00001103    0.00009226    0.00028746
     atom   41 type  1   force =     0.00020269   -0.00026265    0.00031767
     atom   42 type  1   force =    -0.00026265   -0.00020269    0.00031767
     atom   43 type  1   force =     0.00009226    0.00001103    0.00028746
     atom   44 type  1   force =    -0.00017161    0.00042497   -0.00029469
     atom   45 type  3   force =    -0.00011159    0.00072560    0.00002142
     atom   46 type  3   force =     0.00018917   -0.00013324   -0.00033953
     atom   47 type  3   force =    -0.00018917    0.00013324   -0.00033953
     atom   48 type  3   force =    -0.00019713    0.00007490    0.00039159
     atom   49 type  3   force =     0.00019713   -0.00007490    0.00039159
     atom   50 type  3   force =    -0.00036417   -0.00013144    0.00012146
     atom   51 type  3   force =    -0.00007490   -0.00019713    0.00039159
     atom   52 type  3   force =     0.00007490    0.00019713    0.00039159
     atom   53 type  3   force =     0.00013144   -0.00036417    0.00012146
     atom   54 type  3   force =    -0.00072560   -0.00011159    0.00002142
     atom   55 type  3   force =    -0.00013324   -0.00018917   -0.00033953
     atom   56 type  3   force =     0.00013324    0.00018917   -0.00033953
     atom   57 type  3   force =     0.00072560    0.00011159    0.00002142
     atom   58 type  3   force =    -0.00013144    0.00036417    0.00012146
     atom   59 type  3   force =     0.00036417    0.00013144    0.00012146
     atom   60 type  3   force =     0.00011159   -0.00072560    0.00002142
     atom   61 type  6   force =     0.00000000    0.00000000    0.00014557
     atom   62 type  6   force =     0.00000000    0.00000000    0.00014430
     atom   63 type  4   force =     0.00000510    0.00074320   -0.00081635
     atom   64 type  4   force =    -0.00000510   -0.00074320   -0.00081635
     atom   65 type  4   force =    -0.00062489   -0.00001667   -0.00078723
     atom   66 type  4   force =    -0.00074320    0.00000510   -0.00081635
     atom   67 type  4   force =     0.00074320   -0.00000510   -0.00081635
     atom   68 type  4   force =     0.00001667   -0.00062489   -0.00078723
     atom   69 type  4   force =    -0.00001667    0.00062489   -0.00078723
     atom   70 type  4   force =     0.00062489    0.00001667   -0.00078723
     The non-local contrib.  to forces
     atom    1 type  2   force =     0.09665095    0.10551551    0.10286492
     atom    2 type  2   force =    -0.09665095   -0.10551551    0.10286492
     atom    3 type  2   force =    -0.10521412    0.09652909    0.10312005
     atom    4 type  2   force =    -0.10551551    0.09665095    0.10286492
     atom    5 type  2   force =     0.10551551   -0.09665095    0.10286492
     atom    6 type  2   force =    -0.09652909   -0.10521412    0.10312005
     atom    7 type  2   force =     0.09652909    0.10521412    0.10312005
     atom    8 type  2   force =     0.10521412   -0.09652909    0.10312005
     atom    9 type  5   force =     0.00000000    0.00000000   -0.03121698
     atom   10 type  5   force =     0.00000000    0.00000000   -0.11866340
     atom   11 type  5   force =     0.00000000    0.00000000   -0.03114106
     atom   12 type  5   force =     0.00000000    0.00000000   -0.11860843
     atom   13 type  1   force =     0.04026380    0.02827008    0.08729697
     atom   14 type  1   force =     0.03432362   -0.07776807   -0.03724985
     atom   15 type  1   force =     0.02826042   -0.04021834    0.08726513
     atom   16 type  1   force =    -0.02826042    0.04021834    0.08726513
     atom   17 type  1   force =    -0.03754565    0.07137526   -0.05344584
     atom   18 type  1   force =     0.03754565   -0.07137526   -0.05344584
     atom   19 type  1   force =     0.07137526    0.03754565   -0.05344584
     atom   20 type  1   force =    -0.07137526   -0.03754565   -0.05344584
     atom   21 type  1   force =     0.08204011   -0.03983997   -0.02812902
     atom   22 type  1   force =     0.03983997    0.08204011   -0.02812902
     atom   23 type  1   force =     0.07776807    0.03432362   -0.03724985
     atom   24 type  1   force =    -0.07782429   -0.03435429   -0.03727323
     atom   25 type  1   force =     0.07782429    0.03435429   -0.03727323
     atom   26 type  1   force =    -0.03984641   -0.08205826   -0.02814176
     atom   27 type  1   force =     0.03984641    0.08205826   -0.02814176
     atom   28 type  1   force =     0.08205826   -0.03984641   -0.02814176
     atom   29 type  1   force =    -0.08205826    0.03984641   -0.02814176
     atom   30 type  1   force =    -0.07136530   -0.03754376   -0.05347271
     atom   31 type  1   force =    -0.03754376    0.07136530   -0.05347271
     atom   32 type  1   force =    -0.02827008    0.04026380    0.08729697
     atom   33 type  1   force =     0.03435429   -0.07782429   -0.03727323
     atom   34 type  1   force =    -0.03435429    0.07782429   -0.03727323
     atom   35 type  1   force =     0.04021834    0.02826042    0.08726513
     atom   36 type  1   force =    -0.04021834   -0.02826042    0.08726513
     atom   37 type  1   force =     0.02827008   -0.04026380    0.08729697
     atom   38 type  1   force =     0.03754376   -0.07136530   -0.05347271
     atom   39 type  1   force =     0.07136530    0.03754376   -0.05347271
     atom   40 type  1   force =    -0.07776807   -0.03432362   -0.03724985
     atom   41 type  1   force =    -0.03983997   -0.08204011   -0.02812902
     atom   42 type  1   force =    -0.08204011    0.03983997   -0.02812902
     atom   43 type  1   force =    -0.03432362    0.07776807   -0.03724985
     atom   44 type  1   force =    -0.04026380   -0.02827008    0.08729697
     atom   45 type  3   force =     0.46328094    0.04033864   -0.24790972
     atom   46 type  3   force =     0.03995625   -0.46365033   -0.24832225
     atom   47 type  3   force =    -0.03995625    0.46365033   -0.24832225
     atom   48 type  3   force =    -0.05009219    0.20348392   -0.27290316
     atom   49 type  3   force =     0.05009219   -0.20348392   -0.27290316
     atom   50 type  3   force =    -0.20351667   -0.04937835   -0.27368333
     atom   51 type  3   force =    -0.20348392   -0.05009219   -0.27290316
     atom   52 type  3   force =     0.20348392    0.05009219   -0.27290316
     atom   53 type  3   force =     0.04937835   -0.20351667   -0.27368333
     atom   54 type  3   force =    -0.04033864    0.46328094   -0.24790972
     atom   55 type  3   force =    -0.46365033   -0.03995625   -0.24832225
     atom   56 type  3   force =     0.46365033    0.03995625   -0.24832225
     atom   57 type  3   force =     0.04033864   -0.46328094   -0.24790972
     atom   58 type  3   force =    -0.04937835    0.20351667   -0.27368333
     atom   59 type  3   force =     0.20351667    0.04937835   -0.27368333
     atom   60 type  3   force =    -0.46328094   -0.04033864   -0.24790972
     atom   61 type  6   force =     0.00000000    0.00000000   -0.01660608
     atom   62 type  6   force =     0.00000000    0.00000000   -0.01658264
     atom   63 type  4   force =     0.16726104   -0.08466695    0.24286024
     atom   64 type  4   force =    -0.16726104    0.08466695    0.24286024
     atom   65 type  4   force =     0.08474954    0.16720759    0.24284394
     atom   66 type  4   force =     0.08466695    0.16726104    0.24286024
     atom   67 type  4   force =    -0.08466695   -0.16726104    0.24286024
     atom   68 type  4   force =    -0.16720759    0.08474954    0.24284394
     atom   69 type  4   force =     0.16720759   -0.08474954    0.24284394
     atom   70 type  4   force =    -0.08474954   -0.16720759    0.24284394
     The ionic contribution  to forces
     atom    1 type  2   force =    -1.74571174    0.63343838   -1.18664865
     atom    2 type  2   force =     1.74571174   -0.63343838   -1.18664865
     atom    3 type  2   force =    -0.63049822   -1.74390868   -1.18448146
     atom    4 type  2   force =    -0.63343838   -1.74571174   -1.18664865
     atom    5 type  2   force =     0.63343838    1.74571174   -1.18664865
     atom    6 type  2   force =     1.74390868   -0.63049822   -1.18448146
     atom    7 type  2   force =    -1.74390868    0.63049822   -1.18448146
     atom    8 type  2   force =     0.63049822    1.74390868   -1.18448146
     atom    9 type  5   force =     0.00000000    0.00000000   -2.11482058
     atom   10 type  5   force =    -0.00000000   -0.00000000    5.40679149
     atom   11 type  5   force =     0.00000000    0.00000000   -2.11645724
     atom   12 type  5   force =    -0.00000000   -0.00000000    5.40381125
     atom   13 type  1   force =    -1.46155856   -0.98810473   -2.54904415
     atom   14 type  1   force =    -1.24150718    1.74847598    0.78258060
     atom   15 type  1   force =    -0.98799198    1.46050492   -2.54878315
     atom   16 type  1   force =     0.98799198   -1.46050492   -2.54878315
     atom   17 type  1   force =     0.79801563   -1.85888584    1.51517984
     atom   18 type  1   force =    -0.79801563    1.85888584    1.51517984
     atom   19 type  1   force =    -1.85888584   -0.79801563    1.51517984
     atom   20 type  1   force =     1.85888584    0.79801563    1.51517984
     atom   21 type  1   force =    -1.88052817    0.50094244    1.35182292
     atom   22 type  1   force =    -0.50094244   -1.88052817    1.35182292
     atom   23 type  1   force =    -1.74847598   -1.24150718    0.78258060
     atom   24 type  1   force =     1.74942486    1.24206226    0.78276941
     atom   25 type  1   force =    -1.74942486   -1.24206226    0.78276941
     atom   26 type  1   force =     0.50114124    1.88080547    1.35181734
     atom   27 type  1   force =    -0.50114124   -1.88080547    1.35181734
     atom   28 type  1   force =    -1.88080547    0.50114124    1.35181734
     atom   29 type  1   force =     1.88080547   -0.50114124    1.35181734
     atom   30 type  1   force =     1.85842565    0.79799365    1.51579881
     atom   31 type  1   force =     0.79799365   -1.85842565    1.51579881
     atom   32 type  1   force =     0.98810473   -1.46155856   -2.54904415
     atom   33 type  1   force =    -1.24206226    1.74942486    0.78276941
     atom   34 type  1   force =     1.24206226   -1.74942486    0.78276941
     atom   35 type  1   force =    -1.46050492   -0.98799198   -2.54878315
     atom   36 type  1   force =     1.46050492    0.98799198   -2.54878315
     atom   37 type  1   force =    -0.98810473    1.46155856   -2.54904415
     atom   38 type  1   force =    -0.79799365    1.85842565    1.51579881
     atom   39 type  1   force =    -1.85842565   -0.79799365    1.51579881
     atom   40 type  1   force =     1.74847598    1.24150718    0.78258060
     atom   41 type  1   force =     0.50094244    1.88052817    1.35182292
     atom   42 type  1   force =     1.88052817   -0.50094244    1.35182292
     atom   43 type  1   force =     1.24150718   -1.74847598    0.78258060
     atom   44 type  1   force =     1.46155856    0.98810473   -2.54904415
     atom   45 type  3   force =    -5.62629694   -0.22477899   -1.15426887
     atom   46 type  3   force =    -0.22697915    5.62485311   -1.15553930
     atom   47 type  3   force =     0.22697915   -5.62485311   -1.15553930
     atom   48 type  3   force =     2.09714740   -1.04486375    4.70894471
     atom   49 type  3   force =    -2.09714740    1.04486375    4.70894471
     atom   50 type  3   force =     1.04326514    2.09500958    4.70891812
     atom   51 type  3   force =     1.04486375    2.09714740    4.70894471
     atom   52 type  3   force =    -1.04486375   -2.09714740    4.70894471
     atom   53 type  3   force =    -2.09500958    1.04326514    4.70891812
     atom   54 type  3   force =     0.22477899   -5.62629694   -1.15426887
     atom   55 type  3   force =     5.62485311    0.22697915   -1.15553930
     atom   56 type  3   force =    -5.62485311   -0.22697915   -1.15553930
     atom   57 type  3   force =    -0.22477899    5.62629694   -1.15426887
     atom   58 type  3   force =     2.09500958   -1.04326514    4.70891812
     atom   59 type  3   force =    -1.04326514   -2.09500958    4.70891812
     atom   60 type  3   force =     5.62629694    0.22477899   -1.15426887
     atom   61 type  6   force =     0.00000000    0.00000000   -0.18377091
     atom   62 type  6   force =    -0.00000000   -0.00000000   -0.18159033
     atom   63 type  4   force =    -2.68216593    5.30812445   -4.24735689
     atom   64 type  4   force =     2.68216593   -5.30812445   -4.24735689
     atom   65 type  4   force =    -5.30755874   -2.68260776   -4.24520019
     atom   66 type  4   force =    -5.30812445   -2.68216593   -4.24735689
     atom   67 type  4   force =     5.30812445    2.68216593   -4.24735689
     atom   68 type  4   force =     2.68260776   -5.30755874   -4.24520019
     atom   69 type  4   force =    -2.68260776    5.30755874   -4.24520019
     atom   70 type  4   force =     5.30755874    2.68260776   -4.24520019
     The local contribution  to forces
     atom    1 type  2   force =     1.64903991   -0.73710954    1.08436784
     atom    2 type  2   force =    -1.64903991    0.73710954    1.08436784
     atom    3 type  2   force =     0.73428825    1.64716240    1.08220223
     atom    4 type  2   force =     0.73710954    1.64903991    1.08436784
     atom    5 type  2   force =    -0.73710954   -1.64903991    1.08436784
     atom    6 type  2   force =    -1.64716240    0.73428825    1.08220223
     atom    7 type  2   force =     1.64716240   -0.73428825    1.08220223
     atom    8 type  2   force =    -0.73428825   -1.64716240    1.08220223
     atom    9 type  5   force =    -0.00000000   -0.00000000    2.14456909
     atom   10 type  5   force =     0.00000000    0.00000000   -5.29301057
     atom   11 type  5   force =     0.00000000    0.00000000    2.14617755
     atom   12 type  5   force =     0.00000000    0.00000000   -5.29012125
     atom   13 type  1   force =     1.42146267    0.95941046    2.46144815
     atom   14 type  1   force =     1.20708939   -1.67071592   -0.74504459
     atom   15 type  1   force =     0.95940801   -1.42052151    2.46147087
     atom   16 type  1   force =    -0.95940801    1.42052151    2.46147087
     atom   17 type  1   force =    -0.76059569    1.78712677   -1.46185224
     atom   18 type  1   force =     0.76059569   -1.78712677   -1.46185224
     atom   19 type  1   force =     1.78712677    0.76059569   -1.46185224
     atom   20 type  1   force =    -1.78712677   -0.76059569   -1.46185224
     atom   21 type  1   force =     1.79875525   -0.46090494   -1.32336761
     atom   22 type  1   force =     0.46090494    1.79875525   -1.32336761
     atom   23 type  1   force =     1.67071592    1.20708939   -0.74504459
     atom   24 type  1   force =    -1.67136230   -1.20753566   -0.74509710
     atom   25 type  1   force =     1.67136230    1.20753566   -0.74509710
     atom   26 type  1   force =    -0.46103066   -1.79890951   -1.32334334
     atom   27 type  1   force =     0.46103066    1.79890951   -1.32334334
     atom   28 type  1   force =     1.79890951   -0.46103066   -1.32334334
     atom   29 type  1   force =    -1.79890951    0.46103066   -1.32334334
     atom   30 type  1   force =    -1.78662614   -0.76052834   -1.46245106
     atom   31 type  1   force =    -0.76052834    1.78662614   -1.46245106
     atom   32 type  1   force =    -0.95941046    1.42146267    2.46144815
     atom   33 type  1   force =     1.20753566   -1.67136230   -0.74509710
     atom   34 type  1   force =    -1.20753566    1.67136230   -0.74509710
     atom   35 type  1   force =     1.42052151    0.95940801    2.46147087
     atom   36 type  1   force =    -1.42052151   -0.95940801    2.46147087
     atom   37 type  1   force =     0.95941046   -1.42146267    2.46144815
     atom   38 type  1   force =     0.76052834   -1.78662614   -1.46245106
     atom   39 type  1   force =     1.78662614    0.76052834   -1.46245106
     atom   40 type  1   force =    -1.67071592   -1.20708939   -0.74504459
     atom   41 type  1   force =    -0.46090494   -1.79875525   -1.32336761
     atom   42 type  1   force =    -1.79875525    0.46090494   -1.32336761
     atom   43 type  1   force =    -1.20708939    1.67071592   -0.74504459
     atom   44 type  1   force =    -1.42146267   -0.95941046    2.46144815
     atom   45 type  3   force =     5.16578508    0.18539736    1.40013924
     atom   46 type  3   force =     0.18745868   -5.16418626    1.40143491
     atom   47 type  3   force =    -0.18745868    5.16418626    1.40143491
     atom   48 type  3   force =    -2.04712037    0.84289102   -4.43712780
     atom   49 type  3   force =     2.04712037   -0.84289102   -4.43712780
     atom   50 type  3   force =    -0.84151498   -2.04566646   -4.43660733
     atom   51 type  3   force =    -0.84289102   -2.04712037   -4.43712780
     atom   52 type  3   force =     0.84289102    2.04712037   -4.43712780
     atom   53 type  3   force =     2.04566646   -0.84151498   -4.43660733
     atom   54 type  3   force =    -0.18539736    5.16578508    1.40013924
     atom   55 type  3   force =    -5.16418626   -0.18745868    1.40143491
     atom   56 type  3   force =     5.16418626    0.18745868    1.40143491
     atom   57 type  3   force =     0.18539736   -5.16578508    1.40013924
     atom   58 type  3   force =    -2.04566646    0.84151498   -4.43660733
     atom   59 type  3   force =     0.84151498    2.04566646   -4.43660733
     atom   60 type  3   force =    -5.16578508   -0.18539736    1.40013924
     atom   61 type  6   force =     0.00000000   -0.00000000    0.20435811
     atom   62 type  6   force =     0.00000000    0.00000000    0.20218064
     atom   63 type  4   force =     2.52000058   -5.22791344    4.01266963
     atom   64 type  4   force =    -2.52000058    5.22791344    4.01266963
     atom   65 type  4   force =     5.22752042    2.52045750    4.01061061
     atom   66 type  4   force =     5.22791344    2.52000058    4.01266963
     atom   67 type  4   force =    -5.22791344   -2.52000058    4.01266963
     atom   68 type  4   force =    -2.52045750    5.22752042    4.01061061
     atom   69 type  4   force =     2.52045750   -5.22752042    4.01061061
     atom   70 type  4   force =    -5.22752042   -2.52045750    4.01061061
     The core correction contribution to forces
     atom    1 type  2   force =     0.00001112   -0.00121992   -0.00053506
     atom    2 type  2   force =    -0.00001112    0.00121992   -0.00053506
     atom    3 type  2   force =     0.00120430    0.00001163   -0.00054399
     atom    4 type  2   force =     0.00121992    0.00001112   -0.00053506
     atom    5 type  2   force =    -0.00121992   -0.00001112   -0.00053506
     atom    6 type  2   force =    -0.00001163    0.00120430   -0.00054399
     atom    7 type  2   force =     0.00001163   -0.00120430   -0.00054399
     atom    8 type  2   force =    -0.00120430   -0.00001163   -0.00054399
     atom    9 type  5   force =     0.00000000    0.00000000    0.00147151
     atom   10 type  5   force =     0.00000000    0.00000000    0.00533450
     atom   11 type  5   force =    -0.00000000   -0.00000000    0.00145946
     atom   12 type  5   force =     0.00000000    0.00000000    0.00534254
     atom   13 type  1   force =     0.00000000    0.00000000    0.00000000
     atom   14 type  1   force =     0.00000000    0.00000000    0.00000000
     atom   15 type  1   force =     0.00000000    0.00000000    0.00000000
     atom   16 type  1   force =     0.00000000    0.00000000    0.00000000
     atom   17 type  1   force =     0.00000000    0.00000000    0.00000000
     atom   18 type  1   force =     0.00000000    0.00000000    0.00000000
     atom   19 type  1   force =     0.00000000    0.00000000    0.00000000
     atom   20 type  1   force =     0.00000000    0.00000000    0.00000000
     atom   21 type  1   force =     0.00000000    0.00000000    0.00000000
     atom   22 type  1   force =     0.00000000    0.00000000    0.00000000
     atom   23 type  1   force =     0.00000000    0.00000000    0.00000000
     atom   24 type  1   force =     0.00000000    0.00000000    0.00000000
     atom   25 type  1   force =     0.00000000    0.00000000    0.00000000
     atom   26 type  1   force =     0.00000000    0.00000000    0.00000000
     atom   27 type  1   force =     0.00000000    0.00000000    0.00000000
     atom   28 type  1   force =     0.00000000    0.00000000    0.00000000
     atom   29 type  1   force =     0.00000000    0.00000000    0.00000000
     atom   30 type  1   force =     0.00000000    0.00000000    0.00000000
     atom   31 type  1   force =     0.00000000    0.00000000    0.00000000
     atom   32 type  1   force =     0.00000000    0.00000000    0.00000000
     atom   33 type  1   force =     0.00000000    0.00000000    0.00000000
     atom   34 type  1   force =     0.00000000    0.00000000    0.00000000
     atom   35 type  1   force =     0.00000000    0.00000000    0.00000000
     atom   36 type  1   force =     0.00000000    0.00000000    0.00000000
     atom   37 type  1   force =     0.00000000    0.00000000    0.00000000
     atom   38 type  1   force =     0.00000000    0.00000000    0.00000000
     atom   39 type  1   force =     0.00000000    0.00000000    0.00000000
     atom   40 type  1   force =     0.00000000    0.00000000    0.00000000
     atom   41 type  1   force =     0.00000000    0.00000000    0.00000000
     atom   42 type  1   force =     0.00000000    0.00000000    0.00000000
     atom   43 type  1   force =     0.00000000    0.00000000    0.00000000
     atom   44 type  1   force =     0.00000000    0.00000000    0.00000000
     atom   45 type  3   force =    -0.00290410   -0.00020850    0.00205950
     atom   46 type  3   force =    -0.00020107    0.00291023    0.00206501
     atom   47 type  3   force =     0.00020107   -0.00291023    0.00206501
     atom   48 type  3   force =    -0.00009203   -0.00141844    0.00152228
     atom   49 type  3   force =     0.00009203    0.00141844    0.00152228
     atom   50 type  3   force =     0.00142109   -0.00009680    0.00153145
     atom   51 type  3   force =     0.00141844   -0.00009203    0.00152228
     atom   52 type  3   force =    -0.00141844    0.00009203    0.00152228
     atom   53 type  3   force =     0.00009680    0.00142109    0.00153145
     atom   54 type  3   force =     0.00020850   -0.00290410    0.00205950
     atom   55 type  3   force =     0.00291023    0.00020107    0.00206501
     atom   56 type  3   force =    -0.00291023   -0.00020107    0.00206501
     atom   57 type  3   force =    -0.00020850    0.00290410    0.00205950
     atom   58 type  3   force =    -0.00009680   -0.00142109    0.00153145
     atom   59 type  3   force =    -0.00142109    0.00009680    0.00153145
     atom   60 type  3   force =     0.00290410    0.00020850    0.00205950
     atom   61 type  6   force =     0.00000000    0.00000000   -0.00383292
     atom   62 type  6   force =     0.00000000    0.00000000   -0.00384854
     atom   63 type  4   force =    -0.00508092    0.00526095   -0.00902780
     atom   64 type  4   force =     0.00508092   -0.00526095   -0.00902780
     atom   65 type  4   force =    -0.00526270   -0.00507853   -0.00902740
     atom   66 type  4   force =    -0.00526095   -0.00508092   -0.00902780
     atom   67 type  4   force =     0.00526095    0.00508092   -0.00902780
     atom   68 type  4   force =     0.00507853   -0.00526270   -0.00902740
     atom   69 type  4   force =    -0.00507853    0.00526270   -0.00902740
     atom   70 type  4   force =     0.00526270    0.00507853   -0.00902740
     The Hubbard contrib.    to forces
     atom    1 type  2   force =     0.00000000    0.00000000    0.00000000
     atom    2 type  2   force =     0.00000000    0.00000000    0.00000000
     atom    3 type  2   force =     0.00000000    0.00000000    0.00000000
     atom    4 type  2   force =     0.00000000    0.00000000    0.00000000
     atom    5 type  2   force =     0.00000000    0.00000000    0.00000000
     atom    6 type  2   force =     0.00000000    0.00000000    0.00000000
     atom    7 type  2   force =     0.00000000    0.00000000    0.00000000
     atom    8 type  2   force =     0.00000000    0.00000000    0.00000000
     atom    9 type  5   force =     0.00000000    0.00000000    0.00000000
     atom   10 type  5   force =     0.00000000    0.00000000    0.00000000
     atom   11 type  5   force =     0.00000000    0.00000000    0.00000000
     atom   12 type  5   force =     0.00000000    0.00000000    0.00000000
     atom   13 type  1   force =     0.00000000    0.00000000    0.00000000
     atom   14 type  1   force =     0.00000000    0.00000000    0.00000000
     atom   15 type  1   force =     0.00000000    0.00000000    0.00000000
     atom   16 type  1   force =     0.00000000    0.00000000    0.00000000
     atom   17 type  1   force =     0.00000000    0.00000000    0.00000000
     atom   18 type  1   force =     0.00000000    0.00000000    0.00000000
     atom   19 type  1   force =     0.00000000    0.00000000    0.00000000
     atom   20 type  1   force =     0.00000000    0.00000000    0.00000000
     atom   21 type  1   force =     0.00000000    0.00000000    0.00000000
     atom   22 type  1   force =     0.00000000    0.00000000    0.00000000
     atom   23 type  1   force =     0.00000000    0.00000000    0.00000000
     atom   24 type  1   force =     0.00000000    0.00000000    0.00000000
     atom   25 type  1   force =     0.00000000    0.00000000    0.00000000
     atom   26 type  1   force =     0.00000000    0.00000000    0.00000000
     atom   27 type  1   force =     0.00000000    0.00000000    0.00000000
     atom   28 type  1   force =     0.00000000    0.00000000    0.00000000
     atom   29 type  1   force =     0.00000000    0.00000000    0.00000000
     atom   30 type  1   force =     0.00000000    0.00000000    0.00000000
     atom   31 type  1   force =     0.00000000    0.00000000    0.00000000
     atom   32 type  1   force =     0.00000000    0.00000000    0.00000000
     atom   33 type  1   force =     0.00000000    0.00000000    0.00000000
     atom   34 type  1   force =     0.00000000    0.00000000    0.00000000
     atom   35 type  1   force =     0.00000000    0.00000000    0.00000000
     atom   36 type  1   force =     0.00000000    0.00000000    0.00000000
     atom   37 type  1   force =     0.00000000    0.00000000    0.00000000
     atom   38 type  1   force =     0.00000000    0.00000000    0.00000000
     atom   39 type  1   force =     0.00000000    0.00000000    0.00000000
     atom   40 type  1   force =     0.00000000    0.00000000    0.00000000
     atom   41 type  1   force =     0.00000000    0.00000000    0.00000000
     atom   42 type  1   force =     0.00000000    0.00000000    0.00000000
     atom   43 type  1   force =     0.00000000    0.00000000    0.00000000
     atom   44 type  1   force =     0.00000000    0.00000000    0.00000000
     atom   45 type  3   force =     0.00000000    0.00000000    0.00000000
     atom   46 type  3   force =     0.00000000    0.00000000    0.00000000
     atom   47 type  3   force =     0.00000000    0.00000000    0.00000000
     atom   48 type  3   force =     0.00000000    0.00000000    0.00000000
     atom   49 type  3   force =     0.00000000    0.00000000    0.00000000
     atom   50 type  3   force =     0.00000000    0.00000000    0.00000000
     atom   51 type  3   force =     0.00000000    0.00000000    0.00000000
     atom   52 type  3   force =     0.00000000    0.00000000    0.00000000
     atom   53 type  3   force =     0.00000000    0.00000000    0.00000000
     atom   54 type  3   force =     0.00000000    0.00000000    0.00000000
     atom   55 type  3   force =     0.00000000    0.00000000    0.00000000
     atom   56 type  3   force =     0.00000000    0.00000000    0.00000000
     atom   57 type  3   force =     0.00000000    0.00000000    0.00000000
     atom   58 type  3   force =     0.00000000    0.00000000    0.00000000
     atom   59 type  3   force =     0.00000000    0.00000000    0.00000000
     atom   60 type  3   force =     0.00000000    0.00000000    0.00000000
     atom   61 type  6   force =     0.00000000    0.00000000    0.00000000
     atom   62 type  6   force =     0.00000000    0.00000000    0.00000000
     atom   63 type  4   force =     0.00000000    0.00000000    0.00000000
     atom   64 type  4   force =     0.00000000    0.00000000    0.00000000
     atom   65 type  4   force =     0.00000000    0.00000000    0.00000000
     atom   66 type  4   force =     0.00000000    0.00000000    0.00000000
     atom   67 type  4   force =     0.00000000    0.00000000    0.00000000
     atom   68 type  4   force =     0.00000000    0.00000000    0.00000000
     atom   69 type  4   force =     0.00000000    0.00000000    0.00000000
     atom   70 type  4   force =     0.00000000    0.00000000    0.00000000
     The SCF correction term to forces
     atom    1 type  2   force =    -0.00003932   -0.00005172   -0.00000382
     atom    2 type  2   force =     0.00003932    0.00005172   -0.00000382
     atom    3 type  2   force =    -0.00002035   -0.00001059   -0.00002987
     atom    4 type  2   force =     0.00005172   -0.00003932   -0.00000382
     atom    5 type  2   force =    -0.00005172    0.00003932   -0.00000382
     atom    6 type  2   force =     0.00001059   -0.00002035   -0.00002987
     atom    7 type  2   force =    -0.00001059    0.00002035   -0.00002987
     atom    8 type  2   force =     0.00002035    0.00001059   -0.00002987
     atom    9 type  5   force =     0.00000000   -0.00000000    0.00011713
     atom   10 type  5   force =    -0.00000000   -0.00000000   -0.00006304
     atom   11 type  5   force =     0.00000000   -0.00000000    0.00009402
     atom   12 type  5   force =    -0.00000000    0.00000000   -0.00003017
     atom   13 type  1   force =     0.00000370   -0.00000079    0.00000381
     atom   14 type  1   force =     0.00000191   -0.00000302    0.00000077
     atom   15 type  1   force =    -0.00000832   -0.00000139   -0.00000371
     atom   16 type  1   force =     0.00000832    0.00000139   -0.00000371
     atom   17 type  1   force =     0.00000802   -0.00001006    0.00000588
     atom   18 type  1   force =    -0.00000802    0.00001006    0.00000588
     atom   19 type  1   force =    -0.00001006   -0.00000802    0.00000588
     atom   20 type  1   force =     0.00001006    0.00000802    0.00000588
     atom   21 type  1   force =    -0.00000454    0.00000516   -0.00000914
     atom   22 type  1   force =    -0.00000516   -0.00000454   -0.00000914
     atom   23 type  1   force =     0.00000302    0.00000191    0.00000077
     atom   24 type  1   force =    -0.00000002   -0.00000104    0.00000871
     atom   25 type  1   force =     0.00000002    0.00000104    0.00000871
     atom   26 type  1   force =    -0.00000158   -0.00000044   -0.00000392
     atom   27 type  1   force =     0.00000158    0.00000044   -0.00000392
     atom   28 type  1   force =     0.00000044   -0.00000158   -0.00000392
     atom   29 type  1   force =    -0.00000044    0.00000158   -0.00000392
     atom   30 type  1   force =    -0.00000049   -0.00000061    0.00000238
     atom   31 type  1   force =    -0.00000061    0.00000049    0.00000238
     atom   32 type  1   force =     0.00000079    0.00000370    0.00000381
     atom   33 type  1   force =     0.00000104   -0.00000002    0.00000871
     atom   34 type  1   force =    -0.00000104    0.00000002    0.00000871
     atom   35 type  1   force =     0.00000139   -0.00000832   -0.00000371
     atom   36 type  1   force =    -0.00000139    0.00000832   -0.00000371
     atom   37 type  1   force =    -0.00000079   -0.00000370    0.00000381
     atom   38 type  1   force =     0.00000061   -0.00000049    0.00000238
     atom   39 type  1   force =     0.00000049    0.00000061    0.00000238
     atom   40 type  1   force =    -0.00000302   -0.00000191    0.00000077
     atom   41 type  1   force =     0.00000516    0.00000454   -0.00000914
     atom   42 type  1   force =     0.00000454   -0.00000516   -0.00000914
     atom   43 type  1   force =    -0.00000191    0.00000302    0.00000077
     atom   44 type  1   force =    -0.00000370    0.00000079    0.00000381
     atom   45 type  3   force =     0.00002344   -0.00002291    0.00000075
     atom   46 type  3   force =    -0.00004553   -0.00006000    0.00002157
     atom   47 type  3   force =     0.00004553    0.00006000    0.00002157
     atom   48 type  3   force =    -0.00003993   -0.00001785   -0.00004498
     atom   49 type  3   force =     0.00003993    0.00001785   -0.00004498
     atom   50 type  3   force =    -0.00001875    0.00000058   -0.00003800
     atom   51 type  3   force =     0.00001785   -0.00003993   -0.00004498
     atom   52 type  3   force =    -0.00001785    0.00003993   -0.00004498
     atom   53 type  3   force =    -0.00000058   -0.00001875   -0.00003800
     atom   54 type  3   force =     0.00002291    0.00002344    0.00000075
     atom   55 type  3   force =    -0.00006000    0.00004553    0.00002157
     atom   56 type  3   force =     0.00006000   -0.00004553    0.00002157
     atom   57 type  3   force =    -0.00002291   -0.00002344    0.00000075
     atom   58 type  3   force =     0.00000058    0.00001875   -0.00003800
     atom   59 type  3   force =     0.00001875   -0.00000058   -0.00003800
     atom   60 type  3   force =    -0.00002344    0.00002291    0.00000075
     atom   61 type  6   force =    -0.00000000   -0.00000000   -0.00000316
     atom   62 type  6   force =     0.00000000    0.00000000   -0.00001536
     atom   63 type  4   force =    -0.00000967   -0.00006181    0.00003794
     atom   64 type  4   force =     0.00000967    0.00006181    0.00003794
     atom   65 type  4   force =    -0.00007340    0.00000454   -0.00001472
     atom   66 type  4   force =     0.00006181   -0.00000967    0.00003794
     atom   67 type  4   force =    -0.00006181    0.00000967    0.00003794
     atom   68 type  4   force =    -0.00000454   -0.00007340   -0.00001472
     atom   69 type  4   force =     0.00000454    0.00007340   -0.00001472
     atom   70 type  4   force =     0.00007340   -0.00000454   -0.00001472

     Total force =     0.004698     Total SCF correction =     0.000385


     entering subroutine stress ...

          total   stress  (Ry/bohr**3)                   (kbar)     P=   13.49
   0.00004848  -0.00000000   0.00000000          7.13     -0.00      0.00
   0.00000000   0.00004848   0.00000000          0.00      7.13      0.00
   0.00000000   0.00000000   0.00017825          0.00      0.00     26.22

     kinetic stress (kbar)   7597.85      0.00      0.00
                                0.00   7597.85      0.00
                                0.00      0.00   7666.68

     local   stress (kbar)  -8078.54      0.00     -0.00
                                0.00  -8078.54     -0.00
                               -0.00     -0.00  -7609.57

     nonloc. stress (kbar)   3261.99      0.00      0.00
                                0.00   3261.99      0.00
                                0.00      0.00   3258.77

     hartree stress (kbar)   3419.90     -0.00     -0.00
                               -0.00   3419.90      0.00
                               -0.00      0.00   3325.09

     exc-cor stress (kbar)    625.70     -0.00      0.00
                               -0.00    625.70      0.00
                                0.00      0.00    625.57

     corecor stress (kbar)  -2742.70      0.00     -0.00
                                0.00  -2742.70      0.00
                               -0.00      0.00  -2759.36

     ewald   stress (kbar)  -4077.06     -0.00      0.00
                               -0.00  -4077.06     -0.00
                                0.00     -0.00  -4480.96

     hubbard stress (kbar)      0.00      0.00      0.00
                                0.00      0.00      0.00
                                0.00      0.00      0.00

     london  stress (kbar)      0.00      0.00      0.00
                                0.00      0.00      0.00
                                0.00      0.00      0.00

     dft-nl  stress (kbar)      0.00      0.00      0.00
                                0.00      0.00      0.00
                                0.00      0.00      0.00



     BFGS Geometry Optimization

     bfgs converged in   1 scf cycles and   0 bfgs steps
     (criteria: energy < 0.10E-03, force < 0.10E-02)

     End of BFGS Geometry Optimization

     Final energy   =   -1856.9457444926 Ry
Begin final coordinates

ATOMIC_POSITIONS (crystal)
C        0.152448313   0.307541357   0.080233243
C       -0.152448313  -0.307541357   0.080233243
C        0.192464312   0.652459677   0.580219964
C       -0.307541357   0.152448313   0.080233243
C        0.307541357  -0.152448313   0.080233243
C        0.347540323   0.192464312   0.580219964
C        0.652459677   0.807535688   0.580219964
C        0.807535688   0.347540323   0.580219964
Cl       0.000000000   0.000000000  -0.323403747
Cl       0.000000000   0.000000000   0.309915509
Cl       0.500000000   0.500000000   0.176598075
Cl       0.500000000   0.500000000   0.809919883
H        0.025315953   0.669941067   0.441279432
H        0.027073347   0.790490330   0.587610239
H        0.169935543   0.474686931  -0.058727273
H       -0.169935543  -0.474686931  -0.058727273
H       -0.209719269   0.220687791  -0.234407475
H        0.209719269  -0.220687791  -0.234407475
H        0.220687791   0.209719269  -0.234407475
H       -0.220687791  -0.209719269  -0.234407475
H        0.154793147   0.844130821   0.237165890
H        0.155869179   0.154793147   0.237165890
H        0.209509670   0.027073347   0.587610239
H        0.290472689   0.472944936   0.087613647
H       -0.290472689  -0.472944936   0.087613647
H        0.344140762   0.345206053  -0.262812868
H       -0.344140762  -0.345206053  -0.262812868
H       -0.345206053   0.344140762  -0.262812868
H        0.345206053  -0.344140762  -0.262812868
H        0.279310059   0.290283271   0.265599563
H        0.290283271   0.720689941   0.265599563
H        0.330058933   0.025315953   0.441279432
H       -0.472944936   0.290472689   0.087613647
H        0.472944936  -0.290472689   0.087613647
H       -0.474686931   0.169935543  -0.058727273
H        0.474686931  -0.169935543  -0.058727273
H        0.669941067   0.974684047   0.441279432
H        0.709716729   0.279310059   0.265599563
H        0.720689941   0.709716729   0.265599563
H        0.790490330   0.972926653   0.587610239
H        0.844130821   0.845206853   0.237165890
H        0.845206853   0.155869179   0.237165890
H        0.972926653   0.209509670   0.587610239
H        0.974684047   0.330058933   0.441279432
N        0.066052579   0.700000662   0.540362083
N        0.200001842   0.433969138   0.040380852
N       -0.200001842  -0.433969138   0.040380852
N        0.200453828   0.247353518   0.203597137
N       -0.200453828  -0.247353518   0.203597137
N        0.252652225   0.700436806   0.703615924
N       -0.247353518   0.200453828   0.203597137
N        0.247353518  -0.200453828   0.203597137
N        0.299563194   0.252652225   0.703615924
N        0.299999338   0.066052579   0.540362083
N        0.433969138  -0.200001842   0.040380852
N       -0.433969138   0.200001842   0.040380852
N        0.700000662   0.933947421   0.540362083
N        0.700436806   0.747347775   0.703615924
N        0.747347775   0.299563194   0.703615924
N        0.933947421   0.299999338   0.540362083
Ni       0.000000000   0.000000000   0.014530421
Ni       0.500000000   0.500000000   0.514486875
S        0.028505120   0.227882183  -0.031160929
S       -0.028505120  -0.227882183  -0.031160929
S        0.272104999   0.528509150   0.468818819
S       -0.227882183   0.028505120  -0.031160929
S        0.227882183  -0.028505120  -0.031160929
S        0.471490850   0.272104999   0.468818819
S        0.528509150   0.727895001   0.468818819
S        0.727895001   0.471490850   0.468818819
End final coordinates



     Writing output data file run-mystery.save

     init_run     :    218.18s CPU    373.76s WALL (       1 calls)
     electrons    :   4143.27s CPU   4494.82s WALL (       1 calls)
     forces       :    283.21s CPU    294.79s WALL (       1 calls)
     stress       :    675.31s CPU    802.48s WALL (       1 calls)

     Called by init_run:
     wfcinit      :     40.05s CPU     45.51s WALL (       1 calls)
     potinit      :     34.67s CPU     78.30s WALL (       1 calls)

     Called by electrons:
     c_bands      :   1584.20s CPU   1622.96s WALL (      16 calls)
     sum_band     :   1100.60s CPU   1152.63s WALL (      16 calls)
     v_of_rho     :    101.77s CPU    139.74s WALL (      17 calls)
     v_h          :      7.84s CPU      8.83s WALL (      17 calls)
     v_xc         :    104.13s CPU    142.10s WALL (      19 calls)
     newd         :   1320.54s CPU   1411.90s WALL (      17 calls)
     mix_rho      :     37.85s CPU     44.59s WALL (      16 calls)

     Called by c_bands:
     init_us_2    :     52.14s CPU     52.92s WALL (      33 calls)
     cegterg      :   1515.05s CPU   1533.01s WALL (      16 calls)

     Called by sum_band:
     sum_band:bec :      0.07s CPU      0.07s WALL (      16 calls)
     addusdens    :    887.48s CPU    912.80s WALL (      16 calls)

     Called by *egterg:
     h_psi        :    888.62s CPU    906.12s WALL (      94 calls)
     s_psi        :    174.82s CPU     94.65s WALL (      94 calls)
     g_psi        :      3.92s CPU      3.95s WALL (      77 calls)
     cdiaghg      :     39.20s CPU     35.77s WALL (      93 calls)
     cegterg:over :    173.45s CPU    113.90s WALL (      77 calls)
     cegterg:upda :    138.18s CPU     72.67s WALL (      77 calls)
     cegterg:last :     74.22s CPU     40.56s WALL (      18 calls)

     Called by h_psi:
     h_psi:vloc   :    499.02s CPU    526.30s WALL (      94 calls)
     h_psi:vnl    :    382.13s CPU    371.17s WALL (      94 calls)
     add_vuspsi   :    178.10s CPU    105.12s WALL (      94 calls)

     General routines
     calbec       :    273.32s CPU    316.53s WALL (     112 calls)
     fft          :    109.07s CPU    148.41s WALL (     293 calls)
     ffts         :      3.14s CPU      3.47s WALL (      33 calls)
     fftw         :    490.32s CPU    514.50s WALL (    7102 calls)
     interpolate  :     21.28s CPU     23.07s WALL (      33 calls)
     davcio       :      2.50s CPU    116.06s WALL (      16 calls)

     Parallel routines
     fft_scatter  :     29.76s CPU     49.91s WALL (     326 calls)
     ALLTOALL     :     36.27s CPU     60.41s WALL (    7102 calls)

     PAW routines
     PAW_pot      :     18.25s CPU     32.15s WALL (      17 calls)
     PAW_ddot     :      5.30s CPU      8.24s WALL (     436 calls)
     PAW_symme    :      2.29s CPU      7.18s WALL (      33 calls)

     PWSCF        :     1h28m CPU        1h39m WALL


   This run was terminated on:   7:22: 8  31Aug2015            

=------------------------------------------------------------------------------=
   JOB DONE.
=------------------------------------------------------------------------------=
