
     Program PWSCF v.5.3.0 (svn rev. 11974) starts on 25Jun2016 at 13: 3:41 

     This program is part of the open-source Quantum ESPRESSO suite
     for quantum simulation of materials; please cite
         "P. Giannozzi et al., J. Phys.:Condens. Matter 21 395502 (2009);
          URL http://www.quantum-espresso.org", 
     in publications or presentations arising from this work. More details at
     http://www.quantum-espresso.org/quote

     Parallel version (MPI), running on    32 processors
     R & G space division:  proc/nbgrp/npool/nimage =      32
     Waiting for input...
     Reading input from standard input
Warning: card    &IONS ignored
Warning: card TRUST_RADIUS_MAX=0.2 ignored
Warning: card / ignored
Warning: card     &CELL ignored
Warning: card CELL_DYNAMICS='BFGS' ignored
Warning: card / ignored

     Current dimensions of program PWSCF are:
     Max number of different atomic species (ntypx) = 10
     Max number of k-points (npk) =  40000
     Max angular momentum in pseudopotentials (lmaxx) =  3
               file N.pbe-n-kjpaw_psl.1.0.0.UPF: wavefunction(s)  2S renormalized
               file C.pbe-n-kjpaw_psl.1.0.0.UPF: wavefunction(s)  2S 2P renormalized
               file H.pbe-kjpaw_psl.1.0.0.UPF: wavefunction(s)  1S renormalized
               file O.pbe-n-kjpaw_psl.1.0.0.UPF: wavefunction(s)  2S 2P renormalized

     Subspace diagonalization in iterative solution of the eigenvalue problem:
     a serial algorithm will be used


     Parallelization info
     --------------------
     sticks:   dense  smooth     PW     G-vecs:    dense   smooth      PW
     Min        1016     407    106               117047    29591    3978
     Max        1017     408    107               117053    29636    3982
     Sum       32543   13025   3419              3745599   947643  127375


     Title: 
     HMX-scf-pbe-n-kjpaw-kp242-ec-160-nofor-nostress-conv-em4                   


     bravais-lattice index     =            0
     lattice parameter (alat)  =       1.8897  a.u.
     unit-cell volume          =    3465.5049 (a.u.)^3
     number of atoms/cell      =           56
     number of atomic types    =            4
     number of electrons       =       224.00
     number of Kohn-Sham states=          112
     kinetic-energy cutoff     =     160.0000  Ry
     charge density cutoff     =    1600.0000  Ry
     convergence threshold     =      1.0E-06
     mixing beta               =       0.7000
     number of iterations used =            8  plain     mixing
     Exchange-correlation      =  SLA  PW   PBX  PBC ( 1  4  3  4 0 0)

     celldm(1)=   1.889726  celldm(2)=   0.000000  celldm(3)=   0.000000
     celldm(4)=   0.000000  celldm(5)=   0.000000  celldm(6)=   0.000000

     crystal axes: (cart. coord. in units of alat)
               a(1) = (   6.525400   0.000000   0.000000 )  
               a(2) = (   0.000000  10.970200   0.000000 )  
               a(3) = (  -1.601165   0.000000   7.173784 )  

     reciprocal axes: (cart. coord. in units 2 pi/alat)
               b(1) = (  0.153247 -0.000000  0.034204 )  
               b(2) = (  0.000000  0.091156 -0.000000 )  
               b(3) = (  0.000000  0.000000  0.139396 )  


     PseudoPot. # 1 for  N read from file:
     /users/majewski/.data/PSEUDOPOTENTIALS/N.pbe-n-kjpaw_psl.1.0.0.UPF
     MD5 check sum: c21df8f53e59d08c3548513d559cdda6
     Pseudo is Projector augmented-wave + core cor, Zval =  5.0
     Generated using "atomic" code by A. Dal Corso  v.5.3.0 svn rev. 11974
     Shape of augmentation charge: PSQ
     Using radial grid of 1085 points,  4 beta functions with: 
                l(1) =   0
                l(2) =   0
                l(3) =   1
                l(4) =   1
     Q(r) pseudized with 0 coefficients 


     PseudoPot. # 2 for  C read from file:
     /users/majewski/.data/PSEUDOPOTENTIALS/C.pbe-n-kjpaw_psl.1.0.0.UPF
     MD5 check sum: 2ba8448e293caca687844dde9a1b88a8
     Pseudo is Projector augmented-wave + core cor, Zval =  4.0
     Generated using "atomic" code by A. Dal Corso  v.5.3.0 svn rev. 11974
     Shape of augmentation charge: PSQ
     Using radial grid of 1073 points,  4 beta functions with: 
                l(1) =   0
                l(2) =   0
                l(3) =   1
                l(4) =   1
     Q(r) pseudized with 0 coefficients 


     PseudoPot. # 3 for  H read from file:
     /users/majewski/.data/PSEUDOPOTENTIALS/H.pbe-kjpaw_psl.1.0.0.UPF
     MD5 check sum: bc0feb48a24907a0b97fa6ee2d589a29
     Pseudo is Projector augmented-wave, Zval =  1.0
     Generated using "atomic" code by A. Dal Corso  v.5.3.0 svn rev. 11974
     Shape of augmentation charge: PSQ
     Using radial grid of  929 points,  2 beta functions with: 
                l(1) =   0
                l(2) =   0
     Q(r) pseudized with 0 coefficients 


     PseudoPot. # 4 for  O read from file:
     /users/majewski/.data/PSEUDOPOTENTIALS/O.pbe-n-kjpaw_psl.1.0.0.UPF
     MD5 check sum: 9c0ade6c043cf4a781bde3908a3a8206
     Pseudo is Projector augmented-wave + core cor, Zval =  6.0
     Generated using "atomic" code by A. Dal Corso  v.5.3.0 svn rev. 11974
     Shape of augmentation charge: PSQ
     Using radial grid of 1095 points,  4 beta functions with: 
                l(1) =   0
                l(2) =   0
                l(3) =   1
                l(4) =   1
     Q(r) pseudized with 0 coefficients 


     atomic species   valence    mass     pseudopotential
        N              5.00    14.00670      N( 1.00)
        C              4.00    12.01100      C( 1.00)
        H              1.00     1.00790      H( 1.00)
        O              6.00    15.99940      O( 1.00)

      4 Sym. Ops., with inversion, found ( 2 have fractional translation)


                                    s                        frac. trans.

      isym =  1     identity                                     

 cryst.   s( 1) = (     1          0          0      )
                  (     0          1          0      )
                  (     0          0          1      )

 cart.    s( 1) = (  1.0000000  0.0000000  0.0000000 )
                  (  0.0000000  1.0000000  0.0000000 )
                  (  0.0000000  0.0000000  1.0000000 )


      isym =  2     180 deg rotation - cart. axis [0,1,0]        

 cryst.   s( 2) = (    -1          0          0      )    f =(  0.5000000 )
                  (     0          1          0      )       (  0.5000000 )
                  (     0          0         -1      )       (  0.5000000 )

 cart.    s( 2) = ( -1.0000000  0.0000000  0.0000000 )    f =(  2.4621177 )
                  (  0.0000000  1.0000000  0.0000000 )       (  5.4851000 )
                  (  0.0000000  0.0000000 -1.0000000 )       (  3.5868922 )


      isym =  3     inversion                                    

 cryst.   s( 3) = (    -1          0          0      )
                  (     0         -1          0      )
                  (     0          0         -1      )

 cart.    s( 3) = ( -1.0000000  0.0000000  0.0000000 )
                  (  0.0000000 -1.0000000  0.0000000 )
                  (  0.0000000  0.0000000 -1.0000000 )


      isym =  4     inv. 180 deg rotation - cart. axis [0,1,0]   

 cryst.   s( 4) = (     1          0          0      )    f =( -0.5000000 )
                  (     0         -1          0      )       (  0.5000000 )
                  (     0          0          1      )       ( -0.5000000 )

 cart.    s( 4) = (  1.0000000  0.0000000  0.0000000 )    f =( -2.4621177 )
                  (  0.0000000 -1.0000000  0.0000000 )       (  5.4851000 )
                  (  0.0000000  0.0000000  1.0000000 )       ( -3.5868922 )


   Cartesian axes

     site n.     atom                  positions (alat units)
         1           N   tau(   1) = (  -0.8600534   6.8323503   3.3057516  )
         2           O   tau(   2) = (   1.0740307   7.8956917   3.1284874  )
         3           N   tau(   3) = (   0.0641502   7.7134767   3.8085621  )
         4           N   tau(   4) = (  -2.0611165   5.7640722   5.0625396  )
         5           O   tau(   5) = (  -3.2546734   4.7030344   6.6181748  )
         6           N   tau(   6) = (  -3.2420076   5.5007874   5.6931153  )
         7           O   tau(   7) = (  -0.1744868   8.2015409   4.9011295  )
         8           C   tau(   8) = (  -2.1308106   6.7490864   3.9685375  )
         9           H   tau(   9) = (  -2.8209601   6.4811942   3.3272012  )
        10           H   tau(  10) = (  -2.3726867   7.6275801   4.3300962  )
        11           O   tau(  11) = (  -4.2139476   6.1474807   5.2942529  )
        12           C   tau(  12) = (  -0.5939543   6.2077071   2.0208551  )
        13           H   tau(  13) = (  -1.4110814   5.7834894   1.7145345  )
        14           H   tau(  14) = (  -0.3209154   6.8519869   1.3501062  )
        15           H   tau(  15) = (   2.1412023  -1.3668869   4.9369984  )
        16           H   tau(  16) = (   1.0510363  -0.2983894   5.3014266  )
        17           C   tau(  17) = (   1.8681633  -0.7226071   5.6077472  )
        18           O   tau(  18) = (  -1.7518299  -0.6623807   8.8811450  )
        19           H   tau(  19) = (   0.0894310  -2.1424801   7.9169884  )
        20           H   tau(  20) = (  -0.3588424  -0.9960942   6.9140934  )
        21           C   tau(  21) = (   0.3313071  -1.2639864   7.5554297  )
        22           O   tau(  22) = (   2.2876309  -2.7164409   8.4880216  )
        23           N   tau(  23) = (  -0.7798899  -0.0156874   9.2800074  )
        24           O   tau(  24) = (  -0.7925557   0.7820656  10.2050669  )
        25           N   tau(  25) = (   0.4010012  -0.2789722   8.6494318  )
        26           N   tau(  26) = (   2.5262679  -2.2283767   7.3954543  )
        27           O   tau(  27) = (   3.5361484  -2.4105917   6.7153795  )
        28           N   tau(  28) = (   1.6020643  -1.3472503   6.8926437  )
        29           H   tau(  29) = (  -1.2802493   4.1182131   5.8236781  )
        30           H   tau(  30) = (  -0.1900832   5.1867106   5.4592499  )
        31           C   tau(  31) = (  -1.0072103   4.7624929   5.1529293  )
        32           O   tau(  32) = (   2.6127830   4.8227193   1.8795315  )
        33           H   tau(  33) = (   0.7715220   3.3426199   2.8436881  )
        34           H   tau(  34) = (   1.2197954   4.4890058   3.8465832  )
        35           C   tau(  35) = (   0.5296460   4.2211136   3.2052468  )
        36           O   tau(  36) = (  -1.4266778   2.7686591   2.2726549  )
        37           N   tau(  37) = (   1.6408430   5.4694126   1.4806691  )
        38           O   tau(  38) = (   1.6535088   6.2671656   0.5556096  )
        39           N   tau(  39) = (   0.4599518   5.2061278   2.1112447  )
        40           N   tau(  40) = (  -1.6653149   3.2567233   3.3652222  )
        41           O   tau(  41) = (  -2.6751954   3.0745083   4.0452970  )
        42           N   tau(  42) = (  -0.7411112   4.1378497   3.8680328  )
        43           H   tau(  43) = (   1.1818684   1.3668869   9.4105703  )
        44           H   tau(  44) = (   2.2720344   0.2983894   9.0461421  )
        45           C   tau(  45) = (   1.4549074   0.7226071   8.7398215  )
        46           O   tau(  46) = (   5.0749007   0.6623807   5.4664237  )
        47           H   tau(  47) = (   3.2336397   2.1424801   6.4305803  )
        48           H   tau(  48) = (   3.6819131   0.9960942   7.4334753  )
        49           C   tau(  49) = (   2.9917636   1.2639864   6.7921390  )
        50           O   tau(  50) = (   1.0354399   2.7164409   5.8595471  )
        51           N   tau(  51) = (   4.1029606   0.0156874   5.0675613  )
        52           O   tau(  52) = (   4.1156264  -0.7820656   4.1425018  )
        53           N   tau(  53) = (   2.9220695   0.2789722   5.6981369  )
        54           N   tau(  54) = (   0.7968028   2.2283767   6.9521144  )
        55           O   tau(  55) = (  -0.2130777   2.4105917   7.6321892  )
        56           N   tau(  56) = (   1.7210065   1.3472503   7.4549250  )

   Crystallographic axes

     site n.     atom                  positions (cryst. coord.)
         1           N   tau(   1) = ( -0.0187300  0.6228100  0.4608100  )
         2           O   tau(   2) = (  0.2716000  0.7197400  0.4361000  )
         3           N   tau(   3) = (  0.1401000  0.7031300  0.5309000  )
         4           N   tau(   4) = ( -0.1427000  0.5254300  0.7057000  )
         5           O   tau(   5) = ( -0.2724000  0.4287100  0.9225500  )
         6           N   tau(   6) = ( -0.3021000  0.5014300  0.7936000  )
         7           O   tau(   7) = (  0.1409000  0.7476200  0.6832000  )
         8           C   tau(   8) = ( -0.1908000  0.6152200  0.5532000  )
         9           H   tau(   9) = ( -0.3185000  0.5908000  0.4638000  )
        10           H   tau(  10) = ( -0.2155000  0.6953000  0.6036000  )
        11           O   tau(  11) = ( -0.4646900  0.5603800  0.7380000  )
        12           C   tau(  12) = ( -0.0219000  0.5658700  0.2817000  )
        13           H   tau(  13) = ( -0.1576000  0.5272000  0.2390000  )
        14           H   tau(  14) = ( -0.0030000  0.6246000  0.1882000  )
        15           H   tau(  15) = (  0.4970000 -0.1246000  0.6882000  )
        16           H   tau(  16) = (  0.3424000 -0.0272000  0.7390000  )
        17           C   tau(  17) = (  0.4781000 -0.0658700  0.7817000  )
        18           O   tau(  18) = (  0.0353100 -0.0603800  1.2380000  )
        19           H   tau(  19) = (  0.2845000 -0.1953000  1.1036000  )
        20           H   tau(  20) = (  0.1815000 -0.0908000  0.9638000  )
        21           C   tau(  21) = (  0.3092000 -0.1152200  1.0532000  )
        22           O   tau(  22) = (  0.6409000 -0.2476200  1.1832000  )
        23           N   tau(  23) = (  0.1979000 -0.0014300  1.2936000  )
        24           O   tau(  24) = (  0.2276000  0.0712900  1.4225500  )
        25           N   tau(  25) = (  0.3573000 -0.0254300  1.2057000  )
        26           N   tau(  26) = (  0.6401000 -0.2031300  1.0309000  )
        27           O   tau(  27) = (  0.7716000 -0.2197400  0.9361000  )
        28           N   tau(  28) = (  0.4812700 -0.1228100  0.9608100  )
        29           H   tau(  29) = (  0.0030000  0.3754000  0.8118000  )
        30           H   tau(  30) = (  0.1576000  0.4728000  0.7610000  )
        31           C   tau(  31) = (  0.0219000  0.4341300  0.7183000  )
        32           O   tau(  32) = (  0.4646900  0.4396200  0.2620000  )
        33           H   tau(  33) = (  0.2155000  0.3047000  0.3964000  )
        34           H   tau(  34) = (  0.3185000  0.4092000  0.5362000  )
        35           C   tau(  35) = (  0.1908000  0.3847800  0.4468000  )
        36           O   tau(  36) = ( -0.1409000  0.2523800  0.3168000  )
        37           N   tau(  37) = (  0.3021000  0.4985700  0.2064000  )
        38           O   tau(  38) = (  0.2724000  0.5712900  0.0774500  )
        39           N   tau(  39) = (  0.1427000  0.4745700  0.2943000  )
        40           N   tau(  40) = ( -0.1401000  0.2968700  0.4691000  )
        41           O   tau(  41) = ( -0.2716000  0.2802600  0.5639000  )
        42           N   tau(  42) = (  0.0187300  0.3771900  0.5391900  )
        43           H   tau(  43) = (  0.5030000  0.1246000  1.3118000  )
        44           H   tau(  44) = (  0.6576000  0.0272000  1.2610000  )
        45           C   tau(  45) = (  0.5219000  0.0658700  1.2183000  )
        46           O   tau(  46) = (  0.9646900  0.0603800  0.7620000  )
        47           H   tau(  47) = (  0.7155000  0.1953000  0.8964000  )
        48           H   tau(  48) = (  0.8185000  0.0908000  1.0362000  )
        49           C   tau(  49) = (  0.6908000  0.1152200  0.9468000  )
        50           O   tau(  50) = (  0.3591000  0.2476200  0.8168000  )
        51           N   tau(  51) = (  0.8021000  0.0014300  0.7064000  )
        52           O   tau(  52) = (  0.7724000 -0.0712900  0.5774500  )
        53           N   tau(  53) = (  0.6427000  0.0254300  0.7943000  )
        54           N   tau(  54) = (  0.3599000  0.2031300  0.9691000  )
        55           O   tau(  55) = (  0.2284000  0.2197400  1.0639000  )
        56           N   tau(  56) = (  0.5187300  0.1228100  1.0391900  )

     number of k points=    16
                       cart. coord. in units 2pi/alat
        k(    1) = (   0.0191559   0.0113945   0.0217001), wk =   0.1250000
        k(    2) = (   0.0191559   0.0113945   0.0565492), wk =   0.1250000
        k(    3) = (   0.0191559   0.0113945  -0.0479981), wk =   0.1250000
        k(    4) = (   0.0191559   0.0113945  -0.0131490), wk =   0.1250000
        k(    5) = (   0.0191559   0.0341835   0.0217001), wk =   0.1250000
        k(    6) = (   0.0191559   0.0341835   0.0565492), wk =   0.1250000
        k(    7) = (   0.0191559   0.0341835  -0.0479981), wk =   0.1250000
        k(    8) = (   0.0191559   0.0341835  -0.0131490), wk =   0.1250000
        k(    9) = (   0.0574677   0.0113945   0.0302512), wk =   0.1250000
        k(   10) = (   0.0574677   0.0113945   0.0651003), wk =   0.1250000
        k(   11) = (   0.0574677   0.0113945  -0.0394471), wk =   0.1250000
        k(   12) = (   0.0574677   0.0113945  -0.0045979), wk =   0.1250000
        k(   13) = (   0.0574677   0.0341835   0.0302512), wk =   0.1250000
        k(   14) = (   0.0574677   0.0341835   0.0651003), wk =   0.1250000
        k(   15) = (   0.0574677   0.0341835  -0.0394471), wk =   0.1250000
        k(   16) = (   0.0574677   0.0341835  -0.0045979), wk =   0.1250000

                       cryst. coord.
        k(    1) = (   0.1250000   0.1250000   0.1250000), wk =   0.1250000
        k(    2) = (   0.1250000   0.1250000   0.3750000), wk =   0.1250000
        k(    3) = (   0.1250000   0.1250000  -0.3750000), wk =   0.1250000
        k(    4) = (   0.1250000   0.1250000  -0.1250000), wk =   0.1250000
        k(    5) = (   0.1250000   0.3750000   0.1250000), wk =   0.1250000
        k(    6) = (   0.1250000   0.3750000   0.3750000), wk =   0.1250000
        k(    7) = (   0.1250000   0.3750000  -0.3750000), wk =   0.1250000
        k(    8) = (   0.1250000   0.3750000  -0.1250000), wk =   0.1250000
        k(    9) = (   0.3750000   0.1250000   0.1250000), wk =   0.1250000
        k(   10) = (   0.3750000   0.1250000   0.3750000), wk =   0.1250000
        k(   11) = (   0.3750000   0.1250000  -0.3750000), wk =   0.1250000
        k(   12) = (   0.3750000   0.1250000  -0.1250000), wk =   0.1250000
        k(   13) = (   0.3750000   0.3750000   0.1250000), wk =   0.1250000
        k(   14) = (   0.3750000   0.3750000   0.3750000), wk =   0.1250000
        k(   15) = (   0.3750000   0.3750000  -0.3750000), wk =   0.1250000
        k(   16) = (   0.3750000   0.3750000  -0.1250000), wk =   0.1250000

     Dense  grid:  3745599 G-vectors     FFT dimensions: ( 160, 270, 180)

     Smooth grid:   947643 G-vectors     FFT dimensions: ( 100, 180, 120)

     Largest allocated arrays     est. size (Mb)     dimensions
        Kohn-Sham Wavefunctions         6.33 Mb     (    3704,  112)
        NL pseudopotentials            19.89 Mb     (    3704,  352)
        Each V/rho on FFT grid          3.96 Mb     (  259200)
        Each G-vector array             0.89 Mb     (  117048)
        G-vector shells                 0.87 Mb     (  113810)
     Largest temporary arrays     est. size (Mb)     dimensions
        Auxiliary wavefunctions        25.32 Mb     (    3704,  448)
        Each subspace H/S matrix        3.06 Mb     (     448,  448)
        Each <psi_i|beta_j> matrix      0.60 Mb     (     352,  112)
        Arrays for rho mixing          31.64 Mb     (  259200,    8)

     Initial potential from superposition of free atoms

     starting charge  223.99937, renormalised to  224.00000
     Starting wfc are  176 randomized atomic wfcs
     Checking if some PAW data can be deallocated... 
       node    0, deallocated PAW data for type:  2
       node    0, deallocated PAW data for type:  3
       node    1, deallocated PAW data for type:  2
       node    1, deallocated PAW data for type:  3
       node    1, deallocated PAW data for type:  4
       node    2, deallocated PAW data for type:  2
       node    2, deallocated PAW data for type:  3
       node    3, deallocated PAW data for type:  1
       node    3, deallocated PAW data for type:  3
       node    4, deallocated PAW data for type:  1
       node    4, deallocated PAW data for type:  2
       node    4, deallocated PAW data for type:  4
       node    5, deallocated PAW data for type:  1
       node    5, deallocated PAW data for type:  3
       node    6, deallocated PAW data for type:  1
       node    6, deallocated PAW data for type:  2
       node    6, deallocated PAW data for type:  4
       node    7, deallocated PAW data for type:  1
       node    7, deallocated PAW data for type:  2
       node    7, deallocated PAW data for type:  4
       node    8, deallocated PAW data for type:  1
       node    8, deallocated PAW data for type:  3
       node    9, deallocated PAW data for type:  1
       node    9, deallocated PAW data for type:  2
       node    9, deallocated PAW data for type:  4
       node   10, deallocated PAW data for type:  1
       node   10, deallocated PAW data for type:  3
       node   11, deallocated PAW data for type:  2
       node   11, deallocated PAW data for type:  3
       node   12, deallocated PAW data for type:  2
       node   12, deallocated PAW data for type:  3
       node   12, deallocated PAW data for type:  4
       node   13, deallocated PAW data for type:  2
       node   13, deallocated PAW data for type:  3
       node   14, deallocated PAW data for type:  1
       node   14, deallocated PAW data for type:  2
       node   14, deallocated PAW data for type:  4
       node   15, deallocated PAW data for type:  1
       node   15, deallocated PAW data for type:  3
       node   16, deallocated PAW data for type:  1
       node   16, deallocated PAW data for type:  2
       node   16, deallocated PAW data for type:  4
       node   17, deallocated PAW data for type:  1
       node   17, deallocated PAW data for type:  3
       node   18, deallocated PAW data for type:  2
       node   18, deallocated PAW data for type:  3
       node   19, deallocated PAW data for type:  2
       node   19, deallocated PAW data for type:  3
       node   19, deallocated PAW data for type:  4
       node   20, deallocated PAW data for type:  2
       node   20, deallocated PAW data for type:  3
       node   21, deallocated PAW data for type:  1
       node   21, deallocated PAW data for type:  2
       node   21, deallocated PAW data for type:  4
       node   22, deallocated PAW data for type:  1
       node   22, deallocated PAW data for type:  3
       node   23, deallocated PAW data for type:  1
       node   23, deallocated PAW data for type:  2
       node   23, deallocated PAW data for type:  4
       node   24, deallocated PAW data for type:  1
       node   24, deallocated PAW data for type:  3
       node   24, deallocated PAW data for type:  4
       node   25, deallocated PAW data for type:  1
       node   25, deallocated PAW data for type:  2
       node   25, deallocated PAW data for type:  3
       node   26, deallocated PAW data for type:  2
       node   26, deallocated PAW data for type:  3
       node   26, deallocated PAW data for type:  4
       node   27, deallocated PAW data for type:  1
       node   27, deallocated PAW data for type:  2
       node   27, deallocated PAW data for type:  3
       node   28, deallocated PAW data for type:  2
       node   28, deallocated PAW data for type:  3
       node   28, deallocated PAW data for type:  4
       node   29, deallocated PAW data for type:  2
       node   29, deallocated PAW data for type:  3
       node   29, deallocated PAW data for type:  4
       node   30, deallocated PAW data for type:  1
       node   30, deallocated PAW data for type:  2
       node   30, deallocated PAW data for type:  3
       node   31, deallocated PAW data for type:  2
       node   31, deallocated PAW data for type:  3
       node   31, deallocated PAW data for type:  4

     total cpu time spent up to now is      318.2 secs

     per-process dynamical memory:   206.2 Mb

     Self-consistent Calculation

     iteration #  1     ecut=   160.00 Ry     beta=0.70
     Davidson diagonalization with overlap
     ethr =  1.00E-02,  avg # of iterations =  3.0

     total cpu time spent up to now is     1087.8 secs

     total energy              =   -1279.64737418 Ry
     Harris-Foulkes estimate   =   -1283.98198375 Ry
     estimated scf accuracy    <       6.67786569 Ry

     iteration #  2     ecut=   160.00 Ry     beta=0.70
     Davidson diagonalization with overlap
     ethr =  2.98E-03,  avg # of iterations =  4.0

     total cpu time spent up to now is     1756.2 secs

     total energy              =   -1280.31638765 Ry
     Harris-Foulkes estimate   =   -1283.80387112 Ry
     estimated scf accuracy    <       7.03322449 Ry

     iteration #  3     ecut=   160.00 Ry     beta=0.70
     Davidson diagonalization with overlap
     ethr =  2.98E-03,  avg # of iterations =  4.6

     total cpu time spent up to now is     2224.4 secs

     total energy              =   -1281.82512850 Ry
     Harris-Foulkes estimate   =   -1282.05200787 Ry
     estimated scf accuracy    <       0.42069187 Ry

     iteration #  4     ecut=   160.00 Ry     beta=0.70
     Davidson diagonalization with overlap
     ethr =  1.88E-04,  avg # of iterations =  4.8

     total cpu time spent up to now is     2815.7 secs

     total energy              =   -1281.97328067 Ry
     Harris-Foulkes estimate   =   -1282.05832097 Ry
     estimated scf accuracy    <       0.18632962 Ry

     iteration #  5     ecut=   160.00 Ry     beta=0.70
     Davidson diagonalization with overlap
     ethr =  8.32E-05,  avg # of iterations =  4.0

     total cpu time spent up to now is     3336.4 secs

     total energy              =   -1282.01164671 Ry
     Harris-Foulkes estimate   =   -1282.02059467 Ry
     estimated scf accuracy    <       0.02223261 Ry

     iteration #  6     ecut=   160.00 Ry     beta=0.70
     Davidson diagonalization with overlap
     ethr =  9.93E-06,  avg # of iterations =  5.9

     total cpu time spent up to now is     3737.2 secs

     total energy              =   -1282.01354915 Ry
     Harris-Foulkes estimate   =   -1282.01495957 Ry
     estimated scf accuracy    <       0.00374209 Ry

     iteration #  7     ecut=   160.00 Ry     beta=0.70
     Davidson diagonalization with overlap
     ethr =  1.67E-06,  avg # of iterations =  4.8

     total cpu time spent up to now is     4361.3 secs

     total energy              =   -1282.01614158 Ry
     Harris-Foulkes estimate   =   -1282.01719827 Ry
     estimated scf accuracy    <       0.00376753 Ry

     iteration #  8     ecut=   160.00 Ry     beta=0.70
     Davidson diagonalization with overlap
     ethr =  1.67E-06,  avg # of iterations =  1.0

     total cpu time spent up to now is     4683.3 secs

     total energy              =   -1282.01515140 Ry
     Harris-Foulkes estimate   =   -1282.01620819 Ry
     estimated scf accuracy    <       0.00208413 Ry

     iteration #  9     ecut=   160.00 Ry     beta=0.70
     Davidson diagonalization with overlap
     ethr =  9.30E-07,  avg # of iterations =  5.0

     total cpu time spent up to now is     5231.7 secs

     total energy              =   -1282.01650482 Ry
     Harris-Foulkes estimate   =   -1282.01745078 Ry
     estimated scf accuracy    <       0.00512149 Ry

     iteration # 10     ecut=   160.00 Ry     beta=0.70
     Davidson diagonalization with overlap
     ethr =  9.30E-07,  avg # of iterations =  1.0

     total cpu time spent up to now is     5588.4 secs

     total energy              =   -1282.01527814 Ry
     Harris-Foulkes estimate   =   -1282.01653281 Ry
     estimated scf accuracy    <       0.00359616 Ry

     iteration # 11     ecut=   160.00 Ry     beta=0.70
     Davidson diagonalization with overlap
     ethr =  9.30E-07,  avg # of iterations =  5.0

     total cpu time spent up to now is     6109.2 secs

     total energy              =   -1282.01641743 Ry
     Harris-Foulkes estimate   =   -1282.01660069 Ry
     estimated scf accuracy    <       0.00069285 Ry

     iteration # 12     ecut=   160.00 Ry     beta=0.70
     Davidson diagonalization with overlap
     ethr =  3.09E-07,  avg # of iterations =  1.0

     total cpu time spent up to now is     6423.4 secs

     total energy              =   -1282.01625853 Ry
     Harris-Foulkes estimate   =   -1282.01642751 Ry
     estimated scf accuracy    <       0.00040050 Ry

     iteration # 13     ecut=   160.00 Ry     beta=0.70
     Davidson diagonalization with overlap
     ethr =  1.79E-07,  avg # of iterations =  5.0

     total cpu time spent up to now is     6920.2 secs

     total energy              =   -1282.01646885 Ry
     Harris-Foulkes estimate   =   -1282.01654185 Ry
     estimated scf accuracy    <       0.00037227 Ry

     iteration # 14     ecut=   160.00 Ry     beta=0.70
     Davidson diagonalization with overlap
     ethr =  1.66E-07,  avg # of iterations =  1.0

     total cpu time spent up to now is     7246.2 secs

     total energy              =   -1282.01640984 Ry
     Harris-Foulkes estimate   =   -1282.01647120 Ry
     estimated scf accuracy    <       0.00025588 Ry

     iteration # 15     ecut=   160.00 Ry     beta=0.70
     Davidson diagonalization with overlap
     ethr =  1.14E-07,  avg # of iterations =  5.1

     total cpu time spent up to now is     7653.0 secs

     total energy              =   -1282.01647840 Ry
     Harris-Foulkes estimate   =   -1282.01646932 Ry
     estimated scf accuracy    <       0.00000273 Ry

     iteration # 16     ecut=   160.00 Ry     beta=0.70
     Davidson diagonalization with overlap
     ethr =  1.22E-09,  avg # of iterations =  5.0

     total cpu time spent up to now is     8379.1 secs

     total energy              =   -1282.01646213 Ry
     Harris-Foulkes estimate   =   -1282.01649623 Ry
     estimated scf accuracy    <       0.00013363 Ry

     iteration # 17     ecut=   160.00 Ry     beta=0.70
     Davidson diagonalization with overlap
     ethr =  1.22E-09,  avg # of iterations =  5.0

     total cpu time spent up to now is     8992.0 secs

     total energy              =   -1282.01646963 Ry
     Harris-Foulkes estimate   =   -1282.01647223 Ry
     estimated scf accuracy    <       0.00001194 Ry

     iteration # 18     ecut=   160.00 Ry     beta=0.70
     Davidson diagonalization with overlap
     ethr =  1.22E-09,  avg # of iterations =  6.3

     total cpu time spent up to now is     9426.1 secs

     total energy              =   -1282.01646989 Ry
     Harris-Foulkes estimate   =   -1282.01647037 Ry
     estimated scf accuracy    <       0.00000188 Ry

     iteration # 19     ecut=   160.00 Ry     beta=0.70
     Davidson diagonalization with overlap
     ethr =  8.37E-10,  avg # of iterations =  3.9

     total cpu time spent up to now is     9803.2 secs

     End of self-consistent calculation

          k = 0.0192 0.0114 0.0217 (118444 PWs)   bands (ev):

   -23.9415 -23.9184 -23.9065 -23.8968 -23.6491 -23.6399 -23.6391 -23.6356
   -19.1680 -19.1625 -19.1555 -19.1431 -18.8482 -18.8481 -18.8437 -18.8426
   -18.2518 -18.2265 -17.2299 -17.1796 -17.0678 -17.0656 -16.0503 -16.0370
   -12.1052 -12.1020 -12.0817 -11.9633 -11.9076 -11.8331 -11.7783 -11.7582
    -8.8863  -8.8472  -8.2874  -8.2508  -7.5711  -7.5298  -7.4465  -7.4452
    -6.8631  -6.7565  -6.6085  -6.5280  -6.5110  -6.4135  -6.3517  -6.2688
    -6.1360  -6.1062  -6.0763  -5.9579  -5.9037  -5.8195  -5.7557  -5.7157
    -5.6580  -5.6373  -5.5584  -5.5175  -5.1356  -5.0206  -4.9329  -4.9229
    -4.4657  -4.4562  -4.4240  -4.3833  -4.2307  -4.1294  -3.8582  -3.8535
    -3.6977  -3.5862  -3.5331  -3.4941  -3.1650  -3.1255  -3.0539  -3.0339
    -0.8022  -0.7970  -0.3133  -0.3107  -0.2131  -0.1604  -0.1003  -0.0813
    -0.0259   0.0024   0.1686   0.2020   0.2137   0.2426   0.3718   0.3894
     0.4407   0.4569   0.6322   0.6849   0.7690   0.8153   0.8635   0.8897
     0.9124   1.0262   1.0583   1.1247   1.2121   1.3455   1.3649   1.3886

     occupation numbers 
     1.0000   1.0000   1.0000   1.0000   1.0000   1.0000   1.0000   1.0000
     1.0000   1.0000   1.0000   1.0000   1.0000   1.0000   1.0000   1.0000
     1.0000   1.0000   1.0000   1.0000   1.0000   1.0000   1.0000   1.0000
     1.0000   1.0000   1.0000   1.0000   1.0000   1.0000   1.0000   1.0000
     1.0000   1.0000   1.0000   1.0000   1.0000   1.0000   1.0000   1.0000
     1.0000   1.0000   1.0000   1.0000   1.0000   1.0000   1.0000   1.0000
     1.0000   1.0000   1.0000   1.0000   1.0000   1.0000   1.0000   1.0000
     1.0000   1.0000   1.0000   1.0000   1.0000   1.0000   1.0000   1.0000
     1.0000   1.0000   1.0000   1.0000   1.0000   1.0000   1.0000   1.0000
     1.0000   1.0000   1.0000   1.0000   1.0000   1.0000   1.0000   1.0000
     1.0000   1.0000   1.0000   1.0000   1.0000   1.0000   1.0000   1.0000
     1.0000   1.0000   1.0000   1.0000   1.0000   1.0000   1.0000   1.0000
     1.0000   1.0000   1.0000   1.0000   1.0000   1.0000   1.0000   1.0000
     1.0000   1.0000   1.0000   1.0000   1.0000   1.0000   1.0000   1.0000

          k = 0.0192 0.0114 0.0565 (118441 PWs)   bands (ev):

   -23.9333 -23.9241 -23.9028 -23.9017 -23.6506 -23.6473 -23.6359 -23.6314
   -19.1661 -19.1612 -19.1564 -19.1468 -18.8544 -18.8536 -18.8388 -18.8372
   -18.2400 -18.2398 -17.2058 -17.2033 -17.0635 -17.0610 -16.0457 -16.0440
   -12.1139 -12.1123 -12.0278 -12.0077 -11.8647 -11.8549 -11.7863 -11.7778
    -8.8667  -8.8308  -8.2689  -8.2442  -7.5849  -7.5351  -7.4274  -7.3508
    -6.9099  -6.7833  -6.5947  -6.5622  -6.5505  -6.4345  -6.3755  -6.3471
    -6.1969  -6.1629  -5.9638  -5.9106  -5.8952  -5.8280  -5.8006  -5.7619
    -5.7147  -5.6600  -5.4775  -5.4334  -5.1389  -5.0588  -4.9297  -4.8930
    -4.4236  -4.4149  -4.3711  -4.2944  -4.1559  -4.1270  -3.9731  -3.9690
    -3.6826  -3.6337  -3.4720  -3.4614  -3.1881  -3.1839  -3.0367  -3.0119
    -0.7685  -0.7344  -0.3266  -0.3154  -0.2213  -0.1896  -0.1337  -0.1116
    -0.0803  -0.0393   0.0684   0.1298   0.2342   0.2857   0.3423   0.3536
     0.5471   0.6085   0.6530   0.6964   0.7733   0.7918   0.8245   0.8741
     0.9835   1.0233   1.0946   1.1193   1.2230   1.2937   1.3708   1.3951

     occupation numbers 
     1.0000   1.0000   1.0000   1.0000   1.0000   1.0000   1.0000   1.0000
     1.0000   1.0000   1.0000   1.0000   1.0000   1.0000   1.0000   1.0000
     1.0000   1.0000   1.0000   1.0000   1.0000   1.0000   1.0000   1.0000
     1.0000   1.0000   1.0000   1.0000   1.0000   1.0000   1.0000   1.0000
     1.0000   1.0000   1.0000   1.0000   1.0000   1.0000   1.0000   1.0000
     1.0000   1.0000   1.0000   1.0000   1.0000   1.0000   1.0000   1.0000
     1.0000   1.0000   1.0000   1.0000   1.0000   1.0000   1.0000   1.0000
     1.0000   1.0000   1.0000   1.0000   1.0000   1.0000   1.0000   1.0000
     1.0000   1.0000   1.0000   1.0000   1.0000   1.0000   1.0000   1.0000
     1.0000   1.0000   1.0000   1.0000   1.0000   1.0000   1.0000   1.0000
     1.0000   1.0000   1.0000   1.0000   1.0000   1.0000   1.0000   1.0000
     1.0000   1.0000   1.0000   1.0000   1.0000   1.0000   1.0000   1.0000
     1.0000   1.0000   1.0000   1.0000   1.0000   1.0000   1.0000   1.0000
     1.0000   1.0000   1.0000   1.0000   1.0000   1.0000   1.0000   1.0000

          k = 0.0192 0.0114-0.0480 (118453 PWs)   bands (ev):

   -23.9343 -23.9234 -23.9065 -23.8975 -23.6521 -23.6490 -23.6327 -23.6314
   -19.1638 -19.1620 -19.1531 -19.1517 -18.8560 -18.8552 -18.8370 -18.8356
   -18.2517 -18.2268 -17.2277 -17.1811 -17.0661 -17.0643 -16.0495 -16.0337
   -12.1238 -12.1109 -12.0620 -11.9741 -11.8953 -11.8198 -11.7898 -11.7765
    -8.8758  -8.7921  -8.2562  -8.2533  -7.5796  -7.5642  -7.4392  -7.3251
    -6.9186  -6.8094  -6.5943  -6.5611  -6.5111  -6.4858  -6.3906  -6.3547
    -6.2140  -6.1875  -5.9693  -5.9350  -5.8279  -5.7929  -5.7862  -5.7725
    -5.7149  -5.6461  -5.4798  -5.4283  -5.1330  -5.0593  -4.9160  -4.8871
    -4.4536  -4.3863  -4.3532  -4.2965  -4.1867  -4.1449  -3.9776  -3.9279
    -3.6884  -3.6360  -3.5256  -3.4434  -3.1941  -3.1722  -3.0301  -3.0201
    -0.7034  -0.6432  -0.3157  -0.3075  -0.2775  -0.2462  -0.1713  -0.1523
    -0.0917  -0.0871   0.0346   0.1162   0.2528   0.2883   0.2984   0.3485
     0.5887   0.6725   0.6919   0.7055   0.7410   0.8346   0.8446   0.8569
     0.9760   1.0301   1.1065   1.1629   1.2295   1.2558   1.3595   1.3798

     occupation numbers 
     1.0000   1.0000   1.0000   1.0000   1.0000   1.0000   1.0000   1.0000
     1.0000   1.0000   1.0000   1.0000   1.0000   1.0000   1.0000   1.0000
     1.0000   1.0000   1.0000   1.0000   1.0000   1.0000   1.0000   1.0000
     1.0000   1.0000   1.0000   1.0000   1.0000   1.0000   1.0000   1.0000
     1.0000   1.0000   1.0000   1.0000   1.0000   1.0000   1.0000   1.0000
     1.0000   1.0000   1.0000   1.0000   1.0000   1.0000   1.0000   1.0000
     1.0000   1.0000   1.0000   1.0000   1.0000   1.0000   1.0000   1.0000
     1.0000   1.0000   1.0000   1.0000   1.0000   1.0000   1.0000   1.0000
     1.0000   1.0000   1.0000   1.0000   1.0000   1.0000   1.0000   1.0000
     1.0000   1.0000   1.0000   1.0000   1.0000   1.0000   1.0000   1.0000
     1.0000   1.0000   1.0000   1.0000   1.0000   1.0000   1.0000   1.0000
     1.0000   1.0000   1.0000   1.0000   1.0000   1.0000   1.0000   1.0000
     1.0000   1.0000   1.0000   1.0000   1.0000   1.0000   1.0000   1.0000
     1.0000   1.0000   1.0000   1.0000   1.0000   1.0000   1.0000   1.0000

          k = 0.0192 0.0114-0.0131 (118408 PWs)   bands (ev):

   -23.9420 -23.9185 -23.9077 -23.8950 -23.6515 -23.6430 -23.6354 -23.6338
   -19.1669 -19.1612 -19.1558 -19.1453 -18.8520 -18.8514 -18.8396 -18.8395
   -18.2563 -18.2207 -17.2388 -17.1702 -17.0699 -17.0693 -16.0507 -16.0302
   -12.1194 -12.1027 -12.0872 -11.9620 -11.9075 -11.8223 -11.7762 -11.7588
    -8.8974  -8.8067  -8.2810  -8.2538  -7.5757  -7.5537  -7.4800  -7.3953
    -6.8311  -6.8160  -6.6054  -6.5154  -6.5089  -6.4600  -6.3587  -6.2857
    -6.1814  -6.1403  -6.0117  -5.9606  -5.8642  -5.8168  -5.7381  -5.7116
    -5.6727  -5.6257  -5.5307  -5.5218  -5.1025  -5.0570  -4.9294  -4.8931
    -4.4682  -4.4468  -4.4218  -4.3992  -4.2393  -4.1393  -3.8657  -3.8070
    -3.7326  -3.5954  -3.5458  -3.4929  -3.1708  -3.1214  -3.0468  -3.0402
    -0.7539  -0.7320  -0.3031  -0.2991  -0.2138  -0.1793  -0.1131  -0.0928
    -0.0823  -0.0442   0.0613   0.1209   0.1879   0.2650   0.3170   0.3820
     0.5609   0.5971   0.6247   0.7092   0.7589   0.8201   0.8765   0.8893
     0.9208   1.0048   1.0860   1.1529   1.2096   1.3258   1.3512   1.3761

     occupation numbers 
     1.0000   1.0000   1.0000   1.0000   1.0000   1.0000   1.0000   1.0000
     1.0000   1.0000   1.0000   1.0000   1.0000   1.0000   1.0000   1.0000
     1.0000   1.0000   1.0000   1.0000   1.0000   1.0000   1.0000   1.0000
     1.0000   1.0000   1.0000   1.0000   1.0000   1.0000   1.0000   1.0000
     1.0000   1.0000   1.0000   1.0000   1.0000   1.0000   1.0000   1.0000
     1.0000   1.0000   1.0000   1.0000   1.0000   1.0000   1.0000   1.0000
     1.0000   1.0000   1.0000   1.0000   1.0000   1.0000   1.0000   1.0000
     1.0000   1.0000   1.0000   1.0000   1.0000   1.0000   1.0000   1.0000
     1.0000   1.0000   1.0000   1.0000   1.0000   1.0000   1.0000   1.0000
     1.0000   1.0000   1.0000   1.0000   1.0000   1.0000   1.0000   1.0000
     1.0000   1.0000   1.0000   1.0000   1.0000   1.0000   1.0000   1.0000
     1.0000   1.0000   1.0000   1.0000   1.0000   1.0000   1.0000   1.0000
     1.0000   1.0000   1.0000   1.0000   1.0000   1.0000   1.0000   1.0000
     1.0000   1.0000   1.0000   1.0000   1.0000   1.0000   1.0000   1.0000

          k = 0.0192 0.0342 0.0217 (118417 PWs)   bands (ev):

   -23.9361 -23.9272 -23.9018 -23.8985 -23.6454 -23.6411 -23.6389 -23.6380
   -19.1676 -19.1660 -19.1500 -19.1455 -18.8482 -18.8481 -18.8433 -18.8429
   -18.2446 -18.2342 -17.2151 -17.1943 -17.0671 -17.0661 -16.0463 -16.0408
   -12.1050 -12.1040 -12.0564 -12.0136 -11.8693 -11.8441 -11.7726 -11.7642
    -8.8758  -8.8595  -8.2775  -8.2623  -7.5619  -7.5442  -7.4401  -7.4392
    -6.8395  -6.7923  -6.5555  -6.5229  -6.5191  -6.4633  -6.3277  -6.3010
    -6.1465  -6.1291  -6.0034  -5.9686  -5.9030  -5.8601  -5.7639  -5.7486
    -5.6230  -5.6103  -5.5378  -5.5176  -5.0910  -5.0244  -4.9769  -4.9535
    -4.4750  -4.4685  -4.3893  -4.3721  -4.2115  -4.1628  -3.8530  -3.8478
    -3.6677  -3.6182  -3.5226  -3.5035  -3.1572  -3.1416  -3.0443  -3.0369
    -0.7974  -0.7950  -0.3055  -0.2975  -0.2263  -0.1898  -0.1226  -0.1163
     0.0086   0.0181   0.1942   0.2042   0.2354   0.2413   0.3937   0.3959
     0.4156   0.4384   0.6449   0.6717   0.7536   0.7702   0.8802   0.8999
     0.9499   0.9968   1.0874   1.1127   1.2486   1.3031   1.3749   1.3823

     occupation numbers 
     1.0000   1.0000   1.0000   1.0000   1.0000   1.0000   1.0000   1.0000
     1.0000   1.0000   1.0000   1.0000   1.0000   1.0000   1.0000   1.0000
     1.0000   1.0000   1.0000   1.0000   1.0000   1.0000   1.0000   1.0000
     1.0000   1.0000   1.0000   1.0000   1.0000   1.0000   1.0000   1.0000
     1.0000   1.0000   1.0000   1.0000   1.0000   1.0000   1.0000   1.0000
     1.0000   1.0000   1.0000   1.0000   1.0000   1.0000   1.0000   1.0000
     1.0000   1.0000   1.0000   1.0000   1.0000   1.0000   1.0000   1.0000
     1.0000   1.0000   1.0000   1.0000   1.0000   1.0000   1.0000   1.0000
     1.0000   1.0000   1.0000   1.0000   1.0000   1.0000   1.0000   1.0000
     1.0000   1.0000   1.0000   1.0000   1.0000   1.0000   1.0000   1.0000
     1.0000   1.0000   1.0000   1.0000   1.0000   1.0000   1.0000   1.0000
     1.0000   1.0000   1.0000   1.0000   1.0000   1.0000   1.0000   1.0000
     1.0000   1.0000   1.0000   1.0000   1.0000   1.0000   1.0000   1.0000
     1.0000   1.0000   1.0000   1.0000   1.0000   1.0000   1.0000   1.0000

          k = 0.0192 0.0342 0.0565 (118436 PWs)   bands (ev):

   -23.9303 -23.9264 -23.9030 -23.9024 -23.6490 -23.6477 -23.6351 -23.6332
   -19.1660 -19.1645 -19.1517 -19.1483 -18.8541 -18.8538 -18.8384 -18.8377
   -18.2399 -18.2398 -17.2054 -17.2044 -17.0624 -17.0614 -16.0452 -16.0445
   -12.1130 -12.1121 -12.0246 -12.0161 -11.8582 -11.8535 -11.7857 -11.7820
    -8.8564  -8.8415  -8.2621  -8.2518  -7.5688  -7.5485  -7.4050  -7.3741
    -6.8894  -6.8427  -6.5810  -6.5708  -6.4977  -6.4490  -6.3871  -6.3680
    -6.1509  -6.1219  -5.9857  -5.9380  -5.8702  -5.8371  -5.8029  -5.7855
    -5.7012  -5.6671  -5.4833  -5.4621  -5.0752  -5.0226  -4.9785  -4.9410
    -4.4013  -4.3866  -4.3599  -4.3232  -4.1562  -4.1429  -3.9708  -3.9695
    -3.6624  -3.6414  -3.4716  -3.4664  -3.1832  -3.1794  -3.0366  -3.0246
    -0.7576  -0.7436  -0.3191  -0.3100  -0.2328  -0.2055  -0.1490  -0.1326
    -0.0540  -0.0360   0.1171   0.1378   0.2391   0.2639   0.3347   0.3463
     0.5631   0.5901   0.6647   0.6848   0.7817   0.7909   0.8291   0.8595
     0.9865   1.0071   1.1066   1.1164   1.2468   1.2755   1.3770   1.3869

     occupation numbers 
     1.0000   1.0000   1.0000   1.0000   1.0000   1.0000   1.0000   1.0000
     1.0000   1.0000   1.0000   1.0000   1.0000   1.0000   1.0000   1.0000
     1.0000   1.0000   1.0000   1.0000   1.0000   1.0000   1.0000   1.0000
     1.0000   1.0000   1.0000   1.0000   1.0000   1.0000   1.0000   1.0000
     1.0000   1.0000   1.0000   1.0000   1.0000   1.0000   1.0000   1.0000
     1.0000   1.0000   1.0000   1.0000   1.0000   1.0000   1.0000   1.0000
     1.0000   1.0000   1.0000   1.0000   1.0000   1.0000   1.0000   1.0000
     1.0000   1.0000   1.0000   1.0000   1.0000   1.0000   1.0000   1.0000
     1.0000   1.0000   1.0000   1.0000   1.0000   1.0000   1.0000   1.0000
     1.0000   1.0000   1.0000   1.0000   1.0000   1.0000   1.0000   1.0000
     1.0000   1.0000   1.0000   1.0000   1.0000   1.0000   1.0000   1.0000
     1.0000   1.0000   1.0000   1.0000   1.0000   1.0000   1.0000   1.0000
     1.0000   1.0000   1.0000   1.0000   1.0000   1.0000   1.0000   1.0000
     1.0000   1.0000   1.0000   1.0000   1.0000   1.0000   1.0000   1.0000

          k = 0.0192 0.0342-0.0480 (118459 PWs)   bands (ev):

   -23.9313 -23.9268 -23.9038 -23.9001 -23.6507 -23.6494 -23.6327 -23.6321
   -19.1642 -19.1636 -19.1516 -19.1511 -18.8557 -18.8554 -18.8366 -18.8360
   -18.2446 -18.2343 -17.2141 -17.1948 -17.0654 -17.0647 -16.0448 -16.0383
   -12.1202 -12.1149 -12.0437 -12.0106 -11.8623 -11.8344 -11.7858 -11.7801
    -8.8524  -8.8177  -8.2567  -8.2551  -7.5717  -7.5663  -7.4087  -7.3605
    -6.8854  -6.8395  -6.5985  -6.5724  -6.4971  -6.4841  -6.4182  -6.3976
    -6.1304  -6.1134  -6.0037  -5.9740  -5.8235  -5.8082  -5.7869  -5.7657
    -5.7015  -5.6671  -5.4719  -5.4446  -5.1065  -5.0550  -4.9403  -4.9072
    -4.4408  -4.4125  -4.3137  -4.2928  -4.1835  -4.1658  -3.9633  -3.9427
    -3.6656  -3.6436  -3.5024  -3.4681  -3.1823  -3.1716  -3.0359  -3.0324
    -0.6868  -0.6623  -0.3157  -0.3119  -0.2483  -0.2315  -0.1958  -0.1732
    -0.1082  -0.0970   0.0866   0.1179   0.2544   0.2705   0.3105   0.3371
     0.6130   0.6463   0.7108   0.7244   0.7386   0.7856   0.8523   0.8574
     0.9914   1.0091   1.1310   1.1523   1.2350   1.2466   1.3650   1.3738

     occupation numbers 
     1.0000   1.0000   1.0000   1.0000   1.0000   1.0000   1.0000   1.0000
     1.0000   1.0000   1.0000   1.0000   1.0000   1.0000   1.0000   1.0000
     1.0000   1.0000   1.0000   1.0000   1.0000   1.0000   1.0000   1.0000
     1.0000   1.0000   1.0000   1.0000   1.0000   1.0000   1.0000   1.0000
     1.0000   1.0000   1.0000   1.0000   1.0000   1.0000   1.0000   1.0000
     1.0000   1.0000   1.0000   1.0000   1.0000   1.0000   1.0000   1.0000
     1.0000   1.0000   1.0000   1.0000   1.0000   1.0000   1.0000   1.0000
     1.0000   1.0000   1.0000   1.0000   1.0000   1.0000   1.0000   1.0000
     1.0000   1.0000   1.0000   1.0000   1.0000   1.0000   1.0000   1.0000
     1.0000   1.0000   1.0000   1.0000   1.0000   1.0000   1.0000   1.0000
     1.0000   1.0000   1.0000   1.0000   1.0000   1.0000   1.0000   1.0000
     1.0000   1.0000   1.0000   1.0000   1.0000   1.0000   1.0000   1.0000
     1.0000   1.0000   1.0000   1.0000   1.0000   1.0000   1.0000   1.0000
     1.0000   1.0000   1.0000   1.0000   1.0000   1.0000   1.0000   1.0000

          k = 0.0192 0.0342-0.0131 (118405 PWs)   bands (ev):

   -23.9366 -23.9278 -23.9017 -23.8973 -23.6484 -23.6448 -23.6354 -23.6348
   -19.1666 -19.1649 -19.1507 -19.1470 -18.8518 -18.8516 -18.8395 -18.8395
   -18.2463 -18.2316 -17.2184 -17.1900 -17.0699 -17.0696 -16.0445 -16.0360
   -12.1141 -12.1085 -12.0619 -12.0171 -11.8644 -11.8359 -11.7707 -11.7634
    -8.8725  -8.8350  -8.2747  -8.2635  -7.5695  -7.5595  -7.4521  -7.4182
    -6.8066  -6.7915  -6.5942  -6.5453  -6.5107  -6.4844  -6.3767  -6.3439
    -6.1228  -6.1028  -6.0177  -5.9878  -5.8580  -5.8340  -5.7422  -5.7404
    -5.6268  -5.6130  -5.5213  -5.5128  -5.0992  -5.0691  -4.9370  -4.9149
    -4.4796  -4.4739  -4.3934  -4.3725  -4.2212  -4.1725  -3.8467  -3.8225
    -3.6830  -3.6248  -3.5337  -3.5107  -3.1599  -3.1398  -3.0431  -3.0408
    -0.7444  -0.7352  -0.2960  -0.2884  -0.2262  -0.1913  -0.1273  -0.1167
    -0.0778  -0.0579   0.0932   0.1217   0.2103   0.2457   0.3519   0.3799
     0.5711   0.5949   0.6356   0.6882   0.7384   0.7729   0.8920   0.8939
     0.9570   0.9883   1.1167   1.1433   1.2357   1.2855   1.3609   1.3683

     occupation numbers 
     1.0000   1.0000   1.0000   1.0000   1.0000   1.0000   1.0000   1.0000
     1.0000   1.0000   1.0000   1.0000   1.0000   1.0000   1.0000   1.0000
     1.0000   1.0000   1.0000   1.0000   1.0000   1.0000   1.0000   1.0000
     1.0000   1.0000   1.0000   1.0000   1.0000   1.0000   1.0000   1.0000
     1.0000   1.0000   1.0000   1.0000   1.0000   1.0000   1.0000   1.0000
     1.0000   1.0000   1.0000   1.0000   1.0000   1.0000   1.0000   1.0000
     1.0000   1.0000   1.0000   1.0000   1.0000   1.0000   1.0000   1.0000
     1.0000   1.0000   1.0000   1.0000   1.0000   1.0000   1.0000   1.0000
     1.0000   1.0000   1.0000   1.0000   1.0000   1.0000   1.0000   1.0000
     1.0000   1.0000   1.0000   1.0000   1.0000   1.0000   1.0000   1.0000
     1.0000   1.0000   1.0000   1.0000   1.0000   1.0000   1.0000   1.0000
     1.0000   1.0000   1.0000   1.0000   1.0000   1.0000   1.0000   1.0000
     1.0000   1.0000   1.0000   1.0000   1.0000   1.0000   1.0000   1.0000
     1.0000   1.0000   1.0000   1.0000   1.0000   1.0000   1.0000   1.0000

          k = 0.0575 0.0114 0.0303 (118444 PWs)   bands (ev):

   -23.9307 -23.9209 -23.9034 -23.9028 -23.6476 -23.6445 -23.6403 -23.6356
   -19.1658 -19.1615 -19.1571 -19.1476 -18.8509 -18.8497 -18.8420 -18.8408
   -18.2462 -18.2461 -17.2035 -17.2013 -17.0680 -17.0660 -16.0465 -16.0445
   -12.1025 -12.1020 -11.9988 -11.9790 -11.8374 -11.8223 -11.7875 -11.7723
    -8.8862  -8.8529  -8.2869  -8.2647  -7.5622  -7.5366  -7.5153  -7.4572
    -6.9832  -6.9101  -6.6744  -6.5492  -6.4782  -6.4389  -6.2633  -6.2276
    -6.2037  -6.1538  -6.0195  -5.9503  -5.8943  -5.8436  -5.7639  -5.7432
    -5.6560  -5.6105  -5.5543  -5.5399  -5.1497  -5.0384  -4.9189  -4.9110
    -4.4538  -4.4324  -4.3890  -4.3375  -4.0428  -3.9875  -3.8093  -3.7814
    -3.7351  -3.6392  -3.5885  -3.5808  -3.1610  -3.1557  -3.0545  -3.0245
    -0.7575  -0.7430  -0.2955  -0.2923  -0.2032  -0.1835  -0.1220  -0.0982
    -0.0658  -0.0370   0.1100   0.1245   0.2044   0.2198   0.3501   0.3727
     0.5773   0.5850   0.6533   0.7055   0.7797   0.7868   0.8640   0.8782
     0.9363   0.9845   1.0115   1.0615   1.2873   1.3174   1.3512   1.3884

     occupation numbers 
     1.0000   1.0000   1.0000   1.0000   1.0000   1.0000   1.0000   1.0000
     1.0000   1.0000   1.0000   1.0000   1.0000   1.0000   1.0000   1.0000
     1.0000   1.0000   1.0000   1.0000   1.0000   1.0000   1.0000   1.0000
     1.0000   1.0000   1.0000   1.0000   1.0000   1.0000   1.0000   1.0000
     1.0000   1.0000   1.0000   1.0000   1.0000   1.0000   1.0000   1.0000
     1.0000   1.0000   1.0000   1.0000   1.0000   1.0000   1.0000   1.0000
     1.0000   1.0000   1.0000   1.0000   1.0000   1.0000   1.0000   1.0000
     1.0000   1.0000   1.0000   1.0000   1.0000   1.0000   1.0000   1.0000
     1.0000   1.0000   1.0000   1.0000   1.0000   1.0000   1.0000   1.0000
     1.0000   1.0000   1.0000   1.0000   1.0000   1.0000   1.0000   1.0000
     1.0000   1.0000   1.0000   1.0000   1.0000   1.0000   1.0000   1.0000
     1.0000   1.0000   1.0000   1.0000   1.0000   1.0000   1.0000   1.0000
     1.0000   1.0000   1.0000   1.0000   1.0000   1.0000   1.0000   1.0000
     1.0000   1.0000   1.0000   1.0000   1.0000   1.0000   1.0000   1.0000

          k = 0.0575 0.0114 0.0651 (118491 PWs)   bands (ev):

   -23.9266 -23.9237 -23.9073 -23.8991 -23.6465 -23.6463 -23.6429 -23.6334
   -19.1662 -19.1630 -19.1575 -19.1467 -18.8606 -18.8584 -18.8349 -18.8313
   -18.2608 -18.2362 -17.2235 -17.1794 -17.0585 -17.0549 -16.0621 -16.0434
   -12.1149 -12.1108 -12.0282 -11.9506 -11.8390 -11.7923 -11.7919 -11.7768
    -8.9304  -8.8080  -8.2817  -8.2452  -7.5665  -7.5410  -7.4768  -7.3418
    -7.0843  -6.8580  -6.6797  -6.5109  -6.5007  -6.4385  -6.4165  -6.3157
    -6.2602  -6.1786  -5.9902  -5.9629  -5.9160  -5.8618  -5.7954  -5.7371
    -5.6319  -5.5786  -5.5082  -5.4370  -5.1602  -4.9977  -4.9853  -4.9240
    -4.3998  -4.3851  -4.3261  -4.2827  -4.0002  -3.9620  -3.9095  -3.8709
    -3.7637  -3.6674  -3.5980  -3.5049  -3.2029  -3.1762  -3.0507  -2.9931
    -0.8331  -0.7899  -0.3021  -0.2664  -0.2050  -0.1745  -0.1174  -0.0788
    -0.0305   0.0019   0.1733   0.2057   0.2242   0.2441   0.3162   0.4112
     0.4932   0.5122   0.5617   0.6715   0.7685   0.8010   0.8454   0.8757
     0.9711   1.0096   1.0245   1.0521   1.3009   1.3378   1.3562   1.4008

     occupation numbers 
     1.0000   1.0000   1.0000   1.0000   1.0000   1.0000   1.0000   1.0000
     1.0000   1.0000   1.0000   1.0000   1.0000   1.0000   1.0000   1.0000
     1.0000   1.0000   1.0000   1.0000   1.0000   1.0000   1.0000   1.0000
     1.0000   1.0000   1.0000   1.0000   1.0000   1.0000   1.0000   1.0000
     1.0000   1.0000   1.0000   1.0000   1.0000   1.0000   1.0000   1.0000
     1.0000   1.0000   1.0000   1.0000   1.0000   1.0000   1.0000   1.0000
     1.0000   1.0000   1.0000   1.0000   1.0000   1.0000   1.0000   1.0000
     1.0000   1.0000   1.0000   1.0000   1.0000   1.0000   1.0000   1.0000
     1.0000   1.0000   1.0000   1.0000   1.0000   1.0000   1.0000   1.0000
     1.0000   1.0000   1.0000   1.0000   1.0000   1.0000   1.0000   1.0000
     1.0000   1.0000   1.0000   1.0000   1.0000   1.0000   1.0000   1.0000
     1.0000   1.0000   1.0000   1.0000   1.0000   1.0000   1.0000   1.0000
     1.0000   1.0000   1.0000   1.0000   1.0000   1.0000   1.0000   1.0000
     1.0000   1.0000   1.0000   1.0000   1.0000   1.0000   1.0000   1.0000

          k = 0.0575 0.0114-0.0394 (118419 PWs)   bands (ev):

   -23.9283 -23.9225 -23.9089 -23.8969 -23.6497 -23.6486 -23.6385 -23.6322
   -19.1642 -19.1621 -19.1577 -19.1496 -18.8616 -18.8594 -18.8337 -18.8302
   -18.2654 -18.2304 -17.2335 -17.1689 -17.0613 -17.0582 -16.0617 -16.0372
   -12.1192 -12.1117 -12.0523 -11.9295 -11.8554 -11.7914 -11.7865 -11.7654
    -8.9255  -8.7837  -8.2757  -8.2467  -7.5651  -7.5462  -7.4987  -7.3294
    -7.1020  -6.8603  -6.6669  -6.5318  -6.5012  -6.4799  -6.4052  -6.3402
    -6.2644  -6.1946  -5.9781  -5.9228  -5.8847  -5.8685  -5.7957  -5.7527
    -5.6064  -5.5745  -5.5151  -5.4358  -5.1506  -5.0220  -4.9591  -4.9106
    -4.4024  -4.3640  -4.3243  -4.2989  -4.0258  -4.0026  -3.8569  -3.8496
    -3.7104  -3.6973  -3.6571  -3.5122  -3.2070  -3.1718  -3.0462  -2.9986
    -0.7908  -0.7257  -0.2948  -0.2426  -0.2185  -0.1944  -0.1242  -0.0993
    -0.0909  -0.0500   0.1049   0.1878   0.2233   0.2662   0.2833   0.3089
     0.5430   0.6162   0.6434   0.6589   0.7669   0.7951   0.8664   0.8881
     0.9614   0.9896   1.0431   1.1086   1.3168   1.3331   1.3379   1.3637

     occupation numbers 
     1.0000   1.0000   1.0000   1.0000   1.0000   1.0000   1.0000   1.0000
     1.0000   1.0000   1.0000   1.0000   1.0000   1.0000   1.0000   1.0000
     1.0000   1.0000   1.0000   1.0000   1.0000   1.0000   1.0000   1.0000
     1.0000   1.0000   1.0000   1.0000   1.0000   1.0000   1.0000   1.0000
     1.0000   1.0000   1.0000   1.0000   1.0000   1.0000   1.0000   1.0000
     1.0000   1.0000   1.0000   1.0000   1.0000   1.0000   1.0000   1.0000
     1.0000   1.0000   1.0000   1.0000   1.0000   1.0000   1.0000   1.0000
     1.0000   1.0000   1.0000   1.0000   1.0000   1.0000   1.0000   1.0000
     1.0000   1.0000   1.0000   1.0000   1.0000   1.0000   1.0000   1.0000
     1.0000   1.0000   1.0000   1.0000   1.0000   1.0000   1.0000   1.0000
     1.0000   1.0000   1.0000   1.0000   1.0000   1.0000   1.0000   1.0000
     1.0000   1.0000   1.0000   1.0000   1.0000   1.0000   1.0000   1.0000
     1.0000   1.0000   1.0000   1.0000   1.0000   1.0000   1.0000   1.0000
     1.0000   1.0000   1.0000   1.0000   1.0000   1.0000   1.0000   1.0000

          k = 0.0575 0.0114-0.0046 (118411 PWs)   bands (ev):

   -23.9316 -23.9206 -23.9073 -23.8984 -23.6503 -23.6468 -23.6363 -23.6346
   -19.1636 -19.1618 -19.1540 -19.1528 -18.8535 -18.8524 -18.8393 -18.8381
   -18.2581 -18.2330 -17.2258 -17.1783 -17.0702 -17.0700 -16.0502 -16.0343
   -12.1076 -12.1021 -12.0400 -11.9399 -11.8640 -11.8041 -11.7768 -11.7743
    -8.8957  -8.8136  -8.2755  -8.2721  -7.5615  -7.5515  -7.5393  -7.4350
    -6.9985  -6.9083  -6.6302  -6.6057  -6.4736  -6.4699  -6.2983  -6.2664
    -6.1852  -6.1802  -5.9598  -5.9249  -5.8593  -5.8266  -5.7787  -5.7702
    -5.6307  -5.6169  -5.5500  -5.5401  -5.1090  -5.0898  -4.8983  -4.8911
    -4.4555  -4.4296  -4.3799  -4.3492  -4.0482  -4.0139  -3.7749  -3.7680
    -3.7028  -3.6773  -3.6325  -3.5809  -3.1762  -3.1427  -3.0479  -3.0309
    -0.7032  -0.6547  -0.2993  -0.2896  -0.2119  -0.2083  -0.1765  -0.1750
    -0.0807  -0.0514   0.0642   0.1281   0.1878   0.2278   0.3228   0.3587
     0.5617   0.6279   0.7124   0.7505   0.7670   0.8100   0.8781   0.9016
     0.9333   0.9506   1.0256   1.1122   1.3042   1.3106   1.3315   1.3490

     occupation numbers 
     1.0000   1.0000   1.0000   1.0000   1.0000   1.0000   1.0000   1.0000
     1.0000   1.0000   1.0000   1.0000   1.0000   1.0000   1.0000   1.0000
     1.0000   1.0000   1.0000   1.0000   1.0000   1.0000   1.0000   1.0000
     1.0000   1.0000   1.0000   1.0000   1.0000   1.0000   1.0000   1.0000
     1.0000   1.0000   1.0000   1.0000   1.0000   1.0000   1.0000   1.0000
     1.0000   1.0000   1.0000   1.0000   1.0000   1.0000   1.0000   1.0000
     1.0000   1.0000   1.0000   1.0000   1.0000   1.0000   1.0000   1.0000
     1.0000   1.0000   1.0000   1.0000   1.0000   1.0000   1.0000   1.0000
     1.0000   1.0000   1.0000   1.0000   1.0000   1.0000   1.0000   1.0000
     1.0000   1.0000   1.0000   1.0000   1.0000   1.0000   1.0000   1.0000
     1.0000   1.0000   1.0000   1.0000   1.0000   1.0000   1.0000   1.0000
     1.0000   1.0000   1.0000   1.0000   1.0000   1.0000   1.0000   1.0000
     1.0000   1.0000   1.0000   1.0000   1.0000   1.0000   1.0000   1.0000
     1.0000   1.0000   1.0000   1.0000   1.0000   1.0000   1.0000   1.0000

          k = 0.0575 0.0342 0.0303 (118482 PWs)   bands (ev):

   -23.9276 -23.9235 -23.9037 -23.9033 -23.6456 -23.6445 -23.6399 -23.6378
   -19.1657 -19.1646 -19.1525 -19.1492 -18.8505 -18.8500 -18.8417 -18.8412
   -18.2462 -18.2462 -17.2030 -17.2021 -17.0672 -17.0664 -16.0459 -16.0451
   -12.1024 -12.1022 -11.9916 -11.9832 -11.8349 -11.8284 -11.7830 -11.7766
    -8.8764  -8.8625  -8.2773  -8.2679  -7.5545  -7.5446  -7.5011  -7.4768
    -6.9850  -6.9601  -6.5983  -6.5550  -6.4607  -6.4355  -6.2914  -6.2568
    -6.1921  -6.1641  -5.9903  -5.9614  -5.8851  -5.8589  -5.7641  -5.7434
    -5.6365  -5.6229  -5.5489  -5.5413  -5.1198  -5.0738  -4.9220  -4.9177
    -4.4468  -4.4346  -4.3770  -4.3566  -4.0192  -3.9945  -3.7981  -3.7820
    -3.7158  -3.6724  -3.5877  -3.5809  -3.1591  -3.1562  -3.0497  -3.0365
    -0.7497  -0.7437  -0.2863  -0.2792  -0.2388  -0.2201  -0.1020  -0.0812
    -0.0617  -0.0460   0.1217   0.1377   0.2099   0.2241   0.3498   0.3606
     0.5998   0.6065   0.6340   0.6629   0.7792   0.7866   0.8708   0.8902
     0.9485   0.9788   1.0155   1.0393   1.2968   1.3090   1.3628   1.3779

     occupation numbers 
     1.0000   1.0000   1.0000   1.0000   1.0000   1.0000   1.0000   1.0000
     1.0000   1.0000   1.0000   1.0000   1.0000   1.0000   1.0000   1.0000
     1.0000   1.0000   1.0000   1.0000   1.0000   1.0000   1.0000   1.0000
     1.0000   1.0000   1.0000   1.0000   1.0000   1.0000   1.0000   1.0000
     1.0000   1.0000   1.0000   1.0000   1.0000   1.0000   1.0000   1.0000
     1.0000   1.0000   1.0000   1.0000   1.0000   1.0000   1.0000   1.0000
     1.0000   1.0000   1.0000   1.0000   1.0000   1.0000   1.0000   1.0000
     1.0000   1.0000   1.0000   1.0000   1.0000   1.0000   1.0000   1.0000
     1.0000   1.0000   1.0000   1.0000   1.0000   1.0000   1.0000   1.0000
     1.0000   1.0000   1.0000   1.0000   1.0000   1.0000   1.0000   1.0000
     1.0000   1.0000   1.0000   1.0000   1.0000   1.0000   1.0000   1.0000
     1.0000   1.0000   1.0000   1.0000   1.0000   1.0000   1.0000   1.0000
     1.0000   1.0000   1.0000   1.0000   1.0000   1.0000   1.0000   1.0000
     1.0000   1.0000   1.0000   1.0000   1.0000   1.0000   1.0000   1.0000

          k = 0.0575 0.0342 0.0651 (118463 PWs)   bands (ev):

   -23.9253 -23.9242 -23.9054 -23.9020 -23.6464 -23.6462 -23.6402 -23.6362
   -19.1665 -19.1657 -19.1526 -19.1486 -18.8599 -18.8590 -18.8339 -18.8324
   -18.2538 -18.2436 -17.2106 -17.1923 -17.0574 -17.0559 -16.0565 -16.0487
   -12.1158 -12.1140 -12.0050 -11.9738 -11.8229 -11.8039 -11.7880 -11.7816
    -8.8958  -8.8453  -8.2695  -8.2543  -7.5432  -7.5302  -7.4645  -7.4027
    -7.0420  -6.9623  -6.5816  -6.5276  -6.4892  -6.4679  -6.3739  -6.3188
    -6.2451  -6.1945  -5.9696  -5.9519  -5.9121  -5.8899  -5.8078  -5.7706
    -5.6223  -5.6012  -5.4784  -5.4495  -5.1222  -5.0540  -4.9653  -4.9392
    -4.3849  -4.3652  -4.3224  -4.2884  -3.9866  -3.9716  -3.9015  -3.8857
    -3.7416  -3.7075  -3.5641  -3.5284  -3.1957  -3.1847  -3.0346  -3.0106
    -0.8172  -0.7995  -0.2894  -0.2735  -0.2327  -0.2229  -0.0915  -0.0800
    -0.0003   0.0110   0.1905   0.2012   0.2387   0.2507   0.3389   0.3835
     0.4785   0.4881   0.6125   0.6685   0.7469   0.7829   0.8569   0.8736
     0.9634   0.9873   1.0436   1.0591   1.3105   1.3255   1.3695   1.3876

     occupation numbers 
     1.0000   1.0000   1.0000   1.0000   1.0000   1.0000   1.0000   1.0000
     1.0000   1.0000   1.0000   1.0000   1.0000   1.0000   1.0000   1.0000
     1.0000   1.0000   1.0000   1.0000   1.0000   1.0000   1.0000   1.0000
     1.0000   1.0000   1.0000   1.0000   1.0000   1.0000   1.0000   1.0000
     1.0000   1.0000   1.0000   1.0000   1.0000   1.0000   1.0000   1.0000
     1.0000   1.0000   1.0000   1.0000   1.0000   1.0000   1.0000   1.0000
     1.0000   1.0000   1.0000   1.0000   1.0000   1.0000   1.0000   1.0000
     1.0000   1.0000   1.0000   1.0000   1.0000   1.0000   1.0000   1.0000
     1.0000   1.0000   1.0000   1.0000   1.0000   1.0000   1.0000   1.0000
     1.0000   1.0000   1.0000   1.0000   1.0000   1.0000   1.0000   1.0000
     1.0000   1.0000   1.0000   1.0000   1.0000   1.0000   1.0000   1.0000
     1.0000   1.0000   1.0000   1.0000   1.0000   1.0000   1.0000   1.0000
     1.0000   1.0000   1.0000   1.0000   1.0000   1.0000   1.0000   1.0000
     1.0000   1.0000   1.0000   1.0000   1.0000   1.0000   1.0000   1.0000

          k = 0.0575 0.0342-0.0394 (118465 PWs)   bands (ev):

   -23.9268 -23.9244 -23.9053 -23.9004 -23.6492 -23.6487 -23.6369 -23.6342
   -19.1649 -19.1646 -19.1534 -19.1506 -18.8610 -18.8601 -18.8327 -18.8313
   -18.2555 -18.2410 -17.2143 -17.1876 -17.0605 -17.0593 -16.0543 -16.0441
   -12.1199 -12.1173 -12.0199 -11.9737 -11.8246 -11.8017 -11.7815 -11.7732
    -8.8860  -8.8275  -8.2669  -8.2547  -7.5482  -7.5307  -7.4764  -7.3967
    -7.0481  -6.9606  -6.5812  -6.5417  -6.5001  -6.4794  -6.4227  -6.3671
    -6.2096  -6.1684  -5.9730  -5.9380  -5.8921  -5.8836  -5.8024  -5.7742
    -5.6036  -5.5903  -5.4776  -5.4451  -5.1359  -5.0832  -4.9333  -4.9125
    -4.4027  -4.3860  -4.2957  -4.2782  -4.0155  -4.0067  -3.8573  -3.8540
    -3.7200  -3.7140  -3.6050  -3.5488  -3.1949  -3.1794  -3.0362  -3.0159
    -0.7693  -0.7421  -0.2852  -0.2659  -0.2407  -0.2238  -0.1038  -0.0966
    -0.0619  -0.0370   0.1328   0.1642   0.2319   0.2491   0.2875   0.3115
     0.5674   0.5952   0.6697   0.6722   0.7639   0.7761   0.8512   0.8586
     0.9719   0.9895   1.0686   1.0937   1.3203   1.3284   1.3431   1.3552

     occupation numbers 
     1.0000   1.0000   1.0000   1.0000   1.0000   1.0000   1.0000   1.0000
     1.0000   1.0000   1.0000   1.0000   1.0000   1.0000   1.0000   1.0000
     1.0000   1.0000   1.0000   1.0000   1.0000   1.0000   1.0000   1.0000
     1.0000   1.0000   1.0000   1.0000   1.0000   1.0000   1.0000   1.0000
     1.0000   1.0000   1.0000   1.0000   1.0000   1.0000   1.0000   1.0000
     1.0000   1.0000   1.0000   1.0000   1.0000   1.0000   1.0000   1.0000
     1.0000   1.0000   1.0000   1.0000   1.0000   1.0000   1.0000   1.0000
     1.0000   1.0000   1.0000   1.0000   1.0000   1.0000   1.0000   1.0000
     1.0000   1.0000   1.0000   1.0000   1.0000   1.0000   1.0000   1.0000
     1.0000   1.0000   1.0000   1.0000   1.0000   1.0000   1.0000   1.0000
     1.0000   1.0000   1.0000   1.0000   1.0000   1.0000   1.0000   1.0000
     1.0000   1.0000   1.0000   1.0000   1.0000   1.0000   1.0000   1.0000
     1.0000   1.0000   1.0000   1.0000   1.0000   1.0000   1.0000   1.0000
     1.0000   1.0000   1.0000   1.0000   1.0000   1.0000   1.0000   1.0000

          k = 0.0575 0.0342-0.0046 (118444 PWs)   bands (ev):

   -23.9286 -23.9241 -23.9045 -23.9009 -23.6488 -23.6473 -23.6362 -23.6354
   -19.1640 -19.1634 -19.1526 -19.1522 -18.8531 -18.8527 -18.8389 -18.8384
   -18.2510 -18.2406 -17.2118 -17.1922 -17.0701 -17.0700 -16.0455 -16.0389
   -12.1071 -12.1052 -12.0147 -11.9761 -11.8381 -11.8156 -11.7771 -11.7751
    -8.8722  -8.8383  -8.2734  -8.2704  -7.5582  -7.5541  -7.5118  -7.4686
    -6.9864  -6.9502  -6.5917  -6.5799  -6.4609  -6.4555  -6.3537  -6.3411
    -6.1388  -6.1314  -5.9703  -5.9497  -5.8517  -5.8380  -5.7609  -5.7554
    -5.6336  -5.6197  -5.5471  -5.5440  -5.1137  -5.1031  -4.8942  -4.8922
    -4.4556  -4.4392  -4.3772  -4.3541  -4.0257  -4.0111  -3.7766  -3.7745
    -3.6792  -3.6517  -3.6484  -3.6087  -3.1651  -3.1501  -3.0488  -3.0425
    -0.6874  -0.6672  -0.2846  -0.2780  -0.2293  -0.2066  -0.1980  -0.1792
    -0.0802  -0.0595   0.0875   0.1148   0.2064   0.2261   0.3332   0.3528
     0.5926   0.6273   0.6947   0.7184   0.7737   0.8025   0.8836   0.8889
     0.9523   0.9635   1.0421   1.0819   1.3070   1.3086   1.3359   1.3437

     occupation numbers 
     1.0000   1.0000   1.0000   1.0000   1.0000   1.0000   1.0000   1.0000
     1.0000   1.0000   1.0000   1.0000   1.0000   1.0000   1.0000   1.0000
     1.0000   1.0000   1.0000   1.0000   1.0000   1.0000   1.0000   1.0000
     1.0000   1.0000   1.0000   1.0000   1.0000   1.0000   1.0000   1.0000
     1.0000   1.0000   1.0000   1.0000   1.0000   1.0000   1.0000   1.0000
     1.0000   1.0000   1.0000   1.0000   1.0000   1.0000   1.0000   1.0000
     1.0000   1.0000   1.0000   1.0000   1.0000   1.0000   1.0000   1.0000
     1.0000   1.0000   1.0000   1.0000   1.0000   1.0000   1.0000   1.0000
     1.0000   1.0000   1.0000   1.0000   1.0000   1.0000   1.0000   1.0000
     1.0000   1.0000   1.0000   1.0000   1.0000   1.0000   1.0000   1.0000
     1.0000   1.0000   1.0000   1.0000   1.0000   1.0000   1.0000   1.0000
     1.0000   1.0000   1.0000   1.0000   1.0000   1.0000   1.0000   1.0000
     1.0000   1.0000   1.0000   1.0000   1.0000   1.0000   1.0000   1.0000
     1.0000   1.0000   1.0000   1.0000   1.0000   1.0000   1.0000   1.0000

     highest occupied level (ev):     1.4008

!    total energy              =   -1282.01646949 Ry
     Harris-Foulkes estimate   =   -1282.01647005 Ry
     estimated scf accuracy    <       0.00000062 Ry

     total all-electron energy =     -4786.460217 Ry

     The total energy is the sum of the following terms:

     one-electron contribution =    -643.01871207 Ry
     hartree contribution      =     419.77491625 Ry
     xc contribution           =    -260.28452452 Ry
     ewald contribution        =    -468.09466675 Ry
     one-center paw contrib.   =    -330.39348241 Ry

     convergence has been achieved in  19 iterations

     Writing output data file scf.pbe-ec-160-kp444.HMX-792829-nofor.nostress.save

     init_run     :    250.43s CPU    316.09s WALL (       1 calls)
     electrons    :   7596.15s CPU   9488.13s WALL (       1 calls)

     Called by init_run:
     wfcinit      :    160.59s CPU    200.56s WALL (       1 calls)
     potinit      :     28.75s CPU     30.87s WALL (       1 calls)

     Called by electrons:
     c_bands      :   6362.19s CPU   7695.64s WALL (      19 calls)
     sum_band     :   1077.37s CPU   1467.72s WALL (      19 calls)
     v_of_rho     :     30.20s CPU     33.75s WALL (      20 calls)
     v_h          :      2.66s CPU      2.97s WALL (      20 calls)
     v_xc         :     27.53s CPU     30.77s WALL (      20 calls)
     newd         :     82.05s CPU    239.15s WALL (      20 calls)
     PAW_pot      :      6.29s CPU     10.32s WALL (      20 calls)
     mix_rho      :     24.31s CPU     30.25s WALL (      19 calls)

     Called by c_bands:
     init_us_2    :     54.49s CPU     55.03s WALL (     624 calls)
     cegterg      :   6095.71s CPU   7347.29s WALL (     304 calls)

     Called by sum_band:
     sum_band:bec :      0.48s CPU      0.48s WALL (     304 calls)
     addusdens    :     59.47s CPU    297.11s WALL (      19 calls)

     Called by *egterg:
     h_psi        :   3741.12s CPU   4376.37s WALL (    1524 calls)
     s_psi        :    487.17s CPU    364.49s WALL (    1524 calls)
     g_psi        :      7.08s CPU      9.24s WALL (    1204 calls)
     cdiaghg      :    459.76s CPU    427.09s WALL (    1508 calls)
     cegterg:over :    614.39s CPU    780.28s WALL (    1204 calls)
     cegterg:upda :    433.53s CPU    303.45s WALL (    1204 calls)
     cegterg:last :    247.30s CPU    234.64s WALL (     336 calls)

     Called by h_psi:
     h_psi:vloc   :   2473.07s CPU   3003.15s WALL (    1524 calls)
     h_psi:vnl    :   1201.65s CPU   1305.83s WALL (    1524 calls)
     add_vuspsi   :    518.80s CPU    503.45s WALL (    1524 calls)

     General routines
     calbec       :    876.09s CPU   1011.58s WALL (    1828 calls)
     fft          :     30.53s CPU     50.67s WALL (     316 calls)
     ffts         :      2.03s CPU      5.09s WALL (      39 calls)
     fftw         :   1979.33s CPU   2644.02s WALL (  242052 calls)
     interpolate  :     14.44s CPU     19.19s WALL (      39 calls)
     davcio       :      0.46s CPU     92.68s WALL (      16 calls)

     Parallel routines
     fft_scatter  :    837.49s CPU   1535.14s WALL (  242407 calls)

     PAW routines
     PAW_pot      :      6.29s CPU     10.32s WALL (      20 calls)
     PAW_symme    :      0.06s CPU      0.15s WALL (      39 calls)

     PWSCF        :     2h10m CPU        2h45m WALL


   This run was terminated on:  15:48:59  25Jun2016            

=------------------------------------------------------------------------------=
   JOB DONE.
=------------------------------------------------------------------------------=
