
     Program PWSCF v.5.3.0 (svn rev. 11974) starts on 25Jun2016 at  7:20:41 

     This program is part of the open-source Quantum ESPRESSO suite
     for quantum simulation of materials; please cite
         "P. Giannozzi et al., J. Phys.:Condens. Matter 21 395502 (2009);
          URL http://www.quantum-espresso.org", 
     in publications or presentations arising from this work. More details at
     http://www.quantum-espresso.org/quote

     Parallel version (MPI), running on     8 processors
     R & G space division:  proc/nbgrp/npool/nimage =       8
     Waiting for input...
     Reading input from standard input
Warning: card    &IONS ignored
Warning: card TRUST_RADIUS_MAX=0.2 ignored
Warning: card / ignored
Warning: card     &CELL ignored
Warning: card CELL_DYNAMICS='BFGS' ignored
Warning: card / ignored

     Current dimensions of program PWSCF are:
     Max number of different atomic species (ntypx) = 10
     Max number of k-points (npk) =  40000
     Max angular momentum in pseudopotentials (lmaxx) =  3
               file N.pbe-n-kjpaw_psl.1.0.0.UPF: wavefunction(s)  2S renormalized
               file C.pbe-n-kjpaw_psl.1.0.0.UPF: wavefunction(s)  2S 2P renormalized
               file H.pbe-kjpaw_psl.1.0.0.UPF: wavefunction(s)  1S renormalized
               file O.pbe-n-kjpaw_psl.1.0.0.UPF: wavefunction(s)  2S 2P renormalized

     Subspace diagonalization in iterative solution of the eigenvalue problem:
     a serial algorithm will be used


     Parallelization info
     --------------------
     sticks:   dense  smooth     PW     G-vecs:    dense   smooth      PW
     Min        1516     608    163               106728    27003    3799
     Max        1517     609    164               106730    27028    3801
     Sum       12133    4865   1311               853833   216125   30401


     Title: 
     HMX-scf--kp-444-ec-60-default-conv-thr                                     


     bravais-lattice index     =            0
     lattice parameter (alat)  =       1.8897  a.u.
     unit-cell volume          =    3441.1511 (a.u.)^3
     number of atoms/cell      =           56
     number of atomic types    =            4
     number of electrons       =       224.00
     number of Kohn-Sham states=          112
     kinetic-energy cutoff     =      60.0000  Ry
     charge density cutoff     =     600.0000  Ry
     convergence threshold     =      1.0E-06
     mixing beta               =       0.7000
     number of iterations used =            8  plain     mixing
     Exchange-correlation      =  SLA  PW   PBX  PBC ( 1  4  3  4 0 0)

     celldm(1)=   1.889726  celldm(2)=   0.000000  celldm(3)=   0.000000
     celldm(4)=   0.000000  celldm(5)=   0.000000  celldm(6)=   0.000000

     crystal axes: (cart. coord. in units of alat)
               a(1) = (   6.520600   0.000000   0.000000 )  
               a(2) = (   0.000000  10.912300   0.000000 )  
               a(3) = (  -1.584431   0.000000   7.166438 )  

     reciprocal axes: (cart. coord. in units 2 pi/alat)
               b(1) = (  0.153360 -0.000000  0.033906 )  
               b(2) = (  0.000000  0.091640 -0.000000 )  
               b(3) = (  0.000000  0.000000  0.139539 )  


     PseudoPot. # 1 for  N read from file:
     /users/majewski/.data/PSEUDOPOTENTIALS/N.pbe-n-kjpaw_psl.1.0.0.UPF
     MD5 check sum: c21df8f53e59d08c3548513d559cdda6
     Pseudo is Projector augmented-wave + core cor, Zval =  5.0
     Generated using "atomic" code by A. Dal Corso  v.5.3.0 svn rev. 11974
     Shape of augmentation charge: PSQ
     Using radial grid of 1085 points,  4 beta functions with: 
                l(1) =   0
                l(2) =   0
                l(3) =   1
                l(4) =   1
     Q(r) pseudized with 0 coefficients 


     PseudoPot. # 2 for  C read from file:
     /users/majewski/.data/PSEUDOPOTENTIALS/C.pbe-n-kjpaw_psl.1.0.0.UPF
     MD5 check sum: 2ba8448e293caca687844dde9a1b88a8
     Pseudo is Projector augmented-wave + core cor, Zval =  4.0
     Generated using "atomic" code by A. Dal Corso  v.5.3.0 svn rev. 11974
     Shape of augmentation charge: PSQ
     Using radial grid of 1073 points,  4 beta functions with: 
                l(1) =   0
                l(2) =   0
                l(3) =   1
                l(4) =   1
     Q(r) pseudized with 0 coefficients 


     PseudoPot. # 3 for  H read from file:
     /users/majewski/.data/PSEUDOPOTENTIALS/H.pbe-kjpaw_psl.1.0.0.UPF
     MD5 check sum: bc0feb48a24907a0b97fa6ee2d589a29
     Pseudo is Projector augmented-wave, Zval =  1.0
     Generated using "atomic" code by A. Dal Corso  v.5.3.0 svn rev. 11974
     Shape of augmentation charge: PSQ
     Using radial grid of  929 points,  2 beta functions with: 
                l(1) =   0
                l(2) =   0
     Q(r) pseudized with 0 coefficients 


     PseudoPot. # 4 for  O read from file:
     /users/majewski/.data/PSEUDOPOTENTIALS/O.pbe-n-kjpaw_psl.1.0.0.UPF
     MD5 check sum: 9c0ade6c043cf4a781bde3908a3a8206
     Pseudo is Projector augmented-wave + core cor, Zval =  6.0
     Generated using "atomic" code by A. Dal Corso  v.5.3.0 svn rev. 11974
     Shape of augmentation charge: PSQ
     Using radial grid of 1095 points,  4 beta functions with: 
                l(1) =   0
                l(2) =   0
                l(3) =   1
                l(4) =   1
     Q(r) pseudized with 0 coefficients 


     atomic species   valence    mass     pseudopotential
        N              5.00    14.00670      N( 1.00)
        C              4.00    12.01100      C( 1.00)
        H              1.00     1.00790      H( 1.00)
        O              6.00    15.99940      O( 1.00)

      4 Sym. Ops., with inversion, found ( 2 have fractional translation)


                                    s                        frac. trans.

      isym =  1     identity                                     

 cryst.   s( 1) = (     1          0          0      )
                  (     0          1          0      )
                  (     0          0          1      )

 cart.    s( 1) = (  1.0000000  0.0000000  0.0000000 )
                  (  0.0000000  1.0000000  0.0000000 )
                  (  0.0000000  0.0000000  1.0000000 )


      isym =  2     180 deg rotation - cart. axis [0,1,0]        

 cryst.   s( 2) = (    -1          0          0      )    f =(  0.5000000 )
                  (     0          1          0      )       (  0.5000000 )
                  (     0          0         -1      )       (  0.5000000 )

 cart.    s( 2) = ( -1.0000000  0.0000000  0.0000000 )    f =(  2.4680844 )
                  (  0.0000000  1.0000000  0.0000000 )       (  5.4561500 )
                  (  0.0000000  0.0000000 -1.0000000 )       (  3.5832191 )


      isym =  3     inversion                                    

 cryst.   s( 3) = (    -1          0          0      )
                  (     0         -1          0      )
                  (     0          0         -1      )

 cart.    s( 3) = ( -1.0000000  0.0000000  0.0000000 )
                  (  0.0000000 -1.0000000  0.0000000 )
                  (  0.0000000  0.0000000 -1.0000000 )


      isym =  4     inv. 180 deg rotation - cart. axis [0,1,0]   

 cryst.   s( 4) = (     1          0          0      )    f =( -0.5000000 )
                  (     0         -1          0      )       (  0.5000000 )
                  (     0          0          1      )       (  0.5000000 )

 cart.    s( 4) = (  1.0000000  0.0000000  0.0000000 )    f =( -4.0525156 )
                  (  0.0000000 -1.0000000  0.0000000 )       (  5.4561500 )
                  (  0.0000000  0.0000000  1.0000000 )       (  3.5832191 )


   Cartesian axes

     site n.     atom                  positions (alat units)
         1           N   tau(   1) = (  -0.8514256   6.7994541   3.2965616  )
         2           O   tau(   2) = (   1.0861733   7.8571834   3.1181173  )
         3           N   tau(   3) = (   0.0767309   7.6782216   3.7996456  )
         4           N   tau(   4) = (  -2.0523401   5.7423796   5.0623720  )
         5           O   tau(   5) = (  -3.2492170   4.6814858   6.6152675  )
         6           N   tau(   6) = (  -3.2346090   5.4771016   5.6880021  )
         7           O   tau(   7) = (  -0.1591847   8.1664380   4.8932441  )
         8           C   tau(   8) = (  -2.1226123   6.7208856   3.9616071  )
         9           H   tau(   9) = (  -2.8210125   6.4469868   3.3159110  )
        10           H   tau(  10) = (  -2.3671219   7.6102380   4.3213623  )
        11           O   tau(  11) = (  -4.2070896   6.1208182   5.2845316  )
        12           C   tau(  12) = (  -0.5868989   6.1719969   2.0116192  )
        13           H   tau(  13) = (  -1.4066974   5.7518733   1.7056123  )
        14           H   tau(  14) = (  -0.3093298   6.8136401   1.3401240  )
        15           H   tau(  15) = (   3.7431858  -1.3574901  -2.2430952  )
        16           H   tau(  16) = (   2.6458182  -0.2957233  -1.8776068  )
        17           C   tau(  17) = (   3.4656167  -0.7158469  -1.5715999  )
        18           O   tau(  18) = (  -0.1545740  -0.6646682   1.7013125  )
        19           H   tau(  19) = (   1.6853937  -2.1540880   0.7381431  )
        20           H   tau(  20) = (   1.2315032  -0.9908368  -0.2673081  )
        21           C   tau(  21) = (   1.9299033  -1.2647356   0.3783879  )
        22           O   tau(  22) = (   3.8933309  -2.7102880   1.3100249  )
        23           N   tau(  23) = (   0.8179066  -0.0209516   2.1047829  )
        24           O   tau(  24) = (   0.8032986   0.7746642   3.0320484  )
        25           N   tau(  25) = (   2.0001755  -0.2862296   1.4791529  )
        26           N   tau(  26) = (   4.1292465  -2.2220716   0.2164264  )
        27           O   tau(  27) = (   5.1386890  -2.4010334  -0.4651018  )
        28           N   tau(  28) = (   3.2010900  -1.3433041  -0.2866575  )
        29           H   tau(  29) = (  -1.2751014   4.0986599   5.8263143  )
        30           H   tau(  30) = (  -0.1777339   5.1604267   5.4608260  )
        31           C   tau(  31) = (  -0.9975323   4.7403031   5.1548191  )
        32           O   tau(  32) = (   2.6226584   4.7914818   1.8819067  )
        33           H   tau(  33) = (   0.7826907   3.3020620   2.8450760  )
        34           H   tau(  34) = (   1.2365812   4.4653132   3.8505273  )
        35           C   tau(  35) = (   0.5381811   4.1914144   3.2048312  )
        36           O   tau(  36) = (  -1.4252465   2.7458620   2.2731942  )
        37           N   tau(  37) = (   1.6501778   5.4351984   1.4784362  )
        38           O   tau(  38) = (   1.6647858   6.2308142   0.5511708  )
        39           N   tau(  39) = (   0.4679088   5.1699204   2.1040663  )
        40           N   tau(  40) = (  -1.6611622   3.2340784   3.3667927  )
        41           O   tau(  41) = (  -2.6706046   3.0551166   4.0483210  )
        42           N   tau(  42) = (  -0.7330056   4.1128459   3.8698767  )
        43           H   tau(  43) = (   2.7774142   1.3574901   2.2430952  )
        44           H   tau(  44) = (   3.8747818   0.2957233   1.8776068  )
        45           C   tau(  45) = (   3.0549833   0.7158469   1.5715999  )
        46           O   tau(  46) = (   6.6751740   0.6646682  -1.7013125  )
        47           H   tau(  47) = (   4.8352063   2.1540880  -0.7381431  )
        48           H   tau(  48) = (   5.2890968   0.9908368   0.2673081  )
        49           C   tau(  49) = (   4.5906967   1.2647356  -0.3783879  )
        50           O   tau(  50) = (   2.6272691   2.7102880  -1.3100249  )
        51           N   tau(  51) = (   5.7026934   0.0209516  -2.1047829  )
        52           O   tau(  52) = (   5.7173014  -0.7746642  -3.0320484  )
        53           N   tau(  53) = (   4.5204245   0.2862296  -1.4791529  )
        54           N   tau(  54) = (   2.3913535   2.2220716  -0.2164264  )
        55           O   tau(  55) = (   1.3819110   2.4010334   0.4651018  )
        56           N   tau(  56) = (   3.3195100   1.3433041   0.2866575  )

   Crystallographic axes

     site n.     atom                  positions (cryst. coord.)
         1           N   tau(   1) = ( -0.0188000  0.6231000  0.4600000  )
         2           O   tau(   2) = (  0.2723000  0.7200300  0.4351000  )
         3           N   tau(   3) = (  0.1406000  0.7036300  0.5302000  )
         4           N   tau(   4) = ( -0.1431000  0.5262300  0.7064000  )
         5           O   tau(   5) = ( -0.2740000  0.4290100  0.9230900  )
         6           N   tau(   6) = ( -0.3032000  0.5019200  0.7937000  )
         7           O   tau(   7) = (  0.1415000  0.7483700  0.6828000  )
         8           C   tau(   8) = ( -0.1912000  0.6159000  0.5528000  )
         9           H   tau(   9) = ( -0.3202000  0.5908000  0.4627000  )
        10           H   tau(  10) = ( -0.2165000  0.6974000  0.6030000  )
        11           O   tau(  11) = ( -0.4660200  0.5609100  0.7374000  )
        12           C   tau(  12) = ( -0.0218000  0.5656000  0.2807000  )
        13           H   tau(  13) = ( -0.1579000  0.5271000  0.2380000  )
        14           H   tau(  14) = ( -0.0020000  0.6244000  0.1870000  )
        15           H   tau(  15) = (  0.4980000 -0.1244000 -0.3130000  )
        16           H   tau(  16) = (  0.3421000 -0.0271000 -0.2620000  )
        17           C   tau(  17) = (  0.4782000 -0.0656000 -0.2193000  )
        18           O   tau(  18) = (  0.0339800 -0.0609100  0.2374000  )
        19           H   tau(  19) = (  0.2835000 -0.1974000  0.1030000  )
        20           H   tau(  20) = (  0.1798000 -0.0908000 -0.0373000  )
        21           C   tau(  21) = (  0.3088000 -0.1159000  0.0528000  )
        22           O   tau(  22) = (  0.6415000 -0.2483700  0.1828000  )
        23           N   tau(  23) = (  0.1968000 -0.0019200  0.2937000  )
        24           O   tau(  24) = (  0.2260000  0.0709900  0.4230900  )
        25           N   tau(  25) = (  0.3569000 -0.0262300  0.2064000  )
        26           N   tau(  26) = (  0.6406000 -0.2036300  0.0302000  )
        27           O   tau(  27) = (  0.7723000 -0.2200300 -0.0649000  )
        28           N   tau(  28) = (  0.4812000 -0.1231000 -0.0400000  )
        29           H   tau(  29) = (  0.0020000  0.3756000  0.8130000  )
        30           H   tau(  30) = (  0.1579000  0.4729000  0.7620000  )
        31           C   tau(  31) = (  0.0218000  0.4344000  0.7193000  )
        32           O   tau(  32) = (  0.4660200  0.4390900  0.2626000  )
        33           H   tau(  33) = (  0.2165000  0.3026000  0.3970000  )
        34           H   tau(  34) = (  0.3202000  0.4092000  0.5373000  )
        35           C   tau(  35) = (  0.1912000  0.3841000  0.4472000  )
        36           O   tau(  36) = ( -0.1415000  0.2516300  0.3172000  )
        37           N   tau(  37) = (  0.3032000  0.4980800  0.2063000  )
        38           O   tau(  38) = (  0.2740000  0.5709900  0.0769100  )
        39           N   tau(  39) = (  0.1431000  0.4737700  0.2936000  )
        40           N   tau(  40) = ( -0.1406000  0.2963700  0.4698000  )
        41           O   tau(  41) = ( -0.2723000  0.2799700  0.5649000  )
        42           N   tau(  42) = (  0.0188000  0.3769000  0.5400000  )
        43           H   tau(  43) = (  0.5020000  0.1244000  0.3130000  )
        44           H   tau(  44) = (  0.6579000  0.0271000  0.2620000  )
        45           C   tau(  45) = (  0.5218000  0.0656000  0.2193000  )
        46           O   tau(  46) = (  0.9660200  0.0609100 -0.2374000  )
        47           H   tau(  47) = (  0.7165000  0.1974000 -0.1030000  )
        48           H   tau(  48) = (  0.8202000  0.0908000  0.0373000  )
        49           C   tau(  49) = (  0.6912000  0.1159000 -0.0528000  )
        50           O   tau(  50) = (  0.3585000  0.2483700 -0.1828000  )
        51           N   tau(  51) = (  0.8032000  0.0019200 -0.2937000  )
        52           O   tau(  52) = (  0.7740000 -0.0709900 -0.4230900  )
        53           N   tau(  53) = (  0.6431000  0.0262300 -0.2064000  )
        54           N   tau(  54) = (  0.3594000  0.2036300 -0.0302000  )
        55           O   tau(  55) = (  0.2277000  0.2200300  0.0649000  )
        56           N   tau(  56) = (  0.5188000  0.1231000  0.0400000  )

     number of k points=    16
                       cart. coord. in units 2pi/alat
        k(    1) = (   0.0191700   0.0114550   0.0216807), wk =   0.1250000
        k(    2) = (   0.0191700   0.0114550   0.0565656), wk =   0.1250000
        k(    3) = (   0.0191700   0.0114550  -0.0480889), wk =   0.1250000
        k(    4) = (   0.0191700   0.0114550  -0.0132041), wk =   0.1250000
        k(    5) = (   0.0191700   0.0343649   0.0216807), wk =   0.1250000
        k(    6) = (   0.0191700   0.0343649   0.0565656), wk =   0.1250000
        k(    7) = (   0.0191700   0.0343649  -0.0480889), wk =   0.1250000
        k(    8) = (   0.0191700   0.0343649  -0.0132041), wk =   0.1250000
        k(    9) = (   0.0575100   0.0114550   0.0301573), wk =   0.1250000
        k(   10) = (   0.0575100   0.0114550   0.0650422), wk =   0.1250000
        k(   11) = (   0.0575100   0.0114550  -0.0396123), wk =   0.1250000
        k(   12) = (   0.0575100   0.0114550  -0.0047275), wk =   0.1250000
        k(   13) = (   0.0575100   0.0343649   0.0301573), wk =   0.1250000
        k(   14) = (   0.0575100   0.0343649   0.0650422), wk =   0.1250000
        k(   15) = (   0.0575100   0.0343649  -0.0396123), wk =   0.1250000
        k(   16) = (   0.0575100   0.0343649  -0.0047275), wk =   0.1250000

                       cryst. coord.
        k(    1) = (   0.1250000   0.1250000   0.1250000), wk =   0.1250000
        k(    2) = (   0.1250000   0.1250000   0.3750000), wk =   0.1250000
        k(    3) = (   0.1250000   0.1250000  -0.3750000), wk =   0.1250000
        k(    4) = (   0.1250000   0.1250000  -0.1250000), wk =   0.1250000
        k(    5) = (   0.1250000   0.3750000   0.1250000), wk =   0.1250000
        k(    6) = (   0.1250000   0.3750000   0.3750000), wk =   0.1250000
        k(    7) = (   0.1250000   0.3750000  -0.3750000), wk =   0.1250000
        k(    8) = (   0.1250000   0.3750000  -0.1250000), wk =   0.1250000
        k(    9) = (   0.3750000   0.1250000   0.1250000), wk =   0.1250000
        k(   10) = (   0.3750000   0.1250000   0.3750000), wk =   0.1250000
        k(   11) = (   0.3750000   0.1250000  -0.3750000), wk =   0.1250000
        k(   12) = (   0.3750000   0.1250000  -0.1250000), wk =   0.1250000
        k(   13) = (   0.3750000   0.3750000   0.1250000), wk =   0.1250000
        k(   14) = (   0.3750000   0.3750000   0.3750000), wk =   0.1250000
        k(   15) = (   0.3750000   0.3750000  -0.3750000), wk =   0.1250000
        k(   16) = (   0.3750000   0.3750000  -0.1250000), wk =   0.1250000

     Dense  grid:   853833 G-vectors     FFT dimensions: ( 100, 162, 120)

     Smooth grid:   216125 G-vectors     FFT dimensions: (  64, 108,  72)

     Largest allocated arrays     est. size (Mb)     dimensions
        Kohn-Sham Wavefunctions         5.79 Mb     (    3390,  112)
        NL pseudopotentials            18.21 Mb     (    3390,  352)
        Each V/rho on FFT grid          3.71 Mb     (  243000)
        Each G-vector array             0.81 Mb     (  106730)
        G-vector shells                 0.75 Mb     (   97822)
     Largest temporary arrays     est. size (Mb)     dimensions
        Auxiliary wavefunctions        23.17 Mb     (    3390,  448)
        Each subspace H/S matrix        3.06 Mb     (     448,  448)
        Each <psi_i|beta_j> matrix      0.60 Mb     (     352,  112)
        Arrays for rho mixing          29.66 Mb     (  243000,    8)

     Check: negative/imaginary core charge=   -0.000001    0.000000

     Initial potential from superposition of free atoms

     starting charge  223.99937, renormalised to  224.00000
     Starting wfc are  176 randomized atomic wfcs
     Checking if some PAW data can be deallocated... 
       node    0, deallocated PAW data for type:  2
       node    0, deallocated PAW data for type:  3
       node    1, deallocated PAW data for type:  1
       node    2, deallocated PAW data for type:  1
       node    3, deallocated PAW data for type:  2
       node    3, deallocated PAW data for type:  3
       node    4, deallocated PAW data for type:  1
       node    5, deallocated PAW data for type:  2
       node    5, deallocated PAW data for type:  3
       node    6, deallocated PAW data for type:  1
       node    7, deallocated PAW data for type:  2
       node    7, deallocated PAW data for type:  3

     total cpu time spent up to now is      183.4 secs

     per-process dynamical memory:   188.0 Mb

     Self-consistent Calculation

     iteration #  1     ecut=    60.00 Ry     beta=0.70
     Davidson diagonalization with overlap
     ethr =  1.00E-02,  avg # of iterations =  3.0

     total cpu time spent up to now is      514.3 secs

     total energy              =   -1279.45358520 Ry
     Harris-Foulkes estimate   =   -1283.85967652 Ry
     estimated scf accuracy    <       6.76382571 Ry

     iteration #  2     ecut=    60.00 Ry     beta=0.70
     Davidson diagonalization with overlap
     ethr =  3.02E-03,  avg # of iterations =  4.0

     total cpu time spent up to now is      946.3 secs

     total energy              =   -1280.23160878 Ry
     Harris-Foulkes estimate   =   -1283.93052800 Ry
     estimated scf accuracy    <       7.54395283 Ry

     iteration #  3     ecut=    60.00 Ry     beta=0.70
     Davidson diagonalization with overlap
     ethr =  3.02E-03,  avg # of iterations =  4.0

     total cpu time spent up to now is     1265.4 secs

     total energy              =   -1281.83119978 Ry
     Harris-Foulkes estimate   =   -1282.06357476 Ry
     estimated scf accuracy    <       0.42856936 Ry

     iteration #  4     ecut=    60.00 Ry     beta=0.70
     Davidson diagonalization with overlap
     ethr =  1.91E-04,  avg # of iterations =  4.8

     total cpu time spent up to now is     1743.1 secs

     total energy              =   -1281.96463207 Ry
     Harris-Foulkes estimate   =   -1282.06257306 Ry
     estimated scf accuracy    <       0.22234267 Ry

     iteration #  5     ecut=    60.00 Ry     beta=0.70
     Davidson diagonalization with overlap
     ethr =  9.93E-05,  avg # of iterations =  4.0

     total cpu time spent up to now is     2092.2 secs

     total energy              =   -1282.00920019 Ry
     Harris-Foulkes estimate   =   -1282.01649163 Ry
     estimated scf accuracy    <       0.01726653 Ry

     iteration #  6     ecut=    60.00 Ry     beta=0.70
     Davidson diagonalization with overlap
     ethr =  7.71E-06,  avg # of iterations =  5.6

     total cpu time spent up to now is     2422.0 secs

     total energy              =   -1282.01236604 Ry
     Harris-Foulkes estimate   =   -1282.01451701 Ry
     estimated scf accuracy    <       0.00516495 Ry

     iteration #  7     ecut=    60.00 Ry     beta=0.70
     Davidson diagonalization with overlap
     ethr =  2.31E-06,  avg # of iterations =  6.3

     total cpu time spent up to now is     2727.0 secs

     total energy              =   -1282.01347272 Ry
     Harris-Foulkes estimate   =   -1282.01354020 Ry
     estimated scf accuracy    <       0.00017707 Ry

     iteration #  8     ecut=    60.00 Ry     beta=0.70
     Davidson diagonalization with overlap
     ethr =  7.91E-08,  avg # of iterations =  4.9

     total cpu time spent up to now is     3222.4 secs

     total energy              =   -1282.01363188 Ry
     Harris-Foulkes estimate   =   -1282.01366965 Ry
     estimated scf accuracy    <       0.00010234 Ry

     iteration #  9     ecut=    60.00 Ry     beta=0.70
     Davidson diagonalization with overlap
     ethr =  4.57E-08,  avg # of iterations =  1.9

     total cpu time spent up to now is     3458.3 secs

     total energy              =   -1282.01362149 Ry
     Harris-Foulkes estimate   =   -1282.01363785 Ry
     estimated scf accuracy    <       0.00003229 Ry

     iteration # 10     ecut=    60.00 Ry     beta=0.70
     Davidson diagonalization with overlap
     ethr =  1.44E-08,  avg # of iterations =  4.9

     total cpu time spent up to now is     3929.3 secs

     total energy              =   -1282.01365602 Ry
     Harris-Foulkes estimate   =   -1282.01367332 Ry
     estimated scf accuracy    <       0.00011855 Ry

     iteration # 11     ecut=    60.00 Ry     beta=0.70
     Davidson diagonalization with overlap
     ethr =  1.44E-08,  avg # of iterations =  1.0

     total cpu time spent up to now is     4154.6 secs

     total energy              =   -1282.01362224 Ry
     Harris-Foulkes estimate   =   -1282.01365650 Ry
     estimated scf accuracy    <       0.00008953 Ry

     iteration # 12     ecut=    60.00 Ry     beta=0.70
     Davidson diagonalization with overlap
     ethr =  1.44E-08,  avg # of iterations =  5.0

     total cpu time spent up to now is     4596.8 secs

     total energy              =   -1282.01364898 Ry
     Harris-Foulkes estimate   =   -1282.01365173 Ry
     estimated scf accuracy    <       0.00001650 Ry

     iteration # 13     ecut=    60.00 Ry     beta=0.70
     Davidson diagonalization with overlap
     ethr =  7.37E-09,  avg # of iterations =  1.0

     total cpu time spent up to now is     4821.5 secs

     total energy              =   -1282.01364496 Ry
     Harris-Foulkes estimate   =   -1282.01364912 Ry
     estimated scf accuracy    <       0.00001185 Ry

     iteration # 14     ecut=    60.00 Ry     beta=0.70
     Davidson diagonalization with overlap
     ethr =  5.29E-09,  avg # of iterations =  5.0

     total cpu time spent up to now is     5145.0 secs

     total energy              =   -1282.01364875 Ry
     Harris-Foulkes estimate   =   -1282.01364933 Ry
     estimated scf accuracy    <       0.00000391 Ry

     iteration # 15     ecut=    60.00 Ry     beta=0.70
     Davidson diagonalization with overlap
     ethr =  1.75E-09,  avg # of iterations =  1.8

     total cpu time spent up to now is     5373.9 secs

     total energy              =   -1282.01364771 Ry
     Harris-Foulkes estimate   =   -1282.01364884 Ry
     estimated scf accuracy    <       0.00000303 Ry

     iteration # 16     ecut=    60.00 Ry     beta=0.70
     Davidson diagonalization with overlap
     ethr =  1.35E-09,  avg # of iterations =  4.0

     total cpu time spent up to now is     5710.6 secs

     End of self-consistent calculation

          k = 0.0192 0.0115 0.0217 ( 26998 PWs)   bands (ev):

   -23.8718 -23.8471 -23.8352 -23.8254 -23.5868 -23.5771 -23.5762 -23.5720
   -19.1051 -19.0997 -19.0923 -19.0797 -18.7831 -18.7829 -18.7785 -18.7773
   -18.1729 -18.1465 -17.1425 -17.0901 -17.0033 -17.0005 -15.9839 -15.9705
   -12.0104 -12.0083 -11.9990 -11.8812 -11.8235 -11.7463 -11.6892 -11.6715
    -8.8190  -8.7787  -8.2052  -8.1665  -7.4908  -7.4457  -7.3625  -7.3566
    -6.8007  -6.6897  -6.5496  -6.4466  -6.4300  -6.3509  -6.2887  -6.2009
    -6.0698  -6.0352  -6.0138  -5.8925  -5.8399  -5.7537  -5.6877  -5.6456
    -5.5837  -5.5626  -5.4880  -5.4383  -5.0739  -4.9564  -4.8621  -4.8513
    -4.3905  -4.3858  -4.3558  -4.3160  -4.1426  -4.0323  -3.7861  -3.7774
    -3.6136  -3.4863  -3.4268  -3.3831  -3.0854  -3.0509  -2.9578  -2.9393
    -0.7433  -0.7383  -0.2527  -0.2492  -0.1503  -0.1005  -0.0412  -0.0242
     0.0329   0.0654   0.2274   0.2638   0.2764   0.3080   0.4344   0.4515
     0.4986   0.5183   0.6979   0.7497   0.8368   0.8748   0.9249   0.9523
     0.9764   1.0902   1.1224   1.1894   1.2756   1.4120   1.4274   1.4545

     occupation numbers 
     1.0000   1.0000   1.0000   1.0000   1.0000   1.0000   1.0000   1.0000
     1.0000   1.0000   1.0000   1.0000   1.0000   1.0000   1.0000   1.0000
     1.0000   1.0000   1.0000   1.0000   1.0000   1.0000   1.0000   1.0000
     1.0000   1.0000   1.0000   1.0000   1.0000   1.0000   1.0000   1.0000
     1.0000   1.0000   1.0000   1.0000   1.0000   1.0000   1.0000   1.0000
     1.0000   1.0000   1.0000   1.0000   1.0000   1.0000   1.0000   1.0000
     1.0000   1.0000   1.0000   1.0000   1.0000   1.0000   1.0000   1.0000
     1.0000   1.0000   1.0000   1.0000   1.0000   1.0000   1.0000   1.0000
     1.0000   1.0000   1.0000   1.0000   1.0000   1.0000   1.0000   1.0000
     1.0000   1.0000   1.0000   1.0000   1.0000   1.0000   1.0000   1.0000
     1.0000   1.0000   1.0000   1.0000   1.0000   1.0000   1.0000   1.0000
     1.0000   1.0000   1.0000   1.0000   1.0000   1.0000   1.0000   1.0000
     1.0000   1.0000   1.0000   1.0000   1.0000   1.0000   1.0000   1.0000
     1.0000   1.0000   1.0000   1.0000   1.0000   1.0000   1.0000   1.0000

          k = 0.0192 0.0115 0.0566 ( 26996 PWs)   bands (ev):

   -23.8632 -23.8531 -23.8315 -23.8304 -23.5882 -23.5847 -23.5728 -23.5679
   -19.1032 -19.0983 -19.0934 -19.0835 -18.7896 -18.7887 -18.7732 -18.7715
   -18.1607 -18.1603 -17.1175 -17.1147 -16.9992 -16.9963 -15.9792 -15.9771
   -12.0191 -12.0147 -11.9492 -11.9282 -11.7800 -11.7679 -11.6976 -11.6892
    -8.7991  -8.7619  -8.1858  -8.1596  -7.5060  -7.4523  -7.3400  -7.2569
    -6.8480  -6.7182  -6.5305  -6.4875  -6.4795  -6.3695  -6.3132  -6.2809
    -6.1293  -6.0922  -5.9005  -5.8455  -5.8256  -5.7655  -5.7361  -5.6905
    -5.6431  -5.5838  -5.4049  -5.3559  -5.0775  -4.9969  -4.8569  -4.8191
    -4.3533  -4.3445  -4.2861  -4.2228  -4.0682  -4.0324  -3.9007  -3.9006
    -3.5932  -3.5364  -3.3646  -3.3533  -3.1140  -3.1095  -2.9401  -2.9154
    -0.7082  -0.6737  -0.2661  -0.2534  -0.1612  -0.1335  -0.0703  -0.0563
    -0.0238   0.0205   0.1289   0.1918   0.2932   0.3491   0.4037   0.4156
     0.6092   0.6739   0.7183   0.7661   0.8324   0.8547   0.8859   0.9367
     1.0483   1.0872   1.1616   1.1869   1.2853   1.3598   1.4331   1.4605

     occupation numbers 
     1.0000   1.0000   1.0000   1.0000   1.0000   1.0000   1.0000   1.0000
     1.0000   1.0000   1.0000   1.0000   1.0000   1.0000   1.0000   1.0000
     1.0000   1.0000   1.0000   1.0000   1.0000   1.0000   1.0000   1.0000
     1.0000   1.0000   1.0000   1.0000   1.0000   1.0000   1.0000   1.0000
     1.0000   1.0000   1.0000   1.0000   1.0000   1.0000   1.0000   1.0000
     1.0000   1.0000   1.0000   1.0000   1.0000   1.0000   1.0000   1.0000
     1.0000   1.0000   1.0000   1.0000   1.0000   1.0000   1.0000   1.0000
     1.0000   1.0000   1.0000   1.0000   1.0000   1.0000   1.0000   1.0000
     1.0000   1.0000   1.0000   1.0000   1.0000   1.0000   1.0000   1.0000
     1.0000   1.0000   1.0000   1.0000   1.0000   1.0000   1.0000   1.0000
     1.0000   1.0000   1.0000   1.0000   1.0000   1.0000   1.0000   1.0000
     1.0000   1.0000   1.0000   1.0000   1.0000   1.0000   1.0000   1.0000
     1.0000   1.0000   1.0000   1.0000   1.0000   1.0000   1.0000   1.0000
     1.0000   1.0000   1.0000   1.0000   1.0000   1.0000   1.0000   1.0000

          k = 0.0192 0.0115-0.0481 ( 27045 PWs)   bands (ev):

   -23.8640 -23.8527 -23.8354 -23.8261 -23.5897 -23.5864 -23.5694 -23.5681
   -19.1008 -19.0990 -19.0901 -19.0887 -18.7911 -18.7903 -18.7715 -18.7700
   -18.1726 -18.1469 -17.1400 -17.0919 -17.0017 -16.9999 -15.9829 -15.9665
   -12.0329 -12.0131 -11.9813 -11.8952 -11.8083 -11.7348 -11.6983 -11.6893
    -8.8083  -8.7219  -8.1721  -8.1693  -7.4997  -7.4837  -7.3495  -7.2323
    -6.8580  -6.7457  -6.5275  -6.4866  -6.4479  -6.4183  -6.3260  -6.2887
    -6.1478  -6.1185  -5.9031  -5.8638  -5.7654  -5.7261  -5.7216  -5.7074
    -5.6390  -5.5670  -5.4058  -5.3529  -5.0731  -4.9974  -4.8437  -4.8108
    -4.3808  -4.3111  -4.2800  -4.2238  -4.0872  -4.0672  -3.9080  -3.8524
    -3.5934  -3.5431  -3.4193  -3.3327  -3.1207  -3.0965  -2.9360  -2.9222
    -0.6400  -0.5779  -0.2545  -0.2459  -0.2252  -0.1916  -0.1120  -0.0945
    -0.0328  -0.0276   0.0958   0.1796   0.3136   0.3509   0.3581   0.4102
     0.6541   0.7335   0.7569   0.7677   0.8132   0.8965   0.9068   0.9180
     1.0401   1.0935   1.1729   1.2329   1.2909   1.3182   1.4243   1.4445

     occupation numbers 
     1.0000   1.0000   1.0000   1.0000   1.0000   1.0000   1.0000   1.0000
     1.0000   1.0000   1.0000   1.0000   1.0000   1.0000   1.0000   1.0000
     1.0000   1.0000   1.0000   1.0000   1.0000   1.0000   1.0000   1.0000
     1.0000   1.0000   1.0000   1.0000   1.0000   1.0000   1.0000   1.0000
     1.0000   1.0000   1.0000   1.0000   1.0000   1.0000   1.0000   1.0000
     1.0000   1.0000   1.0000   1.0000   1.0000   1.0000   1.0000   1.0000
     1.0000   1.0000   1.0000   1.0000   1.0000   1.0000   1.0000   1.0000
     1.0000   1.0000   1.0000   1.0000   1.0000   1.0000   1.0000   1.0000
     1.0000   1.0000   1.0000   1.0000   1.0000   1.0000   1.0000   1.0000
     1.0000   1.0000   1.0000   1.0000   1.0000   1.0000   1.0000   1.0000
     1.0000   1.0000   1.0000   1.0000   1.0000   1.0000   1.0000   1.0000
     1.0000   1.0000   1.0000   1.0000   1.0000   1.0000   1.0000   1.0000
     1.0000   1.0000   1.0000   1.0000   1.0000   1.0000   1.0000   1.0000
     1.0000   1.0000   1.0000   1.0000   1.0000   1.0000   1.0000   1.0000

          k = 0.0192 0.0115-0.0132 ( 27008 PWs)   bands (ev):

   -23.8722 -23.8474 -23.8364 -23.8236 -23.5892 -23.5800 -23.5724 -23.5704
   -19.1040 -19.0983 -19.0927 -19.0821 -18.7868 -18.7862 -18.7743 -18.7743
   -18.1775 -18.1405 -17.1517 -17.0804 -17.0055 -17.0046 -15.9843 -15.9633
   -12.0336 -12.0091 -11.9977 -11.8780 -11.8245 -11.7347 -11.6868 -11.6724
    -8.8302  -8.7367  -8.1985  -8.1695  -7.4954  -7.4709  -7.3931  -7.3086
    -6.7691  -6.7510  -6.5433  -6.4369  -6.4336  -6.3955  -6.2944  -6.2193
    -6.1168  -6.0692  -5.9459  -5.8928  -5.8001  -5.7530  -5.6708  -5.6424
    -5.5996  -5.5453  -5.4534  -5.4492  -5.0416  -4.9943  -4.8523  -4.8250
    -4.3946  -4.3788  -4.3536  -4.3279  -4.1558  -4.0410  -3.7943  -3.7360
    -3.6398  -3.4979  -3.4388  -3.3804  -3.0938  -3.0444  -2.9501  -2.9475
    -0.6932  -0.6713  -0.2415  -0.2374  -0.1528  -0.1195  -0.0577  -0.0333
    -0.0230   0.0151   0.1234   0.1829   0.2486   0.3299   0.3769   0.4438
     0.6233   0.6559   0.6918   0.7704   0.8322   0.8816   0.9392   0.9506
     0.9841   1.0672   1.1517   1.2175   1.2709   1.3908   1.4123   1.4451

     occupation numbers 
     1.0000   1.0000   1.0000   1.0000   1.0000   1.0000   1.0000   1.0000
     1.0000   1.0000   1.0000   1.0000   1.0000   1.0000   1.0000   1.0000
     1.0000   1.0000   1.0000   1.0000   1.0000   1.0000   1.0000   1.0000
     1.0000   1.0000   1.0000   1.0000   1.0000   1.0000   1.0000   1.0000
     1.0000   1.0000   1.0000   1.0000   1.0000   1.0000   1.0000   1.0000
     1.0000   1.0000   1.0000   1.0000   1.0000   1.0000   1.0000   1.0000
     1.0000   1.0000   1.0000   1.0000   1.0000   1.0000   1.0000   1.0000
     1.0000   1.0000   1.0000   1.0000   1.0000   1.0000   1.0000   1.0000
     1.0000   1.0000   1.0000   1.0000   1.0000   1.0000   1.0000   1.0000
     1.0000   1.0000   1.0000   1.0000   1.0000   1.0000   1.0000   1.0000
     1.0000   1.0000   1.0000   1.0000   1.0000   1.0000   1.0000   1.0000
     1.0000   1.0000   1.0000   1.0000   1.0000   1.0000   1.0000   1.0000
     1.0000   1.0000   1.0000   1.0000   1.0000   1.0000   1.0000   1.0000
     1.0000   1.0000   1.0000   1.0000   1.0000   1.0000   1.0000   1.0000

          k = 0.0192 0.0344 0.0217 ( 26985 PWs)   bands (ev):

   -23.8660 -23.8565 -23.8304 -23.8271 -23.5826 -23.5781 -23.5761 -23.5749
   -19.1048 -19.1032 -19.0867 -19.0821 -18.7831 -18.7830 -18.7781 -18.7776
   -18.1655 -18.1545 -17.1271 -17.1054 -17.0024 -17.0012 -15.9799 -15.9744
   -12.0106 -12.0103 -11.9734 -11.9308 -11.7852 -11.7586 -11.6838 -11.6765
    -8.8082  -8.7914  -8.1948  -8.1787  -7.4800  -7.4608  -7.3549  -7.3523
    -6.7764  -6.7276  -6.4915  -6.4439  -6.4396  -6.3985  -6.2633  -6.2362
    -6.0813  -6.0630  -5.9363  -5.9033  -5.8390  -5.7911  -5.6983  -5.6812
    -5.5470  -5.5343  -5.4648  -5.4410  -5.0264  -4.9563  -4.9110  -4.8840
    -4.4050  -4.3969  -4.3230  -4.3061  -4.1163  -4.0654  -3.7810  -3.7743
    -3.5766  -3.5210  -3.4149  -3.3947  -3.0793  -3.0654  -2.9491  -2.9422
    -0.7384  -0.7359  -0.2441  -0.2350  -0.1670  -0.1301  -0.0656  -0.0591
     0.0696   0.0806   0.2559   0.2665   0.2991   0.3060   0.4550   0.4590
     0.4738   0.5031   0.7080   0.7368   0.8153   0.8318   0.9423   0.9631
     1.0128   1.0598   1.1526   1.1778   1.3154   1.3725   1.4361   1.4443

     occupation numbers 
     1.0000   1.0000   1.0000   1.0000   1.0000   1.0000   1.0000   1.0000
     1.0000   1.0000   1.0000   1.0000   1.0000   1.0000   1.0000   1.0000
     1.0000   1.0000   1.0000   1.0000   1.0000   1.0000   1.0000   1.0000
     1.0000   1.0000   1.0000   1.0000   1.0000   1.0000   1.0000   1.0000
     1.0000   1.0000   1.0000   1.0000   1.0000   1.0000   1.0000   1.0000
     1.0000   1.0000   1.0000   1.0000   1.0000   1.0000   1.0000   1.0000
     1.0000   1.0000   1.0000   1.0000   1.0000   1.0000   1.0000   1.0000
     1.0000   1.0000   1.0000   1.0000   1.0000   1.0000   1.0000   1.0000
     1.0000   1.0000   1.0000   1.0000   1.0000   1.0000   1.0000   1.0000
     1.0000   1.0000   1.0000   1.0000   1.0000   1.0000   1.0000   1.0000
     1.0000   1.0000   1.0000   1.0000   1.0000   1.0000   1.0000   1.0000
     1.0000   1.0000   1.0000   1.0000   1.0000   1.0000   1.0000   1.0000
     1.0000   1.0000   1.0000   1.0000   1.0000   1.0000   1.0000   1.0000
     1.0000   1.0000   1.0000   1.0000   1.0000   1.0000   1.0000   1.0000

          k = 0.0192 0.0344 0.0566 ( 27016 PWs)   bands (ev):

   -23.8599 -23.8556 -23.8318 -23.8312 -23.5864 -23.5850 -23.5720 -23.5699
   -19.1031 -19.1017 -19.0885 -19.0851 -18.7893 -18.7889 -18.7727 -18.7720
   -18.1606 -18.1604 -17.1171 -17.1160 -16.9979 -16.9967 -15.9786 -15.9777
   -12.0173 -12.0152 -11.9458 -11.9368 -11.7732 -11.7675 -11.6967 -11.6931
    -8.7885  -8.7730  -8.1786  -8.1677  -7.4886  -7.4667  -7.3159  -7.2824
    -6.8273  -6.7796  -6.5117  -6.4984  -6.4297  -6.3822  -6.3228  -6.3028
    -6.0835  -6.0497  -5.9218  -5.8676  -5.8064  -5.7724  -5.7380  -5.7183
    -5.6279  -5.5913  -5.4122  -5.3888  -5.0106  -4.9586  -4.9069  -4.8678
    -4.3282  -4.3140  -4.2822  -4.2517  -4.0642  -4.0485  -3.9010  -3.9001
    -3.5706  -3.5466  -3.3633  -3.3582  -3.1089  -3.1043  -2.9408  -2.9285
    -0.6972  -0.6831  -0.2579  -0.2475  -0.1752  -0.1481  -0.0908  -0.0761
     0.0055   0.0247   0.1792   0.2005   0.2990   0.3260   0.3957   0.4080
     0.6265   0.6545   0.7310   0.7529   0.8417   0.8525   0.8927   0.9225
     1.0487   1.0691   1.1740   1.1839   1.3112   1.3413   1.4398   1.4510

     occupation numbers 
     1.0000   1.0000   1.0000   1.0000   1.0000   1.0000   1.0000   1.0000
     1.0000   1.0000   1.0000   1.0000   1.0000   1.0000   1.0000   1.0000
     1.0000   1.0000   1.0000   1.0000   1.0000   1.0000   1.0000   1.0000
     1.0000   1.0000   1.0000   1.0000   1.0000   1.0000   1.0000   1.0000
     1.0000   1.0000   1.0000   1.0000   1.0000   1.0000   1.0000   1.0000
     1.0000   1.0000   1.0000   1.0000   1.0000   1.0000   1.0000   1.0000
     1.0000   1.0000   1.0000   1.0000   1.0000   1.0000   1.0000   1.0000
     1.0000   1.0000   1.0000   1.0000   1.0000   1.0000   1.0000   1.0000
     1.0000   1.0000   1.0000   1.0000   1.0000   1.0000   1.0000   1.0000
     1.0000   1.0000   1.0000   1.0000   1.0000   1.0000   1.0000   1.0000
     1.0000   1.0000   1.0000   1.0000   1.0000   1.0000   1.0000   1.0000
     1.0000   1.0000   1.0000   1.0000   1.0000   1.0000   1.0000   1.0000
     1.0000   1.0000   1.0000   1.0000   1.0000   1.0000   1.0000   1.0000
     1.0000   1.0000   1.0000   1.0000   1.0000   1.0000   1.0000   1.0000

          k = 0.0192 0.0344-0.0481 ( 26996 PWs)   bands (ev):

   -23.8608 -23.8561 -23.8327 -23.8289 -23.5882 -23.5867 -23.5695 -23.5689
   -19.1013 -19.1007 -19.0885 -19.0881 -18.7909 -18.7905 -18.7711 -18.7704
   -18.1653 -18.1547 -17.1260 -17.1061 -17.0010 -17.0002 -15.9780 -15.9712
   -12.0278 -12.0200 -11.9621 -11.9296 -11.7771 -11.7495 -11.6955 -11.6914
    -8.7841  -8.7483  -8.1728  -8.1712  -7.4913  -7.4857  -7.3184  -7.2689
    -6.8236  -6.7763  -6.5342  -6.5032  -6.4283  -6.4125  -6.3546  -6.3340
    -6.0612  -6.0413  -5.9404  -5.9049  -5.7596  -5.7432  -5.7210  -5.6991
    -5.6260  -5.5901  -5.3988  -5.3699  -5.0442  -4.9913  -4.8678  -4.8342
    -4.3684  -4.3394  -4.2391  -4.2189  -4.0894  -4.0818  -3.8924  -3.8696
    -3.5708  -3.5499  -3.3944  -3.3583  -3.1070  -3.0956  -2.9420  -2.9369
    -0.6231  -0.5979  -0.2551  -0.2516  -0.1947  -0.1767  -0.1361  -0.1146
    -0.0506  -0.0368   0.1485   0.1810   0.3165   0.3334   0.3704   0.3986
     0.6772   0.7094   0.7795   0.7910   0.8027   0.8463   0.9143   0.9187
     1.0548   1.0722   1.1986   1.2215   1.2965   1.3087   1.4295   1.4383

     occupation numbers 
     1.0000   1.0000   1.0000   1.0000   1.0000   1.0000   1.0000   1.0000
     1.0000   1.0000   1.0000   1.0000   1.0000   1.0000   1.0000   1.0000
     1.0000   1.0000   1.0000   1.0000   1.0000   1.0000   1.0000   1.0000
     1.0000   1.0000   1.0000   1.0000   1.0000   1.0000   1.0000   1.0000
     1.0000   1.0000   1.0000   1.0000   1.0000   1.0000   1.0000   1.0000
     1.0000   1.0000   1.0000   1.0000   1.0000   1.0000   1.0000   1.0000
     1.0000   1.0000   1.0000   1.0000   1.0000   1.0000   1.0000   1.0000
     1.0000   1.0000   1.0000   1.0000   1.0000   1.0000   1.0000   1.0000
     1.0000   1.0000   1.0000   1.0000   1.0000   1.0000   1.0000   1.0000
     1.0000   1.0000   1.0000   1.0000   1.0000   1.0000   1.0000   1.0000
     1.0000   1.0000   1.0000   1.0000   1.0000   1.0000   1.0000   1.0000
     1.0000   1.0000   1.0000   1.0000   1.0000   1.0000   1.0000   1.0000
     1.0000   1.0000   1.0000   1.0000   1.0000   1.0000   1.0000   1.0000
     1.0000   1.0000   1.0000   1.0000   1.0000   1.0000   1.0000   1.0000

          k = 0.0192 0.0344-0.0132 ( 26983 PWs)   bands (ev):

   -23.8665 -23.8571 -23.8304 -23.8259 -23.5858 -23.5819 -23.5724 -23.5716
   -19.1037 -19.1020 -19.0875 -19.0838 -18.7866 -18.7864 -18.7743 -18.7743
   -18.1672 -18.1519 -17.1305 -17.1009 -17.0054 -17.0050 -15.9779 -15.9692
   -12.0251 -12.0168 -11.9746 -11.9321 -11.7806 -11.7503 -11.6815 -11.6755
    -8.8046  -8.7658  -8.1918  -8.1799  -7.4880  -7.4769  -7.3658  -7.3320
    -6.7426  -6.7253  -6.5329  -6.4759  -6.4317  -6.4112  -6.3151  -6.2809
    -6.0556  -6.0331  -5.9537  -5.9217  -5.7926  -5.7671  -5.6749  -5.6734
    -5.5511  -5.5343  -5.4444  -5.4376  -5.0370  -5.0041  -4.8663  -4.8458
    -4.4087  -4.4052  -4.3270  -4.3059  -4.1285  -4.0754  -3.7757  -3.7515
    -3.5874  -3.5275  -3.4253  -3.4002  -3.0824  -3.0621  -2.9488  -2.9479
    -0.6834  -0.6743  -0.2339  -0.2250  -0.1679  -0.1320  -0.0711  -0.0597
    -0.0182   0.0016   0.1549   0.1839   0.2732   0.3105   0.4136   0.4426
     0.6345   0.6601   0.6957   0.7518   0.8021   0.8360   0.9538   0.9570
     1.0206   1.0511   1.1829   1.2088   1.2995   1.3522   1.4227   1.4323

     occupation numbers 
     1.0000   1.0000   1.0000   1.0000   1.0000   1.0000   1.0000   1.0000
     1.0000   1.0000   1.0000   1.0000   1.0000   1.0000   1.0000   1.0000
     1.0000   1.0000   1.0000   1.0000   1.0000   1.0000   1.0000   1.0000
     1.0000   1.0000   1.0000   1.0000   1.0000   1.0000   1.0000   1.0000
     1.0000   1.0000   1.0000   1.0000   1.0000   1.0000   1.0000   1.0000
     1.0000   1.0000   1.0000   1.0000   1.0000   1.0000   1.0000   1.0000
     1.0000   1.0000   1.0000   1.0000   1.0000   1.0000   1.0000   1.0000
     1.0000   1.0000   1.0000   1.0000   1.0000   1.0000   1.0000   1.0000
     1.0000   1.0000   1.0000   1.0000   1.0000   1.0000   1.0000   1.0000
     1.0000   1.0000   1.0000   1.0000   1.0000   1.0000   1.0000   1.0000
     1.0000   1.0000   1.0000   1.0000   1.0000   1.0000   1.0000   1.0000
     1.0000   1.0000   1.0000   1.0000   1.0000   1.0000   1.0000   1.0000
     1.0000   1.0000   1.0000   1.0000   1.0000   1.0000   1.0000   1.0000
     1.0000   1.0000   1.0000   1.0000   1.0000   1.0000   1.0000   1.0000

          k = 0.0575 0.0115 0.0302 ( 26995 PWs)   bands (ev):

   -23.8605 -23.8497 -23.8323 -23.8317 -23.5853 -23.5818 -23.5773 -23.5722
   -19.1028 -19.0986 -19.0941 -19.0844 -18.7860 -18.7846 -18.7766 -18.7754
   -18.1670 -18.1667 -17.1154 -17.1131 -17.0032 -17.0011 -15.9801 -15.9777
   -12.0072 -12.0049 -11.9158 -11.8966 -11.7534 -11.7334 -11.7022 -11.6849
    -8.8193  -8.7848  -8.2046  -8.1816  -7.4799  -7.4551  -7.4303  -7.3702
    -6.9202  -6.8479  -6.6175  -6.4858  -6.3995  -6.3601  -6.1942  -6.1593
    -6.1378  -6.0828  -5.9531  -5.8832  -5.8278  -5.7778  -5.6978  -5.6735
    -5.5860  -5.5411  -5.4827  -5.4639  -5.0841  -4.9707  -4.8483  -4.8426
    -4.3863  -4.3633  -4.3185  -4.2720  -3.9438  -3.8891  -3.7336  -3.6922
    -3.6520  -3.5352  -3.4882  -3.4803  -3.0845  -3.0819  -2.9586  -2.9275
    -0.6955  -0.6819  -0.2357  -0.2306  -0.1421  -0.1224  -0.0643  -0.0415
    -0.0061   0.0255   0.1699   0.1853   0.2629   0.2790   0.4131   0.4347
     0.6365   0.6489   0.7236   0.7717   0.8397   0.8478   0.9272   0.9419
     1.0021   1.0503   1.0786   1.1301   1.3506   1.3843   1.4105   1.4494

     occupation numbers 
     1.0000   1.0000   1.0000   1.0000   1.0000   1.0000   1.0000   1.0000
     1.0000   1.0000   1.0000   1.0000   1.0000   1.0000   1.0000   1.0000
     1.0000   1.0000   1.0000   1.0000   1.0000   1.0000   1.0000   1.0000
     1.0000   1.0000   1.0000   1.0000   1.0000   1.0000   1.0000   1.0000
     1.0000   1.0000   1.0000   1.0000   1.0000   1.0000   1.0000   1.0000
     1.0000   1.0000   1.0000   1.0000   1.0000   1.0000   1.0000   1.0000
     1.0000   1.0000   1.0000   1.0000   1.0000   1.0000   1.0000   1.0000
     1.0000   1.0000   1.0000   1.0000   1.0000   1.0000   1.0000   1.0000
     1.0000   1.0000   1.0000   1.0000   1.0000   1.0000   1.0000   1.0000
     1.0000   1.0000   1.0000   1.0000   1.0000   1.0000   1.0000   1.0000
     1.0000   1.0000   1.0000   1.0000   1.0000   1.0000   1.0000   1.0000
     1.0000   1.0000   1.0000   1.0000   1.0000   1.0000   1.0000   1.0000
     1.0000   1.0000   1.0000   1.0000   1.0000   1.0000   1.0000   1.0000
     1.0000   1.0000   1.0000   1.0000   1.0000   1.0000   1.0000   1.0000

          k = 0.0575 0.0115 0.0650 ( 27027 PWs)   bands (ev):

   -23.8563 -23.8525 -23.8364 -23.8277 -23.5838 -23.5835 -23.5805 -23.5701
   -19.1033 -19.1002 -19.0944 -19.0834 -18.7959 -18.7935 -18.7693 -18.7656
   -18.1818 -18.1568 -17.1360 -17.0903 -16.9936 -16.9899 -15.9962 -15.9762
   -12.0223 -12.0120 -11.9470 -11.8693 -11.7501 -11.7086 -11.7056 -11.6860
    -8.8653  -8.7391  -8.1990  -8.1609  -7.4857  -7.4574  -7.3899  -7.2482
    -7.0255  -6.7952  -6.6213  -6.4346  -6.4233  -6.3774  -6.3535  -6.2483
    -6.1924  -6.1090  -5.9245  -5.8985  -5.8522  -5.7935  -5.7292  -5.6642
    -5.5585  -5.5082  -5.4380  -5.3611  -5.0959  -4.9316  -4.9200  -4.8517
    -4.3263  -4.3121  -4.2496  -4.2104  -3.9004  -3.8794  -3.8325  -3.8005
    -3.6710  -3.5621  -3.4953  -3.3959  -3.1340  -3.0992  -2.9566  -2.8955
    -0.7731  -0.7309  -0.2423  -0.2028  -0.1423  -0.1129  -0.0590  -0.0207
     0.0285   0.0638   0.2323   0.2642   0.2857   0.3051   0.3787   0.4780
     0.5553   0.5696   0.6281   0.7297   0.8337   0.8661   0.9067   0.9396
     1.0386   1.0757   1.0909   1.1186   1.3635   1.4035   1.4173   1.4647

     occupation numbers 
     1.0000   1.0000   1.0000   1.0000   1.0000   1.0000   1.0000   1.0000
     1.0000   1.0000   1.0000   1.0000   1.0000   1.0000   1.0000   1.0000
     1.0000   1.0000   1.0000   1.0000   1.0000   1.0000   1.0000   1.0000
     1.0000   1.0000   1.0000   1.0000   1.0000   1.0000   1.0000   1.0000
     1.0000   1.0000   1.0000   1.0000   1.0000   1.0000   1.0000   1.0000
     1.0000   1.0000   1.0000   1.0000   1.0000   1.0000   1.0000   1.0000
     1.0000   1.0000   1.0000   1.0000   1.0000   1.0000   1.0000   1.0000
     1.0000   1.0000   1.0000   1.0000   1.0000   1.0000   1.0000   1.0000
     1.0000   1.0000   1.0000   1.0000   1.0000   1.0000   1.0000   1.0000
     1.0000   1.0000   1.0000   1.0000   1.0000   1.0000   1.0000   1.0000
     1.0000   1.0000   1.0000   1.0000   1.0000   1.0000   1.0000   1.0000
     1.0000   1.0000   1.0000   1.0000   1.0000   1.0000   1.0000   1.0000
     1.0000   1.0000   1.0000   1.0000   1.0000   1.0000   1.0000   1.0000
     1.0000   1.0000   1.0000   1.0000   1.0000   1.0000   1.0000   1.0000

          k = 0.0575 0.0115-0.0396 ( 27007 PWs)   bands (ev):

   -23.8574 -23.8519 -23.8379 -23.8255 -23.5871 -23.5860 -23.5757 -23.5689
   -19.1012 -19.0992 -19.0948 -19.0863 -18.7969 -18.7945 -18.7682 -18.7646
   -18.1865 -18.1507 -17.1463 -17.0793 -16.9965 -16.9935 -15.9957 -15.9697
   -12.0280 -12.0135 -11.9706 -11.8489 -11.7677 -11.7035 -11.6966 -11.6794
    -8.8600  -8.7137  -8.1926  -8.1624  -7.4834  -7.4622  -7.4132  -7.2364
    -7.0451  -6.7972  -6.6088  -6.4637  -6.4263  -6.4110  -6.3403  -6.2745
    -6.1965  -6.1255  -5.9129  -5.8573  -5.8161  -5.7998  -5.7298  -5.6824
    -5.5318  -5.5036  -5.4441  -5.3611  -5.0866  -4.9572  -4.8931  -4.8365
    -4.3287  -4.2904  -4.2498  -4.2232  -3.9388  -3.9286  -3.7748  -3.7687
    -3.6198  -3.5936  -3.5503  -3.4005  -3.1377  -3.0960  -2.9528  -2.9012
    -0.7292  -0.6639  -0.2345  -0.1766  -0.1601  -0.1333  -0.0663  -0.0401
    -0.0340   0.0096   0.1660   0.2508   0.2828   0.3266   0.3433   0.3714
     0.6078   0.6747   0.7061   0.7228   0.8344   0.8586   0.9291   0.9513
     1.0275   1.0551   1.1081   1.1778   1.3775   1.3961   1.4009   1.4286

     occupation numbers 
     1.0000   1.0000   1.0000   1.0000   1.0000   1.0000   1.0000   1.0000
     1.0000   1.0000   1.0000   1.0000   1.0000   1.0000   1.0000   1.0000
     1.0000   1.0000   1.0000   1.0000   1.0000   1.0000   1.0000   1.0000
     1.0000   1.0000   1.0000   1.0000   1.0000   1.0000   1.0000   1.0000
     1.0000   1.0000   1.0000   1.0000   1.0000   1.0000   1.0000   1.0000
     1.0000   1.0000   1.0000   1.0000   1.0000   1.0000   1.0000   1.0000
     1.0000   1.0000   1.0000   1.0000   1.0000   1.0000   1.0000   1.0000
     1.0000   1.0000   1.0000   1.0000   1.0000   1.0000   1.0000   1.0000
     1.0000   1.0000   1.0000   1.0000   1.0000   1.0000   1.0000   1.0000
     1.0000   1.0000   1.0000   1.0000   1.0000   1.0000   1.0000   1.0000
     1.0000   1.0000   1.0000   1.0000   1.0000   1.0000   1.0000   1.0000
     1.0000   1.0000   1.0000   1.0000   1.0000   1.0000   1.0000   1.0000
     1.0000   1.0000   1.0000   1.0000   1.0000   1.0000   1.0000   1.0000
     1.0000   1.0000   1.0000   1.0000   1.0000   1.0000   1.0000   1.0000

          k = 0.0575 0.0115-0.0047 ( 27003 PWs)   bands (ev):

   -23.8611 -23.8496 -23.8362 -23.8271 -23.5879 -23.5842 -23.5731 -23.5714
   -19.1006 -19.0987 -19.0910 -19.0898 -18.7885 -18.7873 -18.7740 -18.7727
   -18.1791 -18.1532 -17.1385 -17.0892 -17.0055 -17.0054 -15.9838 -15.9672
   -12.0150 -12.0045 -11.9571 -11.8579 -11.7778 -11.7138 -11.6914 -11.6884
    -8.8288  -8.7441  -8.1928  -8.1890  -7.4789  -7.4686  -7.4558  -7.3491
    -6.9377  -6.8447  -6.5727  -6.5475  -6.3957  -6.3892  -6.2317  -6.2004
    -6.1146  -6.1102  -5.8931  -5.8548  -5.7911  -5.7563  -5.7142  -5.7044
    -5.5617  -5.5450  -5.4756  -5.4669  -5.0439  -5.0235  -4.8255  -4.8221
    -4.3878  -4.3604  -4.3140  -4.2796  -3.9580  -3.9155  -3.6947  -3.6864
    -3.6093  -3.5756  -3.5371  -3.4724  -3.1027  -3.0668  -2.9532  -2.9337
    -0.6384  -0.5887  -0.2421  -0.2314  -0.1539  -0.1477  -0.1201  -0.1136
    -0.0223   0.0108   0.1234   0.1901   0.2459   0.2881   0.3842   0.4220
     0.6252   0.6860   0.7788   0.8147   0.8373   0.8741   0.9402   0.9639
     0.9963   1.0166   1.0933   1.1819   1.3680   1.3761   1.3909   1.4086

     occupation numbers 
     1.0000   1.0000   1.0000   1.0000   1.0000   1.0000   1.0000   1.0000
     1.0000   1.0000   1.0000   1.0000   1.0000   1.0000   1.0000   1.0000
     1.0000   1.0000   1.0000   1.0000   1.0000   1.0000   1.0000   1.0000
     1.0000   1.0000   1.0000   1.0000   1.0000   1.0000   1.0000   1.0000
     1.0000   1.0000   1.0000   1.0000   1.0000   1.0000   1.0000   1.0000
     1.0000   1.0000   1.0000   1.0000   1.0000   1.0000   1.0000   1.0000
     1.0000   1.0000   1.0000   1.0000   1.0000   1.0000   1.0000   1.0000
     1.0000   1.0000   1.0000   1.0000   1.0000   1.0000   1.0000   1.0000
     1.0000   1.0000   1.0000   1.0000   1.0000   1.0000   1.0000   1.0000
     1.0000   1.0000   1.0000   1.0000   1.0000   1.0000   1.0000   1.0000
     1.0000   1.0000   1.0000   1.0000   1.0000   1.0000   1.0000   1.0000
     1.0000   1.0000   1.0000   1.0000   1.0000   1.0000   1.0000   1.0000
     1.0000   1.0000   1.0000   1.0000   1.0000   1.0000   1.0000   1.0000
     1.0000   1.0000   1.0000   1.0000   1.0000   1.0000   1.0000   1.0000

          k = 0.0575 0.0344 0.0302 ( 27013 PWs)   bands (ev):

   -23.8571 -23.8525 -23.8327 -23.8322 -23.5830 -23.5818 -23.5769 -23.5746
   -19.1029 -19.1017 -19.0894 -19.0860 -18.7856 -18.7850 -18.7763 -18.7757
   -18.1670 -18.1668 -17.1149 -17.1139 -17.0023 -17.0015 -15.9795 -15.9784
   -12.0067 -12.0057 -11.9086 -11.9004 -11.7497 -11.7413 -11.6969 -11.6896
    -8.8091  -8.7948  -8.1945  -8.1847  -7.4720  -7.4621  -7.4166  -7.3912
    -6.9239  -6.8997  -6.5365  -6.4893  -6.3823  -6.3581  -6.2251  -6.1910
    -6.1233  -6.0939  -5.9231  -5.8936  -5.8192  -5.7923  -5.6982  -5.6747
    -5.5657  -5.5526  -5.4754  -5.4668  -5.0538  -5.0069  -4.8529  -4.8493
    -4.3780  -4.3643  -4.3093  -4.2907  -3.9197  -3.8959  -3.7212  -3.7019
    -3.6212  -3.5719  -3.4872  -3.4805  -3.0836  -3.0809  -2.9544  -2.9406
    -0.6877  -0.6821  -0.2264  -0.2179  -0.1814  -0.1606  -0.0433  -0.0219
    -0.0001   0.0169   0.1811   0.1980   0.2695   0.2847   0.4130   0.4234
     0.6645   0.6679   0.7010   0.7284   0.8371   0.8469   0.9337   0.9539
     1.0149   1.0445   1.0831   1.1080   1.3613   1.3747   1.4228   1.4384

     occupation numbers 
     1.0000   1.0000   1.0000   1.0000   1.0000   1.0000   1.0000   1.0000
     1.0000   1.0000   1.0000   1.0000   1.0000   1.0000   1.0000   1.0000
     1.0000   1.0000   1.0000   1.0000   1.0000   1.0000   1.0000   1.0000
     1.0000   1.0000   1.0000   1.0000   1.0000   1.0000   1.0000   1.0000
     1.0000   1.0000   1.0000   1.0000   1.0000   1.0000   1.0000   1.0000
     1.0000   1.0000   1.0000   1.0000   1.0000   1.0000   1.0000   1.0000
     1.0000   1.0000   1.0000   1.0000   1.0000   1.0000   1.0000   1.0000
     1.0000   1.0000   1.0000   1.0000   1.0000   1.0000   1.0000   1.0000
     1.0000   1.0000   1.0000   1.0000   1.0000   1.0000   1.0000   1.0000
     1.0000   1.0000   1.0000   1.0000   1.0000   1.0000   1.0000   1.0000
     1.0000   1.0000   1.0000   1.0000   1.0000   1.0000   1.0000   1.0000
     1.0000   1.0000   1.0000   1.0000   1.0000   1.0000   1.0000   1.0000
     1.0000   1.0000   1.0000   1.0000   1.0000   1.0000   1.0000   1.0000
     1.0000   1.0000   1.0000   1.0000   1.0000   1.0000   1.0000   1.0000

          k = 0.0575 0.0344 0.0650 ( 27026 PWs)   bands (ev):

   -23.8546 -23.8531 -23.8345 -23.8309 -23.5835 -23.5833 -23.5776 -23.5731
   -19.1037 -19.1029 -19.0894 -19.0853 -18.7952 -18.7942 -18.7683 -18.7667
   -18.1747 -18.1643 -17.1226 -17.1037 -16.9924 -16.9909 -15.9902 -15.9819
   -12.0222 -12.0185 -11.9216 -11.8906 -11.7367 -11.7197 -11.7001 -11.6920
    -8.8296  -8.7775  -8.1862  -8.1703  -7.4614  -7.4478  -7.3762  -7.3124
    -6.9829  -6.9024  -6.5195  -6.4594  -6.4118  -6.3966  -6.3095  -6.2521
    -6.1776  -6.1249  -5.9034  -5.8852  -5.8472  -5.8231  -5.7430  -5.7013
    -5.5508  -5.5307  -5.4060  -5.3747  -5.0570  -4.9875  -4.8984  -4.8697
    -4.3106  -4.2908  -4.2491  -4.2144  -3.8894  -3.8813  -3.8274  -3.8144
    -3.6478  -3.6086  -3.4578  -3.4202  -3.1250  -3.1108  -2.9392  -2.9138
    -0.7571  -0.7399  -0.2284  -0.2110  -0.1737  -0.1645  -0.0308  -0.0194
     0.0601   0.0724   0.2507   0.2609   0.3001   0.3124   0.4027   0.4494
     0.5386   0.5468   0.6788   0.7358   0.8046   0.8439   0.9188   0.9364
     1.0312   1.0550   1.1095   1.1253   1.3743   1.3904   1.4312   1.4504

     occupation numbers 
     1.0000   1.0000   1.0000   1.0000   1.0000   1.0000   1.0000   1.0000
     1.0000   1.0000   1.0000   1.0000   1.0000   1.0000   1.0000   1.0000
     1.0000   1.0000   1.0000   1.0000   1.0000   1.0000   1.0000   1.0000
     1.0000   1.0000   1.0000   1.0000   1.0000   1.0000   1.0000   1.0000
     1.0000   1.0000   1.0000   1.0000   1.0000   1.0000   1.0000   1.0000
     1.0000   1.0000   1.0000   1.0000   1.0000   1.0000   1.0000   1.0000
     1.0000   1.0000   1.0000   1.0000   1.0000   1.0000   1.0000   1.0000
     1.0000   1.0000   1.0000   1.0000   1.0000   1.0000   1.0000   1.0000
     1.0000   1.0000   1.0000   1.0000   1.0000   1.0000   1.0000   1.0000
     1.0000   1.0000   1.0000   1.0000   1.0000   1.0000   1.0000   1.0000
     1.0000   1.0000   1.0000   1.0000   1.0000   1.0000   1.0000   1.0000
     1.0000   1.0000   1.0000   1.0000   1.0000   1.0000   1.0000   1.0000
     1.0000   1.0000   1.0000   1.0000   1.0000   1.0000   1.0000   1.0000
     1.0000   1.0000   1.0000   1.0000   1.0000   1.0000   1.0000   1.0000

          k = 0.0575 0.0344-0.0396 ( 27011 PWs)   bands (ev):

   -23.8558 -23.8535 -23.8344 -23.8292 -23.5865 -23.5859 -23.5740 -23.5711
   -19.1021 -19.1018 -19.0903 -19.0874 -18.7962 -18.7952 -18.7671 -18.7656
   -18.1764 -18.1616 -17.1264 -17.0987 -16.9958 -16.9946 -15.9878 -15.9771
   -12.0278 -12.0233 -11.9354 -11.8897 -11.7397 -11.7160 -11.6919 -11.6851
    -8.8192  -8.7588  -8.1834  -8.1708  -7.4660  -7.4483  -7.3886  -7.3067
    -6.9900  -6.9012  -6.5185  -6.4755  -6.4270  -6.4066  -6.3573  -6.3016
    -6.1408  -6.0972  -5.9081  -5.8709  -5.8254  -5.8156  -5.7378  -5.7061
    -5.5310  -5.5188  -5.4039  -5.3698  -5.0726  -5.0192  -4.8649  -4.8416
    -4.3291  -4.3127  -4.2204  -4.2024  -3.9315  -3.9275  -3.7754  -3.7722
    -3.6261  -3.6168  -3.4961  -3.4383  -3.1234  -3.1052  -2.9421  -2.9199
    -0.7075  -0.6801  -0.2241  -0.2028  -0.1839  -0.1651  -0.0438  -0.0361
    -0.0031   0.0231   0.1941   0.2265   0.2917   0.3093   0.3486   0.3748
     0.6297   0.6562   0.7367   0.7388   0.8278   0.8369   0.9123   0.9195
     1.0393   1.0572   1.1343   1.1611   1.3815   1.3907   1.4064   1.4194

     occupation numbers 
     1.0000   1.0000   1.0000   1.0000   1.0000   1.0000   1.0000   1.0000
     1.0000   1.0000   1.0000   1.0000   1.0000   1.0000   1.0000   1.0000
     1.0000   1.0000   1.0000   1.0000   1.0000   1.0000   1.0000   1.0000
     1.0000   1.0000   1.0000   1.0000   1.0000   1.0000   1.0000   1.0000
     1.0000   1.0000   1.0000   1.0000   1.0000   1.0000   1.0000   1.0000
     1.0000   1.0000   1.0000   1.0000   1.0000   1.0000   1.0000   1.0000
     1.0000   1.0000   1.0000   1.0000   1.0000   1.0000   1.0000   1.0000
     1.0000   1.0000   1.0000   1.0000   1.0000   1.0000   1.0000   1.0000
     1.0000   1.0000   1.0000   1.0000   1.0000   1.0000   1.0000   1.0000
     1.0000   1.0000   1.0000   1.0000   1.0000   1.0000   1.0000   1.0000
     1.0000   1.0000   1.0000   1.0000   1.0000   1.0000   1.0000   1.0000
     1.0000   1.0000   1.0000   1.0000   1.0000   1.0000   1.0000   1.0000
     1.0000   1.0000   1.0000   1.0000   1.0000   1.0000   1.0000   1.0000
     1.0000   1.0000   1.0000   1.0000   1.0000   1.0000   1.0000   1.0000

          k = 0.0575 0.0344-0.0047 ( 26993 PWs)   bands (ev):

   -23.8579 -23.8532 -23.8335 -23.8297 -23.5863 -23.5846 -23.5731 -23.5723
   -19.1011 -19.1004 -19.0895 -19.0891 -18.7881 -18.7876 -18.7736 -18.7731
   -18.1718 -18.1611 -17.1240 -17.1036 -17.0054 -17.0054 -15.9788 -15.9719
   -12.0135 -12.0099 -11.9306 -11.8923 -11.7527 -11.7286 -11.6906 -11.6880
    -8.8046  -8.7696  -8.1905  -8.1872  -7.4754  -7.4712  -7.4281  -7.3838
    -6.9261  -6.8890  -6.5290  -6.5165  -6.3861  -6.3766  -6.2884  -6.2775
    -6.0675  -6.0585  -5.9046  -5.8821  -5.7839  -5.7697  -5.6943  -5.6885
    -5.5635  -5.5478  -5.4726  -5.4696  -5.0492  -5.0377  -4.8235  -4.8221
    -4.3876  -4.3705  -4.3098  -4.2859  -3.9320  -3.9144  -3.6968  -3.6943
    -3.5857  -3.5593  -3.5413  -3.5006  -3.0901  -3.0740  -2.9548  -2.9475
    -0.6223  -0.6017  -0.2268  -0.2182  -0.1709  -0.1476  -0.1409  -0.1213
    -0.0198   0.0018   0.1470   0.1758   0.2669   0.2875   0.3958   0.4166
     0.6556   0.6893   0.7578   0.7835   0.8371   0.8655   0.9474   0.9524
     1.0166   1.0294   1.1103   1.1511   1.3712   1.3731   1.3954   1.4033

     occupation numbers 
     1.0000   1.0000   1.0000   1.0000   1.0000   1.0000   1.0000   1.0000
     1.0000   1.0000   1.0000   1.0000   1.0000   1.0000   1.0000   1.0000
     1.0000   1.0000   1.0000   1.0000   1.0000   1.0000   1.0000   1.0000
     1.0000   1.0000   1.0000   1.0000   1.0000   1.0000   1.0000   1.0000
     1.0000   1.0000   1.0000   1.0000   1.0000   1.0000   1.0000   1.0000
     1.0000   1.0000   1.0000   1.0000   1.0000   1.0000   1.0000   1.0000
     1.0000   1.0000   1.0000   1.0000   1.0000   1.0000   1.0000   1.0000
     1.0000   1.0000   1.0000   1.0000   1.0000   1.0000   1.0000   1.0000
     1.0000   1.0000   1.0000   1.0000   1.0000   1.0000   1.0000   1.0000
     1.0000   1.0000   1.0000   1.0000   1.0000   1.0000   1.0000   1.0000
     1.0000   1.0000   1.0000   1.0000   1.0000   1.0000   1.0000   1.0000
     1.0000   1.0000   1.0000   1.0000   1.0000   1.0000   1.0000   1.0000
     1.0000   1.0000   1.0000   1.0000   1.0000   1.0000   1.0000   1.0000
     1.0000   1.0000   1.0000   1.0000   1.0000   1.0000   1.0000   1.0000

     highest occupied level (ev):     1.4647

!    total energy              =   -1282.01364821 Ry
     Harris-Foulkes estimate   =   -1282.01364867 Ry
     estimated scf accuracy    <       0.00000052 Ry

     total all-electron energy =     -4786.457396 Ry

     The total energy is the sum of the following terms:

     one-electron contribution =    -633.74730358 Ry
     hartree contribution      =     415.67047672 Ry
     xc contribution           =    -260.20129101 Ry
     ewald contribution        =    -473.34328581 Ry
     one-center paw contrib.   =    -330.39224452 Ry

     convergence has been achieved in  16 iterations

     Forces acting on atoms (Ry/au):

     atom    1 type  1   force =    -0.01369663   -0.00655857   -0.01009688
     atom    2 type  4   force =     0.02870813    0.00793053   -0.01817587
     atom    3 type  1   force =    -0.00114297   -0.01184733   -0.01706029
     atom    4 type  1   force =     0.01277457   -0.00485348    0.00303010
     atom    5 type  4   force =     0.00514734   -0.03561667    0.03866528
     atom    6 type  1   force =     0.01071942    0.01190563   -0.01492340
     atom    7 type  4   force =    -0.00988720    0.02131438    0.04293176
     atom    8 type  2   force =     0.15648079   -0.09973287    0.04665522
     atom    9 type  3   force =    -0.12076293   -0.05442700   -0.12455699
     atom   10 type  3   force =    -0.04055849    0.16062635    0.07165783
     atom   11 type  4   force =    -0.03735230    0.02293775   -0.01638376
     atom   12 type  2   force =     0.12096265   -0.05792144    0.21101006
     atom   13 type  3   force =    -0.19603505   -0.09841714   -0.06246150
     atom   14 type  3   force =     0.06846974    0.15574766   -0.15312569
     atom   15 type  3   force =     0.06846974   -0.15574766   -0.15312569
     atom   16 type  3   force =    -0.19603505    0.09841714   -0.06246150
     atom   17 type  2   force =     0.12096265    0.05792144    0.21101006
     atom   18 type  4   force =    -0.03735230   -0.02293775   -0.01638376
     atom   19 type  3   force =    -0.04055849   -0.16062635    0.07165783
     atom   20 type  3   force =    -0.12076293    0.05442700   -0.12455699
     atom   21 type  2   force =     0.15648079    0.09973287    0.04665522
     atom   22 type  4   force =    -0.00988720   -0.02131438    0.04293176
     atom   23 type  1   force =     0.01071942   -0.01190563   -0.01492340
     atom   24 type  4   force =     0.00514734    0.03561667    0.03866528
     atom   25 type  1   force =     0.01277457    0.00485348    0.00303010
     atom   26 type  1   force =    -0.00114297    0.01184733   -0.01706029
     atom   27 type  4   force =     0.02870813   -0.00793053   -0.01817587
     atom   28 type  1   force =    -0.01369663    0.00655857   -0.01009688
     atom   29 type  3   force =    -0.06846974   -0.15574766    0.15312569
     atom   30 type  3   force =     0.19603505    0.09841714    0.06246150
     atom   31 type  2   force =    -0.12096265    0.05792144   -0.21101006
     atom   32 type  4   force =     0.03735230   -0.02293775    0.01638376
     atom   33 type  3   force =     0.04055849   -0.16062635   -0.07165783
     atom   34 type  3   force =     0.12076293    0.05442700    0.12455699
     atom   35 type  2   force =    -0.15648079    0.09973287   -0.04665522
     atom   36 type  4   force =     0.00988720   -0.02131438   -0.04293176
     atom   37 type  1   force =    -0.01071942   -0.01190563    0.01492340
     atom   38 type  4   force =    -0.00514734    0.03561667   -0.03866528
     atom   39 type  1   force =    -0.01277457    0.00485348   -0.00303010
     atom   40 type  1   force =     0.00114297    0.01184733    0.01706029
     atom   41 type  4   force =    -0.02870813   -0.00793053    0.01817587
     atom   42 type  1   force =     0.01369663    0.00655857    0.01009688
     atom   43 type  3   force =    -0.06846974    0.15574766    0.15312569
     atom   44 type  3   force =     0.19603505   -0.09841714    0.06246150
     atom   45 type  2   force =    -0.12096265   -0.05792144   -0.21101006
     atom   46 type  4   force =     0.03735230    0.02293775    0.01638376
     atom   47 type  3   force =     0.04055849    0.16062635   -0.07165783
     atom   48 type  3   force =     0.12076293   -0.05442700    0.12455699
     atom   49 type  2   force =    -0.15648079   -0.09973287   -0.04665522
     atom   50 type  4   force =     0.00988720    0.02131438   -0.04293176
     atom   51 type  1   force =    -0.01071942    0.01190563    0.01492340
     atom   52 type  4   force =    -0.00514734   -0.03561667   -0.03866528
     atom   53 type  1   force =    -0.01277457   -0.00485348   -0.00303010
     atom   54 type  1   force =     0.00114297   -0.01184733    0.01706029
     atom   55 type  4   force =    -0.02870813    0.00793053    0.01817587
     atom   56 type  1   force =     0.01369663   -0.00655857    0.01009688
     The non-local contrib.  to forces
     atom    1 type  1   force =     0.17215711    0.37634510    0.11422635
     atom    2 type  4   force =    -2.39966333   -0.45988850    1.53805756
     atom    3 type  1   force =     0.04176397   -0.03296859    0.05443484
     atom    4 type  1   force =    -0.57642695   -0.42319109   -0.12548215
     atom    5 type  4   force =     0.16710131    1.86564707   -2.24327071
     atom    6 type  1   force =    -0.00615595    0.06283487    0.05866291
     atom    7 type  4   force =     0.53749182   -1.16892039   -2.62893675
     atom    8 type  2   force =     0.62678971   -0.42669185    0.17591073
     atom    9 type  3   force =     0.07781843    0.02697766    0.06793661
     atom   10 type  3   force =     0.02825433   -0.09683789   -0.03825411
     atom   11 type  4   force =     2.26633868   -1.47557904    0.83933702
     atom   12 type  2   force =     0.38277559   -0.19162262    0.70062472
     atom   13 type  3   force =     0.09436935    0.04803947    0.03998605
     atom   14 type  3   force =    -0.03075990   -0.07516027    0.08039089
     atom   15 type  3   force =    -0.03075990    0.07516027    0.08039089
     atom   16 type  3   force =     0.09436935   -0.04803947    0.03998605
     atom   17 type  2   force =     0.38277559    0.19162262    0.70062472
     atom   18 type  4   force =     2.26633868    1.47557904    0.83933702
     atom   19 type  3   force =     0.02825433    0.09683789   -0.03825411
     atom   20 type  3   force =     0.07781843   -0.02697766    0.06793661
     atom   21 type  2   force =     0.62678971    0.42669185    0.17591073
     atom   22 type  4   force =     0.53749182    1.16892039   -2.62893675
     atom   23 type  1   force =    -0.00615595   -0.06283487    0.05866291
     atom   24 type  4   force =     0.16710131   -1.86564707   -2.24327071
     atom   25 type  1   force =    -0.57642695    0.42319109   -0.12548215
     atom   26 type  1   force =     0.04176397    0.03296859    0.05443484
     atom   27 type  4   force =    -2.39966333    0.45988850    1.53805756
     atom   28 type  1   force =     0.17215711   -0.37634510    0.11422635
     atom   29 type  3   force =     0.03075990    0.07516027   -0.08039089
     atom   30 type  3   force =    -0.09436935   -0.04803947   -0.03998605
     atom   31 type  2   force =    -0.38277559    0.19162262   -0.70062472
     atom   32 type  4   force =    -2.26633868    1.47557904   -0.83933702
     atom   33 type  3   force =    -0.02825433    0.09683789    0.03825411
     atom   34 type  3   force =    -0.07781843   -0.02697766   -0.06793661
     atom   35 type  2   force =    -0.62678971    0.42669185   -0.17591073
     atom   36 type  4   force =    -0.53749182    1.16892039    2.62893675
     atom   37 type  1   force =     0.00615595   -0.06283487   -0.05866291
     atom   38 type  4   force =    -0.16710131   -1.86564707    2.24327071
     atom   39 type  1   force =     0.57642695    0.42319109    0.12548215
     atom   40 type  1   force =    -0.04176397    0.03296859   -0.05443484
     atom   41 type  4   force =     2.39966333    0.45988850   -1.53805756
     atom   42 type  1   force =    -0.17215711   -0.37634510   -0.11422635
     atom   43 type  3   force =     0.03075990   -0.07516027   -0.08039089
     atom   44 type  3   force =    -0.09436935    0.04803947   -0.03998605
     atom   45 type  2   force =    -0.38277559   -0.19162262   -0.70062472
     atom   46 type  4   force =    -2.26633868   -1.47557904   -0.83933702
     atom   47 type  3   force =    -0.02825433   -0.09683789    0.03825411
     atom   48 type  3   force =    -0.07781843    0.02697766   -0.06793661
     atom   49 type  2   force =    -0.62678971   -0.42669185   -0.17591073
     atom   50 type  4   force =    -0.53749182   -1.16892039    2.62893675
     atom   51 type  1   force =     0.00615595    0.06283487   -0.05866291
     atom   52 type  4   force =    -0.16710131    1.86564707    2.24327071
     atom   53 type  1   force =     0.57642695   -0.42319109    0.12548215
     atom   54 type  1   force =    -0.04176397   -0.03296859   -0.05443484
     atom   55 type  4   force =     2.39966333   -0.45988850   -1.53805756
     atom   56 type  1   force =    -0.17215711    0.37634510   -0.11422635
     The ionic contribution  to forces
     atom    1 type  1   force =    -3.03704534    0.23068460   -1.99937260
     atom    2 type  4   force =    12.20159925    4.24569638   -5.95501004
     atom    3 type  1   force =    -0.21338486    1.62447895    0.00672683
     atom    4 type  1   force =     2.80124776    2.82706232    2.02032485
     atom    5 type  4   force =    -1.30237236   -8.61145636   11.42936299
     atom    6 type  1   force =    -0.32683552    0.09668376    1.02280648
     atom    7 type  4   force =    -2.05358400    6.26876102   12.45980920
     atom    8 type  2   force =    -4.06970673    3.24941004   -1.21895625
     atom    9 type  3   force =    -2.21435278   -0.14201158   -1.96089374
     atom   10 type  3   force =    -1.22378006    2.74662803    0.69630709
     atom   11 type  4   force =   -11.13217065    6.18259145   -2.34477034
     atom   12 type  2   force =    -2.86884381    0.94443327   -4.69350685
     atom   13 type  3   force =    -2.59964860   -1.06048005   -1.58695539
     atom   14 type  3   force =     0.27688983    2.05265280   -2.52621440
     atom   15 type  3   force =     0.27688983   -2.05265280   -2.52621440
     atom   16 type  3   force =    -2.59964860    1.06048005   -1.58695539
     atom   17 type  2   force =    -2.86884381   -0.94443327   -4.69350685
     atom   18 type  4   force =   -11.13217065   -6.18259145   -2.34477034
     atom   19 type  3   force =    -1.22378006   -2.74662803    0.69630709
     atom   20 type  3   force =    -2.21435278    0.14201158   -1.96089374
     atom   21 type  2   force =    -4.06970673   -3.24941004   -1.21895625
     atom   22 type  4   force =    -2.05358400   -6.26876102   12.45980920
     atom   23 type  1   force =    -0.32683552   -0.09668376    1.02280648
     atom   24 type  4   force =    -1.30237236    8.61145636   11.42936299
     atom   25 type  1   force =     2.80124776   -2.82706232    2.02032485
     atom   26 type  1   force =    -0.21338486   -1.62447895    0.00672683
     atom   27 type  4   force =    12.20159925   -4.24569638   -5.95501004
     atom   28 type  1   force =    -3.03704534   -0.23068460   -1.99937260
     atom   29 type  3   force =    -0.27688983   -2.05265280    2.52621440
     atom   30 type  3   force =     2.59964860    1.06048005    1.58695539
     atom   31 type  2   force =     2.86884381   -0.94443327    4.69350685
     atom   32 type  4   force =    11.13217065   -6.18259145    2.34477034
     atom   33 type  3   force =     1.22378006   -2.74662803   -0.69630709
     atom   34 type  3   force =     2.21435278    0.14201158    1.96089374
     atom   35 type  2   force =     4.06970673   -3.24941004    1.21895625
     atom   36 type  4   force =     2.05358400   -6.26876102  -12.45980920
     atom   37 type  1   force =     0.32683552   -0.09668376   -1.02280648
     atom   38 type  4   force =     1.30237236    8.61145636  -11.42936299
     atom   39 type  1   force =    -2.80124776   -2.82706232   -2.02032485
     atom   40 type  1   force =     0.21338486   -1.62447895   -0.00672683
     atom   41 type  4   force =   -12.20159925   -4.24569638    5.95501004
     atom   42 type  1   force =     3.03704534   -0.23068460    1.99937260
     atom   43 type  3   force =    -0.27688983    2.05265280    2.52621440
     atom   44 type  3   force =     2.59964860   -1.06048005    1.58695539
     atom   45 type  2   force =     2.86884381    0.94443327    4.69350685
     atom   46 type  4   force =    11.13217065    6.18259145    2.34477034
     atom   47 type  3   force =     1.22378006    2.74662803   -0.69630709
     atom   48 type  3   force =     2.21435278   -0.14201158    1.96089374
     atom   49 type  2   force =     4.06970673    3.24941004    1.21895625
     atom   50 type  4   force =     2.05358400    6.26876102  -12.45980920
     atom   51 type  1   force =     0.32683552    0.09668376   -1.02280648
     atom   52 type  4   force =     1.30237236   -8.61145636  -11.42936299
     atom   53 type  1   force =    -2.80124776    2.82706232   -2.02032485
     atom   54 type  1   force =     0.21338486    1.62447895   -0.00672683
     atom   55 type  4   force =   -12.20159925    4.24569638    5.95501004
     atom   56 type  1   force =     3.03704534    0.23068460    1.99937260
     The local contribution  to forces
     atom    1 type  1   force =     2.85420146   -0.60726310    1.87689809
     atom    2 type  4   force =    -9.79172841   -3.78133922    4.41069192
     atom    3 type  1   force =     0.17029921   -1.60496891   -0.07823088
     atom    4 type  1   force =    -2.22162004   -2.41524924   -1.89339223
     atom    5 type  4   force =     1.14186491    6.72478812   -9.16526134
     atom    6 type  1   force =     0.34504992   -0.14576434   -1.09648698
     atom    7 type  4   force =     1.51031361   -5.08734328   -9.80804115
     atom    8 type  2   force =     3.61293327   -2.93221614    1.09455010
     atom    9 type  3   force =     2.01575548    0.06060531    1.76841251
     atom   10 type  3   force =     1.15495377   -2.48918047   -0.58637447
     atom   11 type  4   force =     8.84647181   -4.69576681    1.49568642
     atom   12 type  2   force =     2.61601779   -0.81492323    4.22000381
     atom   13 type  3   force =     2.30925586    0.91402540    1.48450936
     atom   14 type  3   force =    -0.17765643   -1.82174749    2.29269594
     atom   15 type  3   force =    -0.17765643    1.82174749    2.29269594
     atom   16 type  3   force =     2.30925586   -0.91402540    1.48450936
     atom   17 type  2   force =     2.61601779    0.81492323    4.22000381
     atom   18 type  4   force =     8.84647181    4.69576681    1.49568642
     atom   19 type  3   force =     1.15495377    2.48918047   -0.58637447
     atom   20 type  3   force =     2.01575548   -0.06060531    1.76841251
     atom   21 type  2   force =     3.61293327    2.93221614    1.09455010
     atom   22 type  4   force =     1.51031361    5.08734328   -9.80804115
     atom   23 type  1   force =     0.34504992    0.14576434   -1.09648698
     atom   24 type  4   force =     1.14186491   -6.72478812   -9.16526134
     atom   25 type  1   force =    -2.22162004    2.41524924   -1.89339223
     atom   26 type  1   force =     0.17029921    1.60496891   -0.07823088
     atom   27 type  4   force =    -9.79172841    3.78133922    4.41069192
     atom   28 type  1   force =     2.85420146    0.60726310    1.87689809
     atom   29 type  3   force =     0.17765643    1.82174749   -2.29269594
     atom   30 type  3   force =    -2.30925586   -0.91402540   -1.48450936
     atom   31 type  2   force =    -2.61601779    0.81492323   -4.22000381
     atom   32 type  4   force =    -8.84647181    4.69576681   -1.49568642
     atom   33 type  3   force =    -1.15495377    2.48918047    0.58637447
     atom   34 type  3   force =    -2.01575548   -0.06060531   -1.76841251
     atom   35 type  2   force =    -3.61293327    2.93221614   -1.09455010
     atom   36 type  4   force =    -1.51031361    5.08734328    9.80804115
     atom   37 type  1   force =    -0.34504992    0.14576434    1.09648698
     atom   38 type  4   force =    -1.14186491   -6.72478812    9.16526134
     atom   39 type  1   force =     2.22162004    2.41524924    1.89339223
     atom   40 type  1   force =    -0.17029921    1.60496891    0.07823088
     atom   41 type  4   force =     9.79172841    3.78133922   -4.41069192
     atom   42 type  1   force =    -2.85420146    0.60726310   -1.87689809
     atom   43 type  3   force =     0.17765643   -1.82174749   -2.29269594
     atom   44 type  3   force =    -2.30925586    0.91402540   -1.48450936
     atom   45 type  2   force =    -2.61601779   -0.81492323   -4.22000381
     atom   46 type  4   force =    -8.84647181   -4.69576681   -1.49568642
     atom   47 type  3   force =    -1.15495377   -2.48918047    0.58637447
     atom   48 type  3   force =    -2.01575548    0.06060531   -1.76841251
     atom   49 type  2   force =    -3.61293327   -2.93221614   -1.09455010
     atom   50 type  4   force =    -1.51031361   -5.08734328    9.80804115
     atom   51 type  1   force =    -0.34504992   -0.14576434    1.09648698
     atom   52 type  4   force =    -1.14186491    6.72478812    9.16526134
     atom   53 type  1   force =     2.22162004   -2.41524924    1.89339223
     atom   54 type  1   force =    -0.17029921   -1.60496891    0.07823088
     atom   55 type  4   force =     9.79172841   -3.78133922   -4.41069192
     atom   56 type  1   force =    -2.85420146   -0.60726310   -1.87689809
     The core correction contribution to forces
     atom    1 type  1   force =    -0.00308194   -0.00642139   -0.00189604
     atom    2 type  4   force =     0.01884359    0.00352499   -0.01210267
     atom    3 type  1   force =     0.00038763    0.00172969    0.00005290
     atom    4 type  1   force =     0.00944582    0.00655561    0.00164734
     atom    5 type  4   force =    -0.00137684   -0.01437734    0.01750457
     atom    6 type  1   force =    -0.00118302   -0.00168341   -0.00016572
     atom    7 type  4   force =    -0.00416453    0.00895615    0.02041273
     atom    8 type  2   force =    -0.01364705    0.00969993   -0.00472707
     atom    9 type  3   force =     0.00000000    0.00000000    0.00000000
     atom   10 type  3   force =     0.00000000    0.00000000    0.00000000
     atom   11 type  4   force =    -0.01773425    0.01161900   -0.00667319
     atom   12 type  2   force =    -0.00889198    0.00411374   -0.01616971
     atom   13 type  3   force =     0.00000000    0.00000000    0.00000000
     atom   14 type  3   force =     0.00000000    0.00000000    0.00000000
     atom   15 type  3   force =     0.00000000    0.00000000    0.00000000
     atom   16 type  3   force =     0.00000000    0.00000000    0.00000000
     atom   17 type  2   force =    -0.00889198   -0.00411374   -0.01616971
     atom   18 type  4   force =    -0.01773425   -0.01161900   -0.00667319
     atom   19 type  3   force =     0.00000000    0.00000000    0.00000000
     atom   20 type  3   force =     0.00000000    0.00000000    0.00000000
     atom   21 type  2   force =    -0.01364705   -0.00969993   -0.00472707
     atom   22 type  4   force =    -0.00416453   -0.00895615    0.02041273
     atom   23 type  1   force =    -0.00118302    0.00168341   -0.00016572
     atom   24 type  4   force =    -0.00137684    0.01437734    0.01750457
     atom   25 type  1   force =     0.00944582   -0.00655561    0.00164734
     atom   26 type  1   force =     0.00038763   -0.00172969    0.00005290
     atom   27 type  4   force =     0.01884359   -0.00352499   -0.01210267
     atom   28 type  1   force =    -0.00308194    0.00642139   -0.00189604
     atom   29 type  3   force =     0.00000000    0.00000000    0.00000000
     atom   30 type  3   force =     0.00000000    0.00000000    0.00000000
     atom   31 type  2   force =     0.00889198   -0.00411374    0.01616971
     atom   32 type  4   force =     0.01773425   -0.01161900    0.00667319
     atom   33 type  3   force =     0.00000000    0.00000000    0.00000000
     atom   34 type  3   force =     0.00000000    0.00000000    0.00000000
     atom   35 type  2   force =     0.01364705   -0.00969993    0.00472707
     atom   36 type  4   force =     0.00416453   -0.00895615   -0.02041273
     atom   37 type  1   force =     0.00118302    0.00168341    0.00016572
     atom   38 type  4   force =     0.00137684    0.01437734   -0.01750457
     atom   39 type  1   force =    -0.00944582   -0.00655561   -0.00164734
     atom   40 type  1   force =    -0.00038763   -0.00172969   -0.00005290
     atom   41 type  4   force =    -0.01884359   -0.00352499    0.01210267
     atom   42 type  1   force =     0.00308194    0.00642139    0.00189604
     atom   43 type  3   force =     0.00000000    0.00000000    0.00000000
     atom   44 type  3   force =     0.00000000    0.00000000    0.00000000
     atom   45 type  2   force =     0.00889198    0.00411374    0.01616971
     atom   46 type  4   force =     0.01773425    0.01161900    0.00667319
     atom   47 type  3   force =     0.00000000    0.00000000    0.00000000
     atom   48 type  3   force =     0.00000000    0.00000000    0.00000000
     atom   49 type  2   force =     0.01364705    0.00969993    0.00472707
     atom   50 type  4   force =     0.00416453    0.00895615   -0.02041273
     atom   51 type  1   force =     0.00118302   -0.00168341    0.00016572
     atom   52 type  4   force =     0.00137684   -0.01437734   -0.01750457
     atom   53 type  1   force =    -0.00944582    0.00655561   -0.00164734
     atom   54 type  1   force =    -0.00038763    0.00172969   -0.00005290
     atom   55 type  4   force =    -0.01884359    0.00352499    0.01210267
     atom   56 type  1   force =     0.00308194   -0.00642139    0.00189604
     The Hubbard contrib.    to forces
     atom    1 type  1   force =     0.00000000    0.00000000    0.00000000
     atom    2 type  4   force =     0.00000000    0.00000000    0.00000000
     atom    3 type  1   force =     0.00000000    0.00000000    0.00000000
     atom    4 type  1   force =     0.00000000    0.00000000    0.00000000
     atom    5 type  4   force =     0.00000000    0.00000000    0.00000000
     atom    6 type  1   force =     0.00000000    0.00000000    0.00000000
     atom    7 type  4   force =     0.00000000    0.00000000    0.00000000
     atom    8 type  2   force =     0.00000000    0.00000000    0.00000000
     atom    9 type  3   force =     0.00000000    0.00000000    0.00000000
     atom   10 type  3   force =     0.00000000    0.00000000    0.00000000
     atom   11 type  4   force =     0.00000000    0.00000000    0.00000000
     atom   12 type  2   force =     0.00000000    0.00000000    0.00000000
     atom   13 type  3   force =     0.00000000    0.00000000    0.00000000
     atom   14 type  3   force =     0.00000000    0.00000000    0.00000000
     atom   15 type  3   force =     0.00000000    0.00000000    0.00000000
     atom   16 type  3   force =     0.00000000    0.00000000    0.00000000
     atom   17 type  2   force =     0.00000000    0.00000000    0.00000000
     atom   18 type  4   force =     0.00000000    0.00000000    0.00000000
     atom   19 type  3   force =     0.00000000    0.00000000    0.00000000
     atom   20 type  3   force =     0.00000000    0.00000000    0.00000000
     atom   21 type  2   force =     0.00000000    0.00000000    0.00000000
     atom   22 type  4   force =     0.00000000    0.00000000    0.00000000
     atom   23 type  1   force =     0.00000000    0.00000000    0.00000000
     atom   24 type  4   force =     0.00000000    0.00000000    0.00000000
     atom   25 type  1   force =     0.00000000    0.00000000    0.00000000
     atom   26 type  1   force =     0.00000000    0.00000000    0.00000000
     atom   27 type  4   force =     0.00000000    0.00000000    0.00000000
     atom   28 type  1   force =     0.00000000    0.00000000    0.00000000
     atom   29 type  3   force =     0.00000000    0.00000000    0.00000000
     atom   30 type  3   force =     0.00000000    0.00000000    0.00000000
     atom   31 type  2   force =     0.00000000    0.00000000    0.00000000
     atom   32 type  4   force =     0.00000000    0.00000000    0.00000000
     atom   33 type  3   force =     0.00000000    0.00000000    0.00000000
     atom   34 type  3   force =     0.00000000    0.00000000    0.00000000
     atom   35 type  2   force =     0.00000000    0.00000000    0.00000000
     atom   36 type  4   force =     0.00000000    0.00000000    0.00000000
     atom   37 type  1   force =     0.00000000    0.00000000    0.00000000
     atom   38 type  4   force =     0.00000000    0.00000000    0.00000000
     atom   39 type  1   force =     0.00000000    0.00000000    0.00000000
     atom   40 type  1   force =     0.00000000    0.00000000    0.00000000
     atom   41 type  4   force =     0.00000000    0.00000000    0.00000000
     atom   42 type  1   force =     0.00000000    0.00000000    0.00000000
     atom   43 type  3   force =     0.00000000    0.00000000    0.00000000
     atom   44 type  3   force =     0.00000000    0.00000000    0.00000000
     atom   45 type  2   force =     0.00000000    0.00000000    0.00000000
     atom   46 type  4   force =     0.00000000    0.00000000    0.00000000
     atom   47 type  3   force =     0.00000000    0.00000000    0.00000000
     atom   48 type  3   force =     0.00000000    0.00000000    0.00000000
     atom   49 type  2   force =     0.00000000    0.00000000    0.00000000
     atom   50 type  4   force =     0.00000000    0.00000000    0.00000000
     atom   51 type  1   force =     0.00000000    0.00000000    0.00000000
     atom   52 type  4   force =     0.00000000    0.00000000    0.00000000
     atom   53 type  1   force =     0.00000000    0.00000000    0.00000000
     atom   54 type  1   force =     0.00000000    0.00000000    0.00000000
     atom   55 type  4   force =     0.00000000    0.00000000    0.00000000
     atom   56 type  1   force =     0.00000000    0.00000000    0.00000000
     The SCF correction term to forces
     atom    1 type  1   force =     0.00007208    0.00009623    0.00004732
     atom    2 type  4   force =    -0.00034297   -0.00006311    0.00018736
     atom    3 type  1   force =    -0.00020892   -0.00011847   -0.00004397
     atom    4 type  1   force =     0.00012798   -0.00003108   -0.00006771
     atom    5 type  4   force =    -0.00006968   -0.00021816    0.00032978
     atom    6 type  1   force =    -0.00015601   -0.00016526    0.00025990
     atom    7 type  4   force =     0.00005590   -0.00013912   -0.00031227
     atom    8 type  2   force =     0.00011160    0.00006515   -0.00012229
     atom    9 type  3   force =     0.00001594    0.00000161   -0.00001237
     atom   10 type  3   force =     0.00001347    0.00001668   -0.00002067
     atom   11 type  4   force =    -0.00025789    0.00007315    0.00003633
     atom   12 type  2   force =    -0.00009494    0.00007740    0.00005809
     atom   13 type  3   force =    -0.00001167   -0.00000196   -0.00000151
     atom   14 type  3   force =    -0.00000376    0.00000263    0.00000188
     atom   15 type  3   force =    -0.00000376   -0.00000263    0.00000188
     atom   16 type  3   force =    -0.00001167    0.00000196   -0.00000151
     atom   17 type  2   force =    -0.00009494   -0.00007740    0.00005809
     atom   18 type  4   force =    -0.00025789   -0.00007315    0.00003633
     atom   19 type  3   force =     0.00001347   -0.00001668   -0.00002067
     atom   20 type  3   force =     0.00001594   -0.00000161   -0.00001237
     atom   21 type  2   force =     0.00011160   -0.00006515   -0.00012229
     atom   22 type  4   force =     0.00005590    0.00013912   -0.00031227
     atom   23 type  1   force =    -0.00015601    0.00016526    0.00025990
     atom   24 type  4   force =    -0.00006968    0.00021816    0.00032978
     atom   25 type  1   force =     0.00012798    0.00003108   -0.00006771
     atom   26 type  1   force =    -0.00020892    0.00011847   -0.00004397
     atom   27 type  4   force =    -0.00034297    0.00006311    0.00018736
     atom   28 type  1   force =     0.00007208   -0.00009623    0.00004732
     atom   29 type  3   force =     0.00000376   -0.00000263   -0.00000188
     atom   30 type  3   force =     0.00001167    0.00000196    0.00000151
     atom   31 type  2   force =     0.00009494   -0.00007740   -0.00005809
     atom   32 type  4   force =     0.00025789   -0.00007315   -0.00003633
     atom   33 type  3   force =    -0.00001347   -0.00001668    0.00002067
     atom   34 type  3   force =    -0.00001594   -0.00000161    0.00001237
     atom   35 type  2   force =    -0.00011160   -0.00006515    0.00012229
     atom   36 type  4   force =    -0.00005590    0.00013912    0.00031227
     atom   37 type  1   force =     0.00015601    0.00016526   -0.00025990
     atom   38 type  4   force =     0.00006968    0.00021816   -0.00032978
     atom   39 type  1   force =    -0.00012798    0.00003108    0.00006771
     atom   40 type  1   force =     0.00020892    0.00011847    0.00004397
     atom   41 type  4   force =     0.00034297    0.00006311   -0.00018736
     atom   42 type  1   force =    -0.00007208   -0.00009623   -0.00004732
     atom   43 type  3   force =     0.00000376    0.00000263   -0.00000188
     atom   44 type  3   force =     0.00001167   -0.00000196    0.00000151
     atom   45 type  2   force =     0.00009494    0.00007740   -0.00005809
     atom   46 type  4   force =     0.00025789    0.00007315   -0.00003633
     atom   47 type  3   force =    -0.00001347    0.00001668    0.00002067
     atom   48 type  3   force =    -0.00001594    0.00000161    0.00001237
     atom   49 type  2   force =    -0.00011160    0.00006515    0.00012229
     atom   50 type  4   force =    -0.00005590   -0.00013912    0.00031227
     atom   51 type  1   force =     0.00015601   -0.00016526   -0.00025990
     atom   52 type  4   force =     0.00006968   -0.00021816   -0.00032978
     atom   53 type  1   force =    -0.00012798   -0.00003108    0.00006771
     atom   54 type  1   force =     0.00020892   -0.00011847    0.00004397
     atom   55 type  4   force =     0.00034297   -0.00006311   -0.00018736
     atom   56 type  1   force =    -0.00007208    0.00009623   -0.00004732

     Total force =     1.056799     Total SCF correction =     0.001766


     entering subroutine stress ...

          total   stress  (Ry/bohr**3)                   (kbar)     P=  134.75
   0.00095058   0.00000000   0.00012048        139.84      0.00     17.72
   0.00000000   0.00092509   0.00000000          0.00    136.09      0.00
   0.00012048   0.00000000   0.00087242         17.72      0.00    128.34

     kinetic stress (kbar)  15307.38      0.00    336.36
                                0.00  15726.90      0.00
                              336.36      0.00  15258.85

     local   stress (kbar) -15741.27      0.00   7919.14
                                0.00  -8766.46      0.00
                             7919.14      0.00 -11903.59

     nonloc. stress (kbar)   1033.37      0.00     10.84
                                0.00   1042.98      0.00
                               10.84      0.00   1003.05

     hartree stress (kbar)   7094.67     -0.00  -2890.53
                               -0.00   5049.60      0.00
                            -2890.53      0.00   5625.15

     exc-cor stress (kbar)  -2207.43      0.00    -10.98
                                0.00  -2227.97      0.00
                              -10.98      0.00  -2213.11

     corecor stress (kbar)  -1147.12      0.00     -2.79
                                0.00  -1149.10     -0.00
                               -2.79     -0.00  -1146.79

     ewald   stress (kbar)  -4199.77     -0.00  -5344.31
                               -0.00  -9539.87     -0.00
                            -5344.31     -0.00  -6495.22

     hubbard stress (kbar)      0.00      0.00      0.00
                                0.00      0.00      0.00
                                0.00      0.00      0.00

     london  stress (kbar)      0.00      0.00      0.00
                                0.00      0.00      0.00
                                0.00      0.00      0.00

     XDM     stress (kbar)      0.00      0.00      0.00
                                0.00      0.00      0.00
                                0.00      0.00      0.00

     dft-nl  stress (kbar)      0.00      0.00      0.00
                                0.00      0.00      0.00
                                0.00      0.00      0.00

     TS-vdW  stress (kbar)      0.00      0.00      0.00
                                0.00      0.00      0.00
                                0.00      0.00      0.00



     Writing output data file scf.pbe.ec-60.kp-444.HMX-792932.np-8.default-conv-thr.save

     init_run     :    164.39s CPU    181.66s WALL (       1 calls)
     electrons    :   4901.01s CPU   5527.87s WALL (       1 calls)
     forces       :     95.47s CPU    104.70s WALL (       1 calls)
     stress       :    286.79s CPU    291.96s WALL (       1 calls)

     Called by init_run:
     wfcinit      :    112.78s CPU    125.25s WALL (       1 calls)
     potinit      :     16.95s CPU     17.68s WALL (       1 calls)

     Called by electrons:
     c_bands      :   4237.14s CPU   4754.48s WALL (      16 calls)
     sum_band     :    578.54s CPU    676.79s WALL (      16 calls)
     v_of_rho     :     15.72s CPU     16.74s WALL (      17 calls)
     v_h          :      1.44s CPU      1.51s WALL (      17 calls)
     v_xc         :     15.95s CPU     16.98s WALL (      19 calls)
     newd         :     59.08s CPU     69.79s WALL (      17 calls)
     PAW_pot      :     11.08s CPU     11.46s WALL (      17 calls)
     mix_rho      :      3.22s CPU      3.43s WALL (      16 calls)

     Called by c_bands:
     init_us_2    :     20.40s CPU     21.33s WALL (     560 calls)
     cegterg      :   4203.18s CPU   4700.91s WALL (     256 calls)

     Called by sum_band:
     sum_band:bec :      0.28s CPU      0.26s WALL (     256 calls)
     addusdens    :     99.57s CPU    142.78s WALL (      16 calls)

     Called by *egterg:
     h_psi        :   2084.16s CPU   2315.45s WALL (    1251 calls)
     s_psi        :    489.12s CPU    517.25s WALL (    1251 calls)
     g_psi        :      3.44s CPU      4.10s WALL (     979 calls)
     cdiaghg      :    286.26s CPU    301.86s WALL (    1235 calls)
     cegterg:over :    570.72s CPU    676.63s WALL (     979 calls)
     cegterg:upda :    300.27s CPU    312.46s WALL (     979 calls)
     cegterg:last :    207.43s CPU    226.02s WALL (     287 calls)

     Called by h_psi:
     h_psi:vloc   :   1028.60s CPU   1130.10s WALL (    1251 calls)
     h_psi:vnl    :   1044.46s CPU   1173.84s WALL (    1251 calls)
     add_vuspsi   :    490.88s CPU    533.33s WALL (    1251 calls)

     General routines
     calbec       :    799.95s CPU    924.87s WALL (    1587 calls)
     fft          :     17.55s CPU     21.86s WALL (     293 calls)
     ffts         :      0.20s CPU      0.30s WALL (      33 calls)
     fftw         :    677.00s CPU    784.12s WALL (  203728 calls)
     interpolate  :      2.69s CPU      3.08s WALL (      33 calls)
     davcio       :      0.31s CPU      7.98s WALL (      16 calls)

     Parallel routines
     fft_scatter  :    340.77s CPU    438.32s WALL (  204054 calls)

     PAW routines
     PAW_pot      :     11.08s CPU     11.46s WALL (      17 calls)
     PAW_symme    :      0.02s CPU      0.03s WALL (      33 calls)

     PWSCF        :     1h30m CPU        1h41m WALL


   This run was terminated on:   9: 2:39  25Jun2016            

=------------------------------------------------------------------------------=
   JOB DONE.
=------------------------------------------------------------------------------=
