
     Program PWSCF v.5.3.0 (svn rev. 11974) starts on 24May2016 at  2:49:46 

     This program is part of the open-source Quantum ESPRESSO suite
     for quantum simulation of materials; please cite
         "P. Giannozzi et al., J. Phys.:Condens. Matter 21 395502 (2009);
          URL http://www.quantum-espresso.org", 
     in publications or presentations arising from this work. More details at
     http://www.quantum-espresso.org/quote

     Parallel version (MPI), running on     8 processors
     R & G space division:  proc/nbgrp/npool/nimage =       8
     Waiting for input...
     Reading input from standard input
Warning: card     &CELL ignored
Warning: card CELL_DYNAMICS='BFGS' ignored
Warning: card / ignored

     Current dimensions of program PWSCF are:
     Max number of different atomic species (ntypx) = 10
     Max number of k-points (npk) =  40000
     Max angular momentum in pseudopotentials (lmaxx) =  3
               file N.pbe-n-kjpaw_psl.1.0.0.UPF: wavefunction(s)  2S renormalized
               file C.pbe-n-kjpaw_psl.1.0.0.UPF: wavefunction(s)  2S 2P renormalized
               file H.pbe-kjpaw_psl.1.0.0.UPF: wavefunction(s)  1S renormalized
               file O.pbe-n-kjpaw_psl.1.0.0.UPF: wavefunction(s)  2S 2P renormalized

     gamma-point specific algorithms are used

     Subspace diagonalization in iterative solution of the eigenvalue problem:
     a serial algorithm will be used


     Parallelization info
     --------------------
     sticks:   dense  smooth     PW     G-vecs:    dense   smooth      PW
     Min        2038     814    203               165732    41912    5249
     Max        2041     816    206               165734    41948    5254
     Sum       16309    6521   1637              1325869   335487   42011
     Tot        8155    3261    819


     Title: 
     HMX-scf-pbe-n-kjpaw-gamma-ec-80-relax                                      


     bravais-lattice index     =            0
     lattice parameter (alat)  =       1.8897  a.u.
     unit-cell volume          =    3470.0091 (a.u.)^3
     number of atoms/cell      =           56
     number of atomic types    =            4
     number of electrons       =       224.00
     number of Kohn-Sham states=          112
     kinetic-energy cutoff     =      80.0000  Ry
     charge density cutoff     =     800.0000  Ry
     convergence threshold     =      1.0E-06
     mixing beta               =       0.7000
     number of iterations used =            8  plain     mixing
     Exchange-correlation      =  SLA  PW   PBX  PBC ( 1  4  3  4 0 0)
     nstep                     =          200


     celldm(1)=   1.889726  celldm(2)=   0.000000  celldm(3)=   0.000000
     celldm(4)=   0.000000  celldm(5)=   0.000000  celldm(6)=   0.000000

     crystal axes: (cart. coord. in units of alat)
               a(1) = (   6.528900   0.000000   0.000000 )  
               a(2) = (   0.000000  10.987500   0.000000 )  
               a(3) = (  -1.604329   0.000000   7.167954 )  

     reciprocal axes: (cart. coord. in units 2 pi/alat)
               b(1) = (  0.153165 -0.000000  0.034281 )  
               b(2) = (  0.000000  0.091013 -0.000000 )  
               b(3) = (  0.000000  0.000000  0.139510 )  


     PseudoPot. # 1 for  N read from file:
     /users/majewski/.data/PSEUDOPOTENTIALS/N.pbe-n-kjpaw_psl.1.0.0.UPF
     MD5 check sum: c21df8f53e59d08c3548513d559cdda6
     Pseudo is Projector augmented-wave + core cor, Zval =  5.0
     Generated using "atomic" code by A. Dal Corso  v.5.3.0 svn rev. 11974
     Shape of augmentation charge: PSQ
     Using radial grid of 1085 points,  4 beta functions with: 
                l(1) =   0
                l(2) =   0
                l(3) =   1
                l(4) =   1
     Q(r) pseudized with 0 coefficients 


     PseudoPot. # 2 for  C read from file:
     /users/majewski/.data/PSEUDOPOTENTIALS/C.pbe-n-kjpaw_psl.1.0.0.UPF
     MD5 check sum: 2ba8448e293caca687844dde9a1b88a8
     Pseudo is Projector augmented-wave + core cor, Zval =  4.0
     Generated using "atomic" code by A. Dal Corso  v.5.3.0 svn rev. 11974
     Shape of augmentation charge: PSQ
     Using radial grid of 1073 points,  4 beta functions with: 
                l(1) =   0
                l(2) =   0
                l(3) =   1
                l(4) =   1
     Q(r) pseudized with 0 coefficients 


     PseudoPot. # 3 for  H read from file:
     /users/majewski/.data/PSEUDOPOTENTIALS/H.pbe-kjpaw_psl.1.0.0.UPF
     MD5 check sum: bc0feb48a24907a0b97fa6ee2d589a29
     Pseudo is Projector augmented-wave, Zval =  1.0
     Generated using "atomic" code by A. Dal Corso  v.5.3.0 svn rev. 11974
     Shape of augmentation charge: PSQ
     Using radial grid of  929 points,  2 beta functions with: 
                l(1) =   0
                l(2) =   0
     Q(r) pseudized with 0 coefficients 


     PseudoPot. # 4 for  O read from file:
     /users/majewski/.data/PSEUDOPOTENTIALS/O.pbe-n-kjpaw_psl.1.0.0.UPF
     MD5 check sum: 9c0ade6c043cf4a781bde3908a3a8206
     Pseudo is Projector augmented-wave + core cor, Zval =  6.0
     Generated using "atomic" code by A. Dal Corso  v.5.3.0 svn rev. 11974
     Shape of augmentation charge: PSQ
     Using radial grid of 1095 points,  4 beta functions with: 
                l(1) =   0
                l(2) =   0
                l(3) =   1
                l(4) =   1
     Q(r) pseudized with 0 coefficients 


     atomic species   valence    mass     pseudopotential
        N              5.00    14.00670      N( 1.00)
        C              4.00    12.01100      C( 1.00)
        H              1.00     1.00790      H( 1.00)
        O              6.00    15.99940      O( 1.00)

      2 Sym. Ops., with inversion, found
          (note:  2 additional sym.ops. were found but ignored
           their fractional translations are incommensurate with FFT grid)

                                    s                        frac. trans.

      isym =  1     identity                                     

 cryst.   s( 1) = (     1          0          0      )
                  (     0          1          0      )
                  (     0          0          1      )

 cart.    s( 1) = (  1.0000000  0.0000000  0.0000000 )
                  (  0.0000000  1.0000000  0.0000000 )
                  (  0.0000000  0.0000000  1.0000000 )


      isym =  2     inversion                                    

 cryst.   s( 2) = (    -1          0          0      )
                  (     0         -1          0      )
                  (     0          0         -1      )

 cart.    s( 2) = ( -1.0000000  0.0000000 -0.0000000 )
                  (  0.0000000 -1.0000000  0.0000000 )
                  (  0.0000000  0.0000000 -1.0000000 )


   Cartesian axes

     site n.     atom                  positions (alat units)
         1           N   tau(   1) = (  -0.8614487   6.8444434   3.3109495  )
         2           O   tau(   2) = (   1.0746241   7.9096815   3.1371266  )
         3           N   tau(   3) = (   0.0618658   7.7221249   3.8135664  )
         4           N   tau(   4) = (  -2.0647129   5.7697560   5.0587833  )
         5           O   tau(   5) = (  -3.2542440   4.7069351   6.6110753  )
         6           N   tau(   6) = (  -3.2426279   5.5114399   5.6869828  )
         7           O   tau(   7) = (  -0.1753723   8.2085415   4.8971459  )
         8           C   tau(   8) = (  -2.1300386   6.7612680   3.9714764  )
         9           H   tau(   9) = (  -2.8138762   6.5024025   3.3338152  )
        10           H   tau(  10) = (  -2.3673225   7.6286213   4.3344616  )
        11           O   tau(  11) = (  -4.2140784   6.1608011   5.2929603  )
        12           C   tau(  12) = (  -0.5990533   6.2146399   2.0230832  )
        13           H   tau(  13) = (  -1.3903515   5.7475613   1.7138577  )
        14           H   tau(  14) = (  -0.3482788   6.8660888   1.3518761  )
        15           H   tau(  15) = (   3.7183358  -1.3723388  -2.2321008  )
        16           H   tau(  16) = (   2.6762631  -0.2538112  -1.8701191  )
        17           C   tau(  17) = (   3.4675614  -0.7208899  -1.5608936  )
        18           O   tau(  18) = (  -0.1474638  -0.6670511   1.7089835  )
        19           H   tau(  19) = (   1.6992921  -2.1348713   0.7504847  )
        20           H   tau(  20) = (   1.2527385  -1.0086525  -0.2501616  )
        21           C   tau(  21) = (   1.9365761  -1.2675180   0.3874996  )
        22           O   tau(  22) = (   3.8912424  -2.7147915   1.3131691  )
        23           N   tau(  23) = (   0.8239867  -0.0176899   2.1030059  )
        24           O   tau(  24) = (   0.8123707   0.7868149   3.0270985  )
        25           N   tau(  25) = (   2.0019018  -0.2760060   1.4748065  )
        26           N   tau(  26) = (   4.1284804  -2.2283749   0.2295896  )
        27           O   tau(  27) = (   5.1412387  -2.4159315  -0.4468502  )
        28           N   tau(  28) = (   3.2051660  -1.3506934  -0.2730274  )
        29           H   tau(  29) = (  -1.2560505   4.1214113   5.8160776  )
        30           H   tau(  30) = (  -0.2139778   5.2399388   5.4540959  )
        31           C   tau(  31) = (  -1.0052760   4.7728601   5.1448704  )
        32           O   tau(  32) = (   2.6097491   4.8266989   1.8749933  )
        33           H   tau(  33) = (   0.7629932   3.3588788   2.8334921  )
        34           H   tau(  34) = (   1.2095469   4.4850975   3.8341384  )
        35           C   tau(  35) = (   0.5257093   4.2262320   3.1964773  )
        36           O   tau(  36) = (  -1.4289570   2.7789585   2.2708077  )
        37           N   tau(  37) = (   1.6382987   5.4760601   1.4809709  )
        38           O   tau(  38) = (   1.6499147   6.2805649   0.5568783  )
        39           N   tau(  39) = (   0.4603836   5.2177440   2.1091704  )
        40           N   tau(  40) = (  -1.6661950   3.2653751   3.3543873  )
        41           O   tau(  41) = (  -2.6789534   3.0778185   4.0308271  )
        42           N   tau(  42) = (  -0.7428806   4.1430566   3.8570042  )
        43           H   tau(  43) = (   2.8105642   1.3723388   2.2321008  )
        44           H   tau(  44) = (   3.8526369   0.2538112   1.8701191  )
        45           C   tau(  45) = (   3.0613386   0.7208899   1.5608936  )
        46           O   tau(  46) = (   6.6763638   0.6670511  -1.7089835  )
        47           H   tau(  47) = (   4.8296079   2.1348713  -0.7504847  )
        48           H   tau(  48) = (   5.2761615   1.0086525   0.2501616  )
        49           C   tau(  49) = (   4.5923239   1.2675180  -0.3874996  )
        50           O   tau(  50) = (   2.6376576   2.7147915  -1.3131691  )
        51           N   tau(  51) = (   5.7049133   0.0176899  -2.1030059  )
        52           O   tau(  52) = (   5.7165293  -0.7868149  -3.0270985  )
        53           N   tau(  53) = (   4.5269982   0.2760060  -1.4748065  )
        54           N   tau(  54) = (   2.4004196   2.2283749  -0.2295896  )
        55           O   tau(  55) = (   1.3876613   2.4159315   0.4468502  )
        56           N   tau(  56) = (   3.3237340   1.3506934   0.2730274  )

   Crystallographic axes

     site n.     atom                  positions (cryst. coord.)
         1           N   tau(   1) = ( -0.0184400  0.6229300  0.4619100  )
         2           O   tau(   2) = (  0.2721400  0.7198800  0.4376600  )
         3           N   tau(   3) = (  0.1402100  0.7028100  0.5320300  )
         4           N   tau(   4) = ( -0.1428200  0.5251200  0.7057500  )
         5           O   tau(   5) = ( -0.2718000  0.4283900  0.9223100  )
         6           N   tau(   6) = ( -0.3017000  0.5016100  0.7933900  )
         7           O   tau(   7) = (  0.1410200  0.7470800  0.6832000  )
         8           C   tau(   8) = ( -0.1901000  0.6153600  0.5540600  )
         9           H   tau(   9) = ( -0.3167000  0.5918000  0.4651000  )
        10           H   tau(  10) = ( -0.2140000  0.6943000  0.6047000  )
        11           O   tau(  11) = ( -0.4640000  0.5607100  0.7384200  )
        12           C   tau(  12) = ( -0.0224000  0.5656100  0.2822400  )
        13           H   tau(  13) = ( -0.1542000  0.5231000  0.2391000  )
        14           H   tau(  14) = ( -0.0070000  0.6249000  0.1886000  )
        15           H   tau(  15) = (  0.4930000 -0.1249000 -0.3114000  )
        16           H   tau(  16) = (  0.3458000 -0.0231000 -0.2609000  )
        17           C   tau(  17) = (  0.4776000 -0.0656100 -0.2177600  )
        18           O   tau(  18) = (  0.0360000 -0.0607100  0.2384200  )
        19           H   tau(  19) = (  0.2860000 -0.1943000  0.1047000  )
        20           H   tau(  20) = (  0.1833000 -0.0918000 -0.0349000  )
        21           C   tau(  21) = (  0.3099000 -0.1153600  0.0540600  )
        22           O   tau(  22) = (  0.6410200 -0.2470800  0.1832000  )
        23           N   tau(  23) = (  0.1983000 -0.0016100  0.2933900  )
        24           O   tau(  24) = (  0.2282000  0.0716100  0.4223100  )
        25           N   tau(  25) = (  0.3571800 -0.0251200  0.2057500  )
        26           N   tau(  26) = (  0.6402100 -0.2028100  0.0320300  )
        27           O   tau(  27) = (  0.7721400 -0.2198800 -0.0623400  )
        28           N   tau(  28) = (  0.4815600 -0.1229300 -0.0380900  )
        29           H   tau(  29) = (  0.0070000  0.3751000  0.8114000  )
        30           H   tau(  30) = (  0.1542000  0.4769000  0.7609000  )
        31           C   tau(  31) = (  0.0224000  0.4343900  0.7177600  )
        32           O   tau(  32) = (  0.4640000  0.4392900  0.2615800  )
        33           H   tau(  33) = (  0.2140000  0.3057000  0.3953000  )
        34           H   tau(  34) = (  0.3167000  0.4082000  0.5349000  )
        35           C   tau(  35) = (  0.1901000  0.3846400  0.4459400  )
        36           O   tau(  36) = ( -0.1410200  0.2529200  0.3168000  )
        37           N   tau(  37) = (  0.3017000  0.4983900  0.2066100  )
        38           O   tau(  38) = (  0.2718000  0.5716100  0.0776900  )
        39           N   tau(  39) = (  0.1428200  0.4748800  0.2942500  )
        40           N   tau(  40) = ( -0.1402100  0.2971900  0.4679700  )
        41           O   tau(  41) = ( -0.2721400  0.2801200  0.5623400  )
        42           N   tau(  42) = (  0.0184400  0.3770700  0.5380900  )
        43           H   tau(  43) = (  0.5070000  0.1249000  0.3114000  )
        44           H   tau(  44) = (  0.6542000  0.0231000  0.2609000  )
        45           C   tau(  45) = (  0.5224000  0.0656100  0.2177600  )
        46           O   tau(  46) = (  0.9640000  0.0607100 -0.2384200  )
        47           H   tau(  47) = (  0.7140000  0.1943000 -0.1047000  )
        48           H   tau(  48) = (  0.8167000  0.0918000  0.0349000  )
        49           C   tau(  49) = (  0.6901000  0.1153600 -0.0540600  )
        50           O   tau(  50) = (  0.3589800  0.2470800 -0.1832000  )
        51           N   tau(  51) = (  0.8017000  0.0016100 -0.2933900  )
        52           O   tau(  52) = (  0.7718000 -0.0716100 -0.4223100  )
        53           N   tau(  53) = (  0.6428200  0.0251200 -0.2057500  )
        54           N   tau(  54) = (  0.3597900  0.2028100 -0.0320300  )
        55           O   tau(  55) = (  0.2278600  0.2198800  0.0623400  )
        56           N   tau(  56) = (  0.5184400  0.1229300  0.0380900  )

     number of k points=     1
                       cart. coord. in units 2pi/alat
        k(    1) = (   0.0000000   0.0000000   0.0000000), wk =   2.0000000

                       cryst. coord.
        k(    1) = (   0.0000000   0.0000000   0.0000000), wk =   2.0000000

     Dense  grid:   662935 G-vectors     FFT dimensions: ( 120, 192, 125)

     Smooth grid:   167744 G-vectors     FFT dimensions: (  72, 120,  80)

     Largest allocated arrays     est. size (Mb)     dimensions
        Kohn-Sham Wavefunctions         4.49 Mb     (    2627,  112)
        NL pseudopotentials            14.11 Mb     (    2627,  352)
        Each V/rho on FFT grid          5.63 Mb     (  368640)
        Each G-vector array             0.63 Mb     (   82867)
        G-vector shells                 0.60 Mb     (   78380)
     Largest temporary arrays     est. size (Mb)     dimensions
        Auxiliary wavefunctions         8.98 Mb     (    2627,  448)
        Each subspace H/S matrix        1.53 Mb     (     448,  448)
        Each <psi_i|beta_j> matrix      0.30 Mb     (     352,  112)
        Arrays for rho mixing          45.00 Mb     (  368640,    8)

     Initial potential from superposition of free atoms

     starting charge  223.99937, renormalised to  224.00000
     Starting wfc are  176 randomized atomic wfcs
     Checking if some PAW data can be deallocated... 
       node    0, deallocated PAW data for type:  2
       node    0, deallocated PAW data for type:  3
       node    1, deallocated PAW data for type:  1
       node    2, deallocated PAW data for type:  1
       node    3, deallocated PAW data for type:  2
       node    3, deallocated PAW data for type:  3
       node    4, deallocated PAW data for type:  1
       node    5, deallocated PAW data for type:  2
       node    5, deallocated PAW data for type:  3
       node    6, deallocated PAW data for type:  1
       node    7, deallocated PAW data for type:  2
       node    7, deallocated PAW data for type:  3

     total cpu time spent up to now is       49.6 secs

     per-process dynamical memory:   104.4 Mb

     Self-consistent Calculation

     iteration #  1     ecut=    80.00 Ry     beta=0.70
     Davidson diagonalization with overlap
     ethr =  1.00E-02,  avg # of iterations =  3.0

     total cpu time spent up to now is       71.9 secs

     total energy              =   -1279.57351984 Ry
     Harris-Foulkes estimate   =   -1283.94729918 Ry
     estimated scf accuracy    <       6.74032692 Ry

     iteration #  2     ecut=    80.00 Ry     beta=0.70
     Davidson diagonalization with overlap
     ethr =  3.01E-03,  avg # of iterations =  4.0

     total cpu time spent up to now is       96.6 secs

     total energy              =   -1280.25248779 Ry
     Harris-Foulkes estimate   =   -1283.76308914 Ry
     estimated scf accuracy    <       7.07204565 Ry

     iteration #  3     ecut=    80.00 Ry     beta=0.70
     Davidson diagonalization with overlap
     ethr =  3.01E-03,  avg # of iterations =  5.0

     total cpu time spent up to now is      118.1 secs

     total energy              =   -1281.77200205 Ry
     Harris-Foulkes estimate   =   -1282.01418395 Ry
     estimated scf accuracy    <       0.45159581 Ry

     iteration #  4     ecut=    80.00 Ry     beta=0.70
     Davidson diagonalization with overlap
     ethr =  2.02E-04,  avg # of iterations =  5.0

     total cpu time spent up to now is      147.0 secs

     total energy              =   -1281.92267338 Ry
     Harris-Foulkes estimate   =   -1282.01223955 Ry
     estimated scf accuracy    <       0.19757224 Ry

     iteration #  5     ecut=    80.00 Ry     beta=0.70
     Davidson diagonalization with overlap
     ethr =  8.82E-05,  avg # of iterations =  5.0

     total cpu time spent up to now is      169.6 secs

     total energy              =   -1281.96328513 Ry
     Harris-Foulkes estimate   =   -1281.97090522 Ry
     estimated scf accuracy    <       0.01825244 Ry

     iteration #  6     ecut=    80.00 Ry     beta=0.70
     Davidson diagonalization with overlap
     ethr =  8.15E-06,  avg # of iterations =  6.0

     total cpu time spent up to now is      191.2 secs

     total energy              =   -1281.96653402 Ry
     Harris-Foulkes estimate   =   -1281.96832469 Ry
     estimated scf accuracy    <       0.00415169 Ry

     iteration #  7     ecut=    80.00 Ry     beta=0.70
     Davidson diagonalization with overlap
     ethr =  1.85E-06,  avg # of iterations =  5.0

     total cpu time spent up to now is      212.6 secs

     total energy              =   -1281.96757041 Ry
     Harris-Foulkes estimate   =   -1281.96771605 Ry
     estimated scf accuracy    <       0.00037451 Ry

     iteration #  8     ecut=    80.00 Ry     beta=0.70
     Davidson diagonalization with overlap
     ethr =  1.67E-07,  avg # of iterations =  5.0

     total cpu time spent up to now is      236.8 secs

     total energy              =   -1281.96768796 Ry
     Harris-Foulkes estimate   =   -1281.96774807 Ry
     estimated scf accuracy    <       0.00014757 Ry

     iteration #  9     ecut=    80.00 Ry     beta=0.70
     Davidson diagonalization with overlap
     ethr =  6.59E-08,  avg # of iterations =  5.0

     total cpu time spent up to now is      256.1 secs

     total energy              =   -1281.96770027 Ry
     Harris-Foulkes estimate   =   -1281.96770678 Ry
     estimated scf accuracy    <       0.00001532 Ry

     iteration # 10     ecut=    80.00 Ry     beta=0.70
     Davidson diagonalization with overlap
     ethr =  6.84E-09,  avg # of iterations =  5.0

     total cpu time spent up to now is      282.8 secs

     total energy              =   -1281.96771624 Ry
     Harris-Foulkes estimate   =   -1281.96772473 Ry
     estimated scf accuracy    <       0.00003010 Ry

     iteration # 11     ecut=    80.00 Ry     beta=0.70
     Davidson diagonalization with overlap
     ethr =  6.84E-09,  avg # of iterations =  1.0

     total cpu time spent up to now is      301.0 secs

     total energy              =   -1281.96770905 Ry
     Harris-Foulkes estimate   =   -1281.96771685 Ry
     estimated scf accuracy    <       0.00001608 Ry

     iteration # 12     ecut=    80.00 Ry     beta=0.70
     Davidson diagonalization with overlap
     ethr =  6.84E-09,  avg # of iterations =  4.0

     total cpu time spent up to now is      325.1 secs

     total energy              =   -1281.96771623 Ry
     Harris-Foulkes estimate   =   -1281.96772158 Ry
     estimated scf accuracy    <       0.00001595 Ry

     iteration # 13     ecut=    80.00 Ry     beta=0.70
     Davidson diagonalization with overlap
     ethr =  6.84E-09,  avg # of iterations =  1.0

     total cpu time spent up to now is      343.4 secs

     total energy              =   -1281.96771444 Ry
     Harris-Foulkes estimate   =   -1281.96771659 Ry
     estimated scf accuracy    <       0.00000735 Ry

     iteration # 14     ecut=    80.00 Ry     beta=0.70
     Davidson diagonalization with overlap
     ethr =  3.28E-09,  avg # of iterations =  4.0

     total cpu time spent up to now is      366.3 secs

     total energy              =   -1281.96771783 Ry
     Harris-Foulkes estimate   =   -1281.96771829 Ry
     estimated scf accuracy    <       0.00000197 Ry

     iteration # 15     ecut=    80.00 Ry     beta=0.70
     Davidson diagonalization with overlap
     ethr =  8.81E-10,  avg # of iterations =  1.0

     total cpu time spent up to now is      384.5 secs

     total energy              =   -1281.96771728 Ry
     Harris-Foulkes estimate   =   -1281.96771785 Ry
     estimated scf accuracy    <       0.00000121 Ry

     iteration # 16     ecut=    80.00 Ry     beta=0.70
     Davidson diagonalization with overlap
     ethr =  5.41E-10,  avg # of iterations =  5.0

     total cpu time spent up to now is      407.8 secs

     total energy              =   -1281.96771781 Ry
     Harris-Foulkes estimate   =   -1281.96771811 Ry
     estimated scf accuracy    <       0.00000119 Ry

     iteration # 17     ecut=    80.00 Ry     beta=0.70
     Davidson diagonalization with overlap
     ethr =  5.29E-10,  avg # of iterations =  1.0

     total cpu time spent up to now is      425.3 secs

     End of self-consistent calculation

          k = 0.0000 0.0000 0.0000 ( 21006 PWs)   bands (ev):

   -24.0603 -24.0350 -24.0328 -24.0173 -23.6373 -23.6278 -23.6226 -23.6218
   -19.2320 -19.2260 -19.2202 -19.2069 -18.8262 -18.8247 -18.8193 -18.8184
   -18.2905 -18.2532 -17.2932 -17.2233 -17.0906 -17.0895 -16.0945 -16.0744
   -12.1596 -12.1422 -12.1364 -12.0095 -11.9818 -11.8891 -11.8397 -11.8113
    -8.9344  -8.8477  -8.3163  -8.2742  -7.5941  -7.5583  -7.5095  -7.4546
    -6.8415  -6.7441  -6.6456  -6.5650  -6.5299  -6.4017  -6.3869  -6.2937
    -6.1452  -6.1019  -6.0767  -6.0379  -5.9648  -5.9118  -5.7426  -5.6936
    -5.6572  -5.6492  -5.6268  -5.5972  -5.1237  -5.0411  -4.9682  -4.9285
    -4.5471  -4.4806  -4.4569  -4.4402  -4.3025  -4.1668  -3.8895  -3.8096
    -3.7867  -3.6156  -3.5612  -3.5268  -3.1825  -3.1257  -3.1079  -3.0920
    -0.7933  -0.7902  -0.3469  -0.3388  -0.2509  -0.1657  -0.1628  -0.0624
    -0.0463  -0.0084   0.1672   0.1943   0.2002   0.2403   0.3483   0.4019
     0.4240   0.4480   0.5955   0.6997   0.7440   0.8480   0.8488   0.8846
     0.8957   1.0213   1.0661   1.1378   1.1905   1.3587   1.3724   1.3745

     occupation numbers 
     1.0000   1.0000   1.0000   1.0000   1.0000   1.0000   1.0000   1.0000
     1.0000   1.0000   1.0000   1.0000   1.0000   1.0000   1.0000   1.0000
     1.0000   1.0000   1.0000   1.0000   1.0000   1.0000   1.0000   1.0000
     1.0000   1.0000   1.0000   1.0000   1.0000   1.0000   1.0000   1.0000
     1.0000   1.0000   1.0000   1.0000   1.0000   1.0000   1.0000   1.0000
     1.0000   1.0000   1.0000   1.0000   1.0000   1.0000   1.0000   1.0000
     1.0000   1.0000   1.0000   1.0000   1.0000   1.0000   1.0000   1.0000
     1.0000   1.0000   1.0000   1.0000   1.0000   1.0000   1.0000   1.0000
     1.0000   1.0000   1.0000   1.0000   1.0000   1.0000   1.0000   1.0000
     1.0000   1.0000   1.0000   1.0000   1.0000   1.0000   1.0000   1.0000
     1.0000   1.0000   1.0000   1.0000   1.0000   1.0000   1.0000   1.0000
     1.0000   1.0000   1.0000   1.0000   1.0000   1.0000   1.0000   1.0000
     1.0000   1.0000   1.0000   1.0000   1.0000   1.0000   1.0000   1.0000
     1.0000   1.0000   1.0000   1.0000   1.0000   1.0000   1.0000   1.0000

     highest occupied level (ev):     1.3745

!    total energy              =   -1281.96771719 Ry
     Harris-Foulkes estimate   =   -1281.96771782 Ry
     estimated scf accuracy    <       0.00000070 Ry

     total all-electron energy =     -4786.411465 Ry

     The total energy is the sum of the following terms:

     one-electron contribution =    -646.84329579 Ry
     hartree contribution      =     421.55982908 Ry
     xc contribution           =    -260.42114393 Ry
     ewald contribution        =    -465.86389729 Ry
     one-center paw contrib.   =    -330.39920926 Ry

     convergence has been achieved in  17 iterations

     Forces acting on atoms (Ry/au):

     atom    1 type  1   force =    -0.01258145   -0.01516090   -0.02481073
     atom    2 type  4   force =     0.02745118    0.00214286   -0.02286090
     atom    3 type  1   force =     0.00842794   -0.01147827   -0.03222791
     atom    4 type  1   force =     0.01120561   -0.00341752    0.00541167
     atom    5 type  4   force =     0.00271475   -0.03181006    0.03172260
     atom    6 type  1   force =     0.00688298    0.00271366   -0.00568671
     atom    7 type  4   force =    -0.01567348    0.03024305    0.06655377
     atom    8 type  2   force =     0.19203731   -0.12851533    0.06056898
     atom    9 type  3   force =    -0.15244893   -0.06545981   -0.15667661
     atom   10 type  3   force =    -0.05088641    0.20265243    0.09291818
     atom   11 type  4   force =    -0.03915974    0.01993171   -0.01868280
     atom   12 type  2   force =     0.12384764   -0.05310221    0.21528476
     atom   13 type  3   force =    -0.20200387   -0.10277892   -0.06004516
     atom   14 type  3   force =     0.06590164    0.15658464   -0.15674634
     atom   15 type  3   force =     0.06590178   -0.15658396   -0.15674573
     atom   16 type  3   force =    -0.20200399    0.10277985   -0.06004516
     atom   17 type  2   force =     0.12385214    0.05310635    0.21528277
     atom   18 type  4   force =    -0.03928488   -0.02003893   -0.01875865
     atom   19 type  3   force =    -0.05088625   -0.20265278    0.09291833
     atom   20 type  3   force =    -0.15244882    0.06545982   -0.15667621
     atom   21 type  2   force =     0.19203127    0.12851292    0.06056766
     atom   22 type  4   force =    -0.01569956   -0.03027503    0.06661945
     atom   23 type  1   force =     0.00689657   -0.00268553   -0.00565722
     atom   24 type  4   force =     0.00271342    0.03163992    0.03153568
     atom   25 type  1   force =     0.01120649    0.00339608    0.00539060
     atom   26 type  1   force =     0.00843215    0.01147872   -0.03222963
     atom   27 type  4   force =     0.02741159   -0.00213264   -0.02281584
     atom   28 type  1   force =    -0.01258706    0.01516021   -0.02480190
     atom   29 type  3   force =    -0.06590164   -0.15658464    0.15674634
     atom   30 type  3   force =     0.20200387    0.10277892    0.06004516
     atom   31 type  2   force =    -0.12384764    0.05310221   -0.21528476
     atom   32 type  4   force =     0.03915974   -0.01993171    0.01868280
     atom   33 type  3   force =     0.05088641   -0.20265243   -0.09291818
     atom   34 type  3   force =     0.15244893    0.06545981    0.15667661
     atom   35 type  2   force =    -0.19203731    0.12851533   -0.06056898
     atom   36 type  4   force =     0.01567348   -0.03024305   -0.06655377
     atom   37 type  1   force =    -0.00688298   -0.00271366    0.00568671
     atom   38 type  4   force =    -0.00271475    0.03181006   -0.03172260
     atom   39 type  1   force =    -0.01120561    0.00341752   -0.00541167
     atom   40 type  1   force =    -0.00842794    0.01147827    0.03222791
     atom   41 type  4   force =    -0.02745118   -0.00214286    0.02286090
     atom   42 type  1   force =     0.01258145    0.01516090    0.02481073
     atom   43 type  3   force =    -0.06590178    0.15658396    0.15674573
     atom   44 type  3   force =     0.20200399   -0.10277985    0.06004516
     atom   45 type  2   force =    -0.12385214   -0.05310635   -0.21528277
     atom   46 type  4   force =     0.03928488    0.02003893    0.01875865
     atom   47 type  3   force =     0.05088625    0.20265278   -0.09291833
     atom   48 type  3   force =     0.15244882   -0.06545982    0.15667621
     atom   49 type  2   force =    -0.19203127   -0.12851292   -0.06056766
     atom   50 type  4   force =     0.01569956    0.03027503   -0.06661945
     atom   51 type  1   force =    -0.00689657    0.00268553    0.00565722
     atom   52 type  4   force =    -0.00271342   -0.03163992   -0.03153568
     atom   53 type  1   force =    -0.01120649   -0.00339608   -0.00539060
     atom   54 type  1   force =    -0.00843215   -0.01147872    0.03222963
     atom   55 type  4   force =    -0.02741159    0.00213264    0.02281584
     atom   56 type  1   force =     0.01258706   -0.01516021    0.02480190
     The non-local contrib.  to forces
     atom    1 type  1   force =     0.17897880    0.36385986    0.11108634
     atom    2 type  4   force =    -2.39911122   -0.46482684    1.51347741
     atom    3 type  1   force =     0.03042438   -0.02341734    0.07290080
     atom    4 type  1   force =    -0.58372975   -0.41547704   -0.12803425
     atom    5 type  4   force =     0.15333789    1.87845879   -2.21592386
     atom    6 type  1   force =    -0.00580916    0.06424267    0.05664986
     atom    7 type  4   force =     0.54345335   -1.19017649   -2.65125536
     atom    8 type  2   force =     0.64809282   -0.45436266    0.18502681
     atom    9 type  3   force =     0.08175887    0.02729353    0.07206213
     atom   10 type  3   force =     0.02963432   -0.10170269   -0.04148899
     atom   11 type  4   force =     2.26339510   -1.47264569    0.84146917
     atom   12 type  2   force =     0.38885217   -0.16599076    0.70490261
     atom   13 type  3   force =     0.09020159    0.05422531    0.04073328
     atom   14 type  3   force =    -0.02748952   -0.07648961    0.08020962
     atom   15 type  3   force =    -0.02748961    0.07649026    0.08021027
     atom   16 type  3   force =     0.09020197   -0.05422547    0.04073308
     atom   17 type  2   force =     0.38885842    0.16600714    0.70491465
     atom   18 type  4   force =     2.26328292    1.47254322    0.84136754
     atom   19 type  3   force =     0.02963403    0.10170154   -0.04148868
     atom   20 type  3   force =     0.08175826   -0.02729348    0.07206126
     atom   21 type  2   force =     0.64808205    0.45435050    0.18501914
     atom   22 type  4   force =     0.54342538    1.19014845   -2.65119274
     atom   23 type  1   force =    -0.00584274   -0.06432108    0.05656843
     atom   24 type  4   force =     0.15333199   -1.87861920   -2.21610707
     atom   25 type  1   force =    -0.58372693    0.41546832   -0.12806428
     atom   26 type  1   force =     0.03040226    0.02341217    0.07293002
     atom   27 type  4   force =    -2.39915026    0.46483002    1.51353031
     atom   28 type  1   force =     0.17896891   -0.36385906    0.11109376
     atom   29 type  3   force =     0.02748952    0.07648961   -0.08020962
     atom   30 type  3   force =    -0.09020159   -0.05422531   -0.04073328
     atom   31 type  2   force =    -0.38885217    0.16599076   -0.70490261
     atom   32 type  4   force =    -2.26339510    1.47264569   -0.84146917
     atom   33 type  3   force =    -0.02963432    0.10170269    0.04148899
     atom   34 type  3   force =    -0.08175887   -0.02729353   -0.07206213
     atom   35 type  2   force =    -0.64809282    0.45436266   -0.18502681
     atom   36 type  4   force =    -0.54345335    1.19017649    2.65125536
     atom   37 type  1   force =     0.00580916   -0.06424267   -0.05664986
     atom   38 type  4   force =    -0.15333789   -1.87845879    2.21592386
     atom   39 type  1   force =     0.58372975    0.41547704    0.12803425
     atom   40 type  1   force =    -0.03042438    0.02341734   -0.07290080
     atom   41 type  4   force =     2.39911122    0.46482684   -1.51347741
     atom   42 type  1   force =    -0.17897880   -0.36385986   -0.11108634
     atom   43 type  3   force =     0.02748961   -0.07649026   -0.08021027
     atom   44 type  3   force =    -0.09020197    0.05422547   -0.04073308
     atom   45 type  2   force =    -0.38885842   -0.16600714   -0.70491465
     atom   46 type  4   force =    -2.26328292   -1.47254322   -0.84136754
     atom   47 type  3   force =    -0.02963403   -0.10170154    0.04148868
     atom   48 type  3   force =    -0.08175826    0.02729348   -0.07206126
     atom   49 type  2   force =    -0.64808205   -0.45435050   -0.18501914
     atom   50 type  4   force =    -0.54342538   -1.19014845    2.65119274
     atom   51 type  1   force =     0.00584274    0.06432108   -0.05656843
     atom   52 type  4   force =    -0.15333199    1.87861920    2.21610707
     atom   53 type  1   force =     0.58372693   -0.41546832    0.12806428
     atom   54 type  1   force =    -0.03040226   -0.02341217   -0.07293002
     atom   55 type  4   force =     2.39915026   -0.46483002   -1.51353031
     atom   56 type  1   force =    -0.17896891    0.36385906   -0.11109376
     The ionic contribution  to forces
     atom    1 type  1   force =    -2.99716665    0.23374213   -2.11266882
     atom    2 type  4   force =    12.25573500    4.35721034   -5.99291823
     atom    3 type  1   force =    -0.09932969    1.58892577   -0.18731531
     atom    4 type  1   force =     2.72864904    2.68975951    1.99166692
     atom    5 type  4   force =    -1.36956345   -8.69923043   11.32880610
     atom    6 type  1   force =    -0.43857926    0.04525173    1.13225701
     atom    7 type  4   force =    -2.12601387    6.51369092   12.71652439
     atom    8 type  2   force =    -4.05976909    3.23779416   -1.18068441
     atom    9 type  3   force =    -2.32760816   -0.14093782   -2.07090026
     atom   10 type  3   force =    -1.26941218    2.88176397    0.78393315
     atom   11 type  4   force =   -11.19660201    6.25871088   -2.20177594
     atom   12 type  2   force =    -2.90641371    1.08698465   -4.68487403
     atom   13 type  3   force =    -2.58951255   -1.14499927   -1.61508182
     atom   14 type  3   force =     0.22943040    2.07418851   -2.52908397
     atom   15 type  3   force =     0.22943040   -2.07418851   -2.52908397
     atom   16 type  3   force =    -2.58951255    1.14499927   -1.61508182
     atom   17 type  2   force =    -2.90641371   -1.08698465   -4.68487403
     atom   18 type  4   force =   -11.19660201   -6.25871088   -2.20177594
     atom   19 type  3   force =    -1.26941218   -2.88176397    0.78393315
     atom   20 type  3   force =    -2.32760816    0.14093782   -2.07090026
     atom   21 type  2   force =    -4.05976909   -3.23779416   -1.18068441
     atom   22 type  4   force =    -2.12601387   -6.51369092   12.71652439
     atom   23 type  1   force =    -0.43857926   -0.04525173    1.13225701
     atom   24 type  4   force =    -1.36956345    8.69923043   11.32880610
     atom   25 type  1   force =     2.72864904   -2.68975951    1.99166692
     atom   26 type  1   force =    -0.09932969   -1.58892577   -0.18731531
     atom   27 type  4   force =    12.25573500   -4.35721034   -5.99291823
     atom   28 type  1   force =    -2.99716665   -0.23374213   -2.11266882
     atom   29 type  3   force =    -0.22943040   -2.07418851    2.52908397
     atom   30 type  3   force =     2.58951255    1.14499927    1.61508182
     atom   31 type  2   force =     2.90641371   -1.08698465    4.68487403
     atom   32 type  4   force =    11.19660201   -6.25871088    2.20177594
     atom   33 type  3   force =     1.26941218   -2.88176397   -0.78393315
     atom   34 type  3   force =     2.32760816    0.14093782    2.07090026
     atom   35 type  2   force =     4.05976909   -3.23779416    1.18068441
     atom   36 type  4   force =     2.12601387   -6.51369092  -12.71652439
     atom   37 type  1   force =     0.43857926   -0.04525173   -1.13225701
     atom   38 type  4   force =     1.36956345    8.69923043  -11.32880610
     atom   39 type  1   force =    -2.72864904   -2.68975951   -1.99166692
     atom   40 type  1   force =     0.09932969   -1.58892577    0.18731531
     atom   41 type  4   force =   -12.25573500   -4.35721034    5.99291823
     atom   42 type  1   force =     2.99716665   -0.23374213    2.11266882
     atom   43 type  3   force =    -0.22943040    2.07418851    2.52908397
     atom   44 type  3   force =     2.58951255   -1.14499927    1.61508182
     atom   45 type  2   force =     2.90641371    1.08698465    4.68487403
     atom   46 type  4   force =    11.19660201    6.25871088    2.20177594
     atom   47 type  3   force =     1.26941218    2.88176397   -0.78393315
     atom   48 type  3   force =     2.32760816   -0.14093782    2.07090026
     atom   49 type  2   force =     4.05976909    3.23779416    1.18068441
     atom   50 type  4   force =     2.12601387    6.51369092  -12.71652439
     atom   51 type  1   force =     0.43857926    0.04525173   -1.13225701
     atom   52 type  4   force =     1.36956345   -8.69923043  -11.32880610
     atom   53 type  1   force =    -2.72864904    2.68975951   -1.99166692
     atom   54 type  1   force =     0.09932969    1.58892577    0.18731531
     atom   55 type  4   force =   -12.25573500    4.35721034    5.99291823
     atom   56 type  1   force =     2.99716665    0.23374213    2.11266882
     The local contribution  to forces
     atom    1 type  1   force =     2.80893674   -0.60678549    1.97830297
     atom    2 type  4   force =    -9.84773410   -3.89376149    4.46813223
     atom    3 type  1   force =     0.07748220   -1.57880666    0.08141762
     atom    4 type  1   force =    -2.14306552   -2.28418028   -1.85997045
     atom    5 type  4   force =     1.22016401    6.80327339   -9.09820811
     atom    6 type  1   force =     0.45222768   -0.10533048   -1.19407211
     atom    7 type  4   force =     1.57121711   -5.30236071  -10.01917070
     atom    8 type  2   force =     3.61780999   -2.92237947    1.06111592
     atom    9 type  3   force =     2.09337774    0.04818227    1.84214541
     atom   10 type  3   force =     1.18885411   -2.57742409   -0.64953292
     atom   11 type  4   force =     8.91143937   -4.77750640    1.34834712
     atom   12 type  2   force =     2.65028039   -0.97731384    4.21135050
     atom   13 type  3   force =     2.29731260    0.98798946    1.51428934
     atom   14 type  3   force =    -0.13601340   -1.84110824    2.29213089
     atom   15 type  3   force =    -0.13604971    1.84110980    2.29213068
     atom   16 type  3   force =     2.29729346   -0.98796687    1.51430611
     atom   17 type  2   force =     2.65021598    0.97737979    4.21141754
     atom   18 type  4   force =     8.91160179    4.77754374    1.34829948
     atom   19 type  3   force =     1.18887173    2.57738964   -0.64949983
     atom   20 type  3   force =     2.09338335   -0.04815311    1.84217289
     atom   21 type  2   force =     3.61783201    2.92235997    1.06122008
     atom   22 type  4   force =     1.57099584    5.30217835  -10.01904146
     atom   23 type  1   force =     0.45223749    0.10529859   -1.19421416
     atom   24 type  4   force =     1.22010666   -6.80332603   -9.09838112
     atom   25 type  1   force =    -2.14315217    2.28412786   -1.86004156
     atom   26 type  1   force =     0.07715677    1.57867743    0.08186660
     atom   27 type  4   force =    -9.84794526    3.89375897    4.46847181
     atom   28 type  1   force =     2.80883472    0.60676302    1.97850625
     atom   29 type  3   force =     0.13604109    1.84109099   -2.29211077
     atom   30 type  3   force =    -2.29729037   -0.98800899   -1.51428823
     atom   31 type  2   force =    -2.65017082    0.97725995   -4.21133250
     atom   32 type  4   force =    -8.91158547    4.77757666   -1.34842270
     atom   33 type  3   force =    -1.18890260    2.57739123    0.64952158
     atom   34 type  3   force =    -2.09340556   -0.04818478   -1.84215877
     atom   35 type  2   force =    -3.61791121    2.92229679   -1.06118664
     atom   36 type  4   force =    -1.57095611    5.30216511   10.01886316
     atom   37 type  1   force =    -0.45234088    0.10544078    1.19408100
     atom   38 type  4   force =    -1.22019377   -6.80330284    9.09837576
     atom   39 type  1   force =     2.14304938    2.28416940    1.85997055
     atom   40 type  1   force =    -0.07691466    1.57857743   -0.08208493
     atom   41 type  4   force =     9.84812380    3.89368000   -4.46843077
     atom   42 type  1   force =    -2.80875707    0.60661375   -1.97852299
     atom   43 type  3   force =     0.13603449   -1.84109669   -2.29213610
     atom   44 type  3   force =    -2.29729490    0.98801760   -1.51432379
     atom   45 type  2   force =    -2.65021538   -0.97726622   -4.21142280
     atom   46 type  4   force =    -8.91145099   -4.77731819   -1.34824166
     atom   47 type  3   force =    -1.18887314   -2.57741212    0.64953634
     atom   48 type  3   force =    -2.09338372    0.04819312   -1.84217163
     atom   49 type  2   force =    -3.61780899   -2.92232834   -1.06119842
     atom   50 type  4   force =    -1.57107901   -5.30227490   10.01899034
     atom   51 type  1   force =    -0.45209763   -0.10486846    1.19452399
     atom   52 type  4   force =    -1.22016756    6.80374017    9.09862075
     atom   53 type  1   force =     2.14316832   -2.28397680    1.86008066
     atom   54 type  1   force =    -0.07710821   -1.57869912   -0.08197806
     atom   55 type  4   force =     9.84788152   -3.89379587   -4.46844897
     atom   56 type  1   force =    -2.80878552   -0.60667385   -1.97850142
     The core correction contribution to forces
     atom    1 type  1   force =    -0.00316770   -0.00603515   -0.00171941
     atom    2 type  4   force =     0.01878438    0.00350131   -0.01183013
     atom    3 type  1   force =     0.00037344    0.00164898    0.00005728
     atom    4 type  1   force =     0.00937397    0.00640099    0.00176142
     atom    5 type  4   force =    -0.00124617   -0.01450165    0.01730092
     atom    6 type  1   force =    -0.00108156   -0.00157598   -0.00031131
     atom    7 type  4   force =    -0.00410888    0.00893515    0.02016794
     atom    8 type  2   force =    -0.01415762    0.01040174   -0.00498181
     atom    9 type  3   force =     0.00000000    0.00000000    0.00000000
     atom   10 type  3   force =     0.00000000    0.00000000    0.00000000
     atom   11 type  4   force =    -0.01759550    0.01145393   -0.00674377
     atom   12 type  2   force =    -0.00882597    0.00326934   -0.01611718
     atom   13 type  3   force =     0.00000000    0.00000000    0.00000000
     atom   14 type  3   force =     0.00000000    0.00000000    0.00000000
     atom   15 type  3   force =     0.00000000    0.00000000    0.00000000
     atom   16 type  3   force =     0.00000000    0.00000000    0.00000000
     atom   17 type  2   force =    -0.00882644   -0.00327074   -0.01612440
     atom   18 type  4   force =    -0.01759578   -0.01145395   -0.00674352
     atom   19 type  3   force =     0.00000000    0.00000000    0.00000000
     atom   20 type  3   force =     0.00000000    0.00000000    0.00000000
     atom   21 type  2   force =    -0.01415699   -0.01040072   -0.00498442
     atom   22 type  4   force =    -0.00410812   -0.00893458    0.02016645
     atom   23 type  1   force =    -0.00108206    0.00157645   -0.00031075
     atom   24 type  4   force =    -0.00124618    0.01450188    0.01730133
     atom   25 type  1   force =     0.00937389   -0.00640098    0.00176156
     atom   26 type  1   force =     0.00037698   -0.00164829    0.00005230
     atom   27 type  4   force =     0.01878577   -0.00350118   -0.01183176
     atom   28 type  1   force =    -0.00316743    0.00603496   -0.00171955
     atom   29 type  3   force =     0.00000000    0.00000000    0.00000000
     atom   30 type  3   force =     0.00000000    0.00000000    0.00000000
     atom   31 type  2   force =     0.00882591   -0.00326920    0.01611759
     atom   32 type  4   force =     0.01759626   -0.01145437    0.00674415
     atom   33 type  3   force =     0.00000000    0.00000000    0.00000000
     atom   34 type  3   force =     0.00000000    0.00000000    0.00000000
     atom   35 type  2   force =     0.01415723   -0.01040164    0.00498213
     atom   36 type  4   force =     0.00410773   -0.00893436   -0.02016517
     atom   37 type  1   force =     0.00108319    0.00157487    0.00031219
     atom   38 type  4   force =     0.00124641    0.01450144   -0.01730072
     atom   39 type  1   force =    -0.00937393   -0.00640091   -0.00176131
     atom   40 type  1   force =    -0.00037925   -0.00164770   -0.00004881
     atom   41 type  4   force =    -0.01878671   -0.00350109    0.01183217
     atom   42 type  1   force =     0.00316765    0.00603501    0.00172004
     atom   43 type  3   force =     0.00000000    0.00000000    0.00000000
     atom   44 type  3   force =     0.00000000    0.00000000    0.00000000
     atom   45 type  2   force =     0.00882634    0.00327008    0.01612438
     atom   46 type  4   force =     0.01759452    0.01145283    0.00674241
     atom   47 type  3   force =     0.00000000    0.00000000    0.00000000
     atom   48 type  3   force =     0.00000000    0.00000000    0.00000000
     atom   49 type  2   force =     0.01415689    0.01040058    0.00498416
     atom   50 type  4   force =     0.00410810    0.00893453   -0.02016591
     atom   51 type  1   force =     0.00107980   -0.00158125    0.00030596
     atom   52 type  4   force =     0.00124627   -0.01450356   -0.01730311
     atom   53 type  1   force =    -0.00937393    0.00640085   -0.00176226
     atom   54 type  1   force =    -0.00037733    0.00164785   -0.00005140
     atom   55 type  4   force =    -0.01878601    0.00350121    0.01183187
     atom   56 type  1   force =     0.00316739   -0.00603517    0.00171984
     The Hubbard contrib.    to forces
     atom    1 type  1   force =     0.00000000    0.00000000    0.00000000
     atom    2 type  4   force =     0.00000000    0.00000000    0.00000000
     atom    3 type  1   force =     0.00000000    0.00000000    0.00000000
     atom    4 type  1   force =     0.00000000    0.00000000    0.00000000
     atom    5 type  4   force =     0.00000000    0.00000000    0.00000000
     atom    6 type  1   force =     0.00000000    0.00000000    0.00000000
     atom    7 type  4   force =     0.00000000    0.00000000    0.00000000
     atom    8 type  2   force =     0.00000000    0.00000000    0.00000000
     atom    9 type  3   force =     0.00000000    0.00000000    0.00000000
     atom   10 type  3   force =     0.00000000    0.00000000    0.00000000
     atom   11 type  4   force =     0.00000000    0.00000000    0.00000000
     atom   12 type  2   force =     0.00000000    0.00000000    0.00000000
     atom   13 type  3   force =     0.00000000    0.00000000    0.00000000
     atom   14 type  3   force =     0.00000000    0.00000000    0.00000000
     atom   15 type  3   force =     0.00000000    0.00000000    0.00000000
     atom   16 type  3   force =     0.00000000    0.00000000    0.00000000
     atom   17 type  2   force =     0.00000000    0.00000000    0.00000000
     atom   18 type  4   force =     0.00000000    0.00000000    0.00000000
     atom   19 type  3   force =     0.00000000    0.00000000    0.00000000
     atom   20 type  3   force =     0.00000000    0.00000000    0.00000000
     atom   21 type  2   force =     0.00000000    0.00000000    0.00000000
     atom   22 type  4   force =     0.00000000    0.00000000    0.00000000
     atom   23 type  1   force =     0.00000000    0.00000000    0.00000000
     atom   24 type  4   force =     0.00000000    0.00000000    0.00000000
     atom   25 type  1   force =     0.00000000    0.00000000    0.00000000
     atom   26 type  1   force =     0.00000000    0.00000000    0.00000000
     atom   27 type  4   force =     0.00000000    0.00000000    0.00000000
     atom   28 type  1   force =     0.00000000    0.00000000    0.00000000
     atom   29 type  3   force =     0.00000000    0.00000000    0.00000000
     atom   30 type  3   force =     0.00000000    0.00000000    0.00000000
     atom   31 type  2   force =     0.00000000    0.00000000    0.00000000
     atom   32 type  4   force =     0.00000000    0.00000000    0.00000000
     atom   33 type  3   force =     0.00000000    0.00000000    0.00000000
     atom   34 type  3   force =     0.00000000    0.00000000    0.00000000
     atom   35 type  2   force =     0.00000000    0.00000000    0.00000000
     atom   36 type  4   force =     0.00000000    0.00000000    0.00000000
     atom   37 type  1   force =     0.00000000    0.00000000    0.00000000
     atom   38 type  4   force =     0.00000000    0.00000000    0.00000000
     atom   39 type  1   force =     0.00000000    0.00000000    0.00000000
     atom   40 type  1   force =     0.00000000    0.00000000    0.00000000
     atom   41 type  4   force =     0.00000000    0.00000000    0.00000000
     atom   42 type  1   force =     0.00000000    0.00000000    0.00000000
     atom   43 type  3   force =     0.00000000    0.00000000    0.00000000
     atom   44 type  3   force =     0.00000000    0.00000000    0.00000000
     atom   45 type  2   force =     0.00000000    0.00000000    0.00000000
     atom   46 type  4   force =     0.00000000    0.00000000    0.00000000
     atom   47 type  3   force =     0.00000000    0.00000000    0.00000000
     atom   48 type  3   force =     0.00000000    0.00000000    0.00000000
     atom   49 type  2   force =     0.00000000    0.00000000    0.00000000
     atom   50 type  4   force =     0.00000000    0.00000000    0.00000000
     atom   51 type  1   force =     0.00000000    0.00000000    0.00000000
     atom   52 type  4   force =     0.00000000    0.00000000    0.00000000
     atom   53 type  1   force =     0.00000000    0.00000000    0.00000000
     atom   54 type  1   force =     0.00000000    0.00000000    0.00000000
     atom   55 type  4   force =     0.00000000    0.00000000    0.00000000
     atom   56 type  1   force =     0.00000000    0.00000000    0.00000000
     The SCF correction term to forces
     atom    1 type  1   force =    -0.00015424    0.00005078    0.00018795
     atom    2 type  4   force =    -0.00021483    0.00003544    0.00028512
     atom    3 type  1   force =    -0.00061103    0.00018499    0.00084268
     atom    4 type  1   force =    -0.00002241    0.00008017   -0.00001158
     atom    5 type  4   force =     0.00002706    0.00019216   -0.00025171
     atom    6 type  1   force =     0.00015071    0.00010741   -0.00019122
     atom    7 type  4   force =    -0.00022868    0.00013556    0.00028006
     atom    8 type  2   force =     0.00005589    0.00003243    0.00009509
     atom    9 type  3   force =     0.00002225    0.00000143    0.00001462
     atom   10 type  3   force =     0.00003695    0.00001565    0.00000684
     atom   11 type  4   force =     0.00019999   -0.00007985    0.00002540
     atom   12 type  2   force =    -0.00004577   -0.00005045    0.00003159
     atom   13 type  3   force =    -0.00000393    0.00000621    0.00001335
     atom   14 type  3   force =    -0.00002581   -0.00000744   -0.00000221
     atom   15 type  3   force =     0.00001072    0.00000548   -0.00000240
     atom   16 type  3   force =     0.00001347   -0.00002624   -0.00000312
     atom   17 type  2   force =     0.00001862   -0.00003346   -0.00005113
     atom   18 type  4   force =     0.00003097    0.00004216    0.00008217
     atom   19 type  3   force =     0.00001941    0.00001879   -0.00002548
     atom   20 type  3   force =     0.00001649   -0.00003063   -0.00001013
     atom   21 type  2   force =     0.00004103   -0.00000580   -0.00000749
     atom   22 type  4   force =     0.00000309    0.00002474    0.00016208
     atom   23 type  1   force =     0.00012598   -0.00005849   -0.00003273
     atom   24 type  4   force =     0.00008576   -0.00014250   -0.00008235
     atom   25 type  1   force =     0.00006111   -0.00003192    0.00006094
     atom   26 type  1   force =    -0.00017877   -0.00004508    0.00024922
     atom   27 type  4   force =    -0.00001845   -0.00001010   -0.00006570
     atom   28 type  1   force =    -0.00005381   -0.00003809   -0.00000983
     atom   29 type  3   force =    -0.00000183    0.00002183   -0.00001657
     atom   30 type  3   force =    -0.00001514    0.00001459   -0.00001585
     atom   31 type  2   force =    -0.00006481    0.00010648   -0.00003253
     atom   32 type  4   force =    -0.00006127    0.00001235    0.00005935
     atom   33 type  3   force =     0.00001075    0.00001802    0.00000428
     atom   34 type  3   force =     0.00000484   -0.00000047   -0.00000423
     atom   35 type  2   force =     0.00003508    0.00005320   -0.00001944
     atom   36 type  4   force =    -0.00004614    0.00002200    0.00000983
     atom   37 type  1   force =     0.00001171   -0.00025325    0.00021931
     atom   38 type  4   force =     0.00001164   -0.00015787    0.00008533
     atom   39 type  1   force =     0.00003795   -0.00006764    0.00001214
     atom   40 type  1   force =    -0.00012799    0.00007098    0.00007810
     atom   41 type  4   force =    -0.00015644    0.00007763    0.00002598
     atom   42 type  1   force =    -0.00000857    0.00010715    0.00003096
     atom   43 type  3   force =     0.00000453   -0.00001661    0.00000844
     atom   44 type  3   force =    -0.00001136   -0.00002282    0.00001962
     atom   45 type  2   force =    -0.00001767   -0.00009599    0.00005612
     atom   46 type  4   force =    -0.00017496   -0.00026015   -0.00016212
     atom   47 type  3   force =    -0.00001952    0.00000127   -0.00000937
     atom   48 type  3   force =    -0.00001859   -0.00000780    0.00000881
     atom   49 type  2   force =    -0.00006846   -0.00003195   -0.00002342
     atom   50 type  4   force =     0.00008387    0.00007400   -0.00011294
     atom   51 type  1   force =    -0.00033790   -0.00050831   -0.00042229
     atom   52 type  4   force =    -0.00002225   -0.00026065   -0.00015309
     atom   53 type  1   force =    -0.00008033   -0.00010362   -0.00011339
     atom   54 type  1   force =     0.00012136    0.00005071   -0.00011372
     atom   55 type  4   force =     0.00007284    0.00004701    0.00004730
     atom   56 type  1   force =     0.00001024   -0.00005388    0.00001214

     Total force =     1.179852     Total SCF correction =     0.001750


     entering subroutine stress ...

          total   stress  (Ry/bohr**3)                   (kbar)     P=  151.93
   0.00107744  -0.00000015   0.00011540        158.50     -0.02     16.98
  -0.00000015   0.00101732   0.00000015         -0.02    149.65      0.02
   0.00011540   0.00000015   0.00100363         16.98      0.02    147.64

     kinetic stress (kbar)  15205.03     -0.00    333.74
                               -0.00  15600.17      0.00
                              333.74      0.00  15166.62

     local   stress (kbar) -15829.93     -0.06   7969.84
                               -0.06  -8943.37      0.06
                             7969.84      0.06 -11908.27

     nonloc. stress (kbar)   1026.03     -0.01     11.31
                               -0.01   1038.32      0.01
                               11.31      0.01    997.87

     hartree stress (kbar)   7140.51      0.04  -2913.44
                                0.04   5095.27     -0.05
                            -2913.44     -0.05   5635.52

     exc-cor stress (kbar)  -2192.45      0.00    -10.98
                                0.00  -2212.01      0.00
                              -10.98      0.00  -2198.00

     corecor stress (kbar)  -1137.76      0.00     -2.88
                                0.00  -1140.30     -0.00
                               -2.88     -0.00  -1137.96

     ewald   stress (kbar)  -4052.93     -0.00  -5370.62
                               -0.00  -9288.44     -0.00
                            -5370.62     -0.00  -6408.13

     hubbard stress (kbar)      0.00      0.00      0.00
                                0.00      0.00      0.00
                                0.00      0.00      0.00

     london  stress (kbar)      0.00      0.00      0.00
                                0.00      0.00      0.00
                                0.00      0.00      0.00

     XDM     stress (kbar)      0.00      0.00      0.00
                                0.00      0.00      0.00
                                0.00      0.00      0.00

     dft-nl  stress (kbar)      0.00      0.00      0.00
                                0.00      0.00      0.00
                                0.00      0.00      0.00

     TS-vdW  stress (kbar)      0.00      0.00      0.00
                                0.00      0.00      0.00
                                0.00      0.00      0.00



     BFGS Geometry Optimization

     number of scf cycles    =   1
     number of bfgs steps    =   0

     energy   new            =   -1281.9677171899 Ry

     new trust radius        =       0.2539809203 bohr
     new conv_thr            =       0.0000010000 Ry


ATOMIC_POSITIONS (crystal)
N       -0.019909835   0.622199824   0.460078337
O        0.273950242   0.719983204   0.435972284
N        0.140308453   0.702257187   0.529650761
N       -0.141813596   0.524955406   0.706149519
O       -0.271004488   0.426857972   0.924651935
N       -0.301245287   0.501740695   0.792970176
O        0.140956987   0.748536558   0.688113361
C       -0.173436307   0.609170477   0.558531531
H       -0.331898476   0.588647341   0.453533282
H       -0.216438799   0.704060096   0.611559725
O       -0.467512879   0.561669946   0.737040735
C       -0.008456496   0.563052505   0.298133489
H       -0.171661994   0.518149987   0.234667141
H       -0.004502096   0.632441391   0.177028135
H        0.495497926  -0.132441358  -0.322971821
H        0.328337995  -0.018149942  -0.265332860
C        0.491543833  -0.063052305  -0.201866657
O        0.032475602  -0.061675110   0.237035135
H        0.283561217  -0.204060113   0.111559736
H        0.168101540  -0.088647341  -0.046466688
C        0.326563179  -0.109170593   0.058531433
O        0.640956065  -0.248538099   0.188118209
N        0.198756350  -0.001739340   0.292972353
O        0.228992014   0.073133834   0.424638135
N        0.358186094  -0.024956439   0.206147963
N        0.640308763  -0.202257165   0.029650633
O        0.773947850  -0.219982711  -0.064024389
N        0.480089870  -0.122199858  -0.039921011
H        0.004502096   0.367558609   0.822971865
H        0.171661994   0.481850013   0.765332859
C        0.008456496   0.436947495   0.701866511
O        0.467512879   0.438330054   0.262959265
H        0.216438799   0.295939904   0.388440275
H        0.331898476   0.411352659   0.546466718
C        0.173436307   0.390829523   0.441468469
O       -0.140956987   0.251463442   0.311886639
N        0.301245287   0.498259305   0.207029824
O        0.271004488   0.573142028   0.075348065
N        0.141813596   0.475044594   0.293850481
N       -0.140308453   0.297742813   0.470349239
O       -0.273950242   0.280016796   0.564027716
N        0.019909835   0.377800176   0.539921663
H        0.504502074   0.132441358   0.322971821
H        0.671662005   0.018149942   0.265332860
C        0.508456167   0.063052305   0.201866657
O        0.967524398   0.061675110  -0.237035135
H        0.716438783   0.204060113  -0.111559736
H        0.831898460   0.088647341   0.046466688
C        0.673436821   0.109170593  -0.058531433
O        0.359043935   0.248538099  -0.188118209
N        0.801243650   0.001739340  -0.292972353
O        0.771007986  -0.073133834  -0.424638135
N        0.641813906   0.024956439  -0.206147963
N        0.359691237   0.202257165  -0.029650633
O        0.226052150   0.219982711   0.064024389
N        0.519910130   0.122199858   0.039921011



     Writing output data file scf.pbe-ec-80-kp444.HMX-792927-nofor.nostress.save
     NEW-OLD atomic charge density approx. for the potential

     total cpu time spent up to now is      598.6 secs

     per-process dynamical memory:   115.7 Mb

     Self-consistent Calculation

     iteration #  1     ecut=    80.00 Ry     beta=0.70
     Davidson diagonalization with overlap
     ethr =  1.00E-06,  avg # of iterations = 10.0

     total cpu time spent up to now is      638.6 secs

     total energy              =   -1282.03990564 Ry
     Harris-Foulkes estimate   =   -1282.19693175 Ry
     estimated scf accuracy    <       0.26197646 Ry

     iteration #  2     ecut=    80.00 Ry     beta=0.70
     Davidson diagonalization with overlap
     ethr =  1.17E-04,  avg # of iterations =  5.0

     total cpu time spent up to now is      660.0 secs

     total energy              =   -1282.06512062 Ry
     Harris-Foulkes estimate   =   -1282.09738812 Ry
     estimated scf accuracy    <       0.05315230 Ry

     iteration #  3     ecut=    80.00 Ry     beta=0.70
     Davidson diagonalization with overlap
     ethr =  2.37E-05,  avg # of iterations =  5.0

     total cpu time spent up to now is      684.3 secs

     total energy              =   -1282.07543385 Ry
     Harris-Foulkes estimate   =   -1282.09570262 Ry
     estimated scf accuracy    <       0.04481071 Ry

     iteration #  4     ecut=    80.00 Ry     beta=0.70
     Davidson diagonalization with overlap
     ethr =  2.00E-05,  avg # of iterations =  5.0

     total cpu time spent up to now is      706.4 secs

     total energy              =   -1282.08560048 Ry
     Harris-Foulkes estimate   =   -1282.08850917 Ry
     estimated scf accuracy    <       0.00806411 Ry

     iteration #  5     ecut=    80.00 Ry     beta=0.70
     Davidson diagonalization with overlap
     ethr =  3.60E-06,  avg # of iterations =  5.0

     total cpu time spent up to now is      726.8 secs

     total energy              =   -1282.08645065 Ry
     Harris-Foulkes estimate   =   -1282.08686149 Ry
     estimated scf accuracy    <       0.00101668 Ry

     iteration #  6     ecut=    80.00 Ry     beta=0.70
     Davidson diagonalization with overlap
     ethr =  4.54E-07,  avg # of iterations =  5.0

     total cpu time spent up to now is      750.9 secs

     total energy              =   -1282.08708203 Ry
     Harris-Foulkes estimate   =   -1282.08724558 Ry
     estimated scf accuracy    <       0.00052210 Ry

     iteration #  7     ecut=    80.00 Ry     beta=0.70
     Davidson diagonalization with overlap
     ethr =  2.33E-07,  avg # of iterations =  1.0

     total cpu time spent up to now is      768.9 secs

     total energy              =   -1282.08702111 Ry
     Harris-Foulkes estimate   =   -1282.08710245 Ry
     estimated scf accuracy    <       0.00022185 Ry

     iteration #  8     ecut=    80.00 Ry     beta=0.70
     Davidson diagonalization with overlap
     ethr =  9.90E-08,  avg # of iterations =  5.0

     total cpu time spent up to now is      792.1 secs

     total energy              =   -1282.08716417 Ry
     Harris-Foulkes estimate   =   -1282.08721726 Ry
     estimated scf accuracy    <       0.00042852 Ry

     iteration #  9     ecut=    80.00 Ry     beta=0.70
     Davidson diagonalization with overlap
     ethr =  9.90E-08,  avg # of iterations =  1.0

     total cpu time spent up to now is      810.0 secs

     total energy              =   -1282.08704011 Ry
     Harris-Foulkes estimate   =   -1282.08716558 Ry
     estimated scf accuracy    <       0.00034212 Ry

     iteration # 10     ecut=    80.00 Ry     beta=0.70
     Davidson diagonalization with overlap
     ethr =  9.90E-08,  avg # of iterations =  5.0

     total cpu time spent up to now is      831.1 secs

     total energy              =   -1282.08713372 Ry
     Harris-Foulkes estimate   =   -1282.08715618 Ry
     estimated scf accuracy    <       0.00009437 Ry

     iteration # 11     ecut=    80.00 Ry     beta=0.70
     Davidson diagonalization with overlap
     ethr =  4.21E-08,  avg # of iterations =  1.0

     total cpu time spent up to now is      848.9 secs

     total energy              =   -1282.08710899 Ry
     Harris-Foulkes estimate   =   -1282.08713501 Ry
     estimated scf accuracy    <       0.00005810 Ry

     iteration # 12     ecut=    80.00 Ry     beta=0.70
     Davidson diagonalization with overlap
     ethr =  2.59E-08,  avg # of iterations =  5.0

     total cpu time spent up to now is      870.9 secs

     total energy              =   -1282.08714714 Ry
     Harris-Foulkes estimate   =   -1282.08715492 Ry
     estimated scf accuracy    <       0.00008579 Ry

     iteration # 13     ecut=    80.00 Ry     beta=0.70
     Davidson diagonalization with overlap
     ethr =  2.59E-08,  avg # of iterations =  1.0

     total cpu time spent up to now is      889.2 secs

     total energy              =   -1282.08712642 Ry
     Harris-Foulkes estimate   =   -1282.08714733 Ry
     estimated scf accuracy    <       0.00007311 Ry

     iteration # 14     ecut=    80.00 Ry     beta=0.70
     Davidson diagonalization with overlap
     ethr =  2.59E-08,  avg # of iterations =  5.0

     total cpu time spent up to now is      909.0 secs

     End of self-consistent calculation

          k = 0.0000 0.0000 0.0000 ( 21006 PWs)   bands (ev):

   -23.4924 -23.4529 -23.4174 -23.4013 -23.1917 -23.1907 -23.1893 -23.1695
   -18.9498 -18.9336 -18.7132 -18.7119 -18.6350 -18.6015 -18.4363 -18.4354
   -18.4323 -18.4294 -17.7317 -17.6654 -17.6293 -17.6160 -16.5607 -16.5328
   -12.1294 -12.1166 -12.0875 -12.0233 -11.8262 -11.8172 -11.7673 -11.6003
    -9.7167  -9.6253  -8.6542  -8.6171  -8.1487  -8.1373  -7.1636  -7.1395
    -6.9847  -6.7982  -6.7455  -6.6917  -6.4225  -6.3729  -6.2759  -6.1403
    -6.0914  -6.0600  -6.0358  -6.0123  -5.9667  -5.8389  -5.5203  -5.4970
    -5.1240  -5.0413  -5.0390  -4.9003  -4.8969  -4.7218  -4.7069  -4.6633
    -4.4204  -4.4171  -4.1983  -4.1074  -3.9476  -3.8040  -3.1864  -3.1358
    -2.9603  -2.7868  -2.4895  -2.3765  -1.9396  -1.8955  -1.7749  -1.7415
    -0.8267  -0.7867  -0.2819  -0.2787  -0.1318  -0.0900  -0.0662   0.0775
     0.0829   0.1147   0.2182   0.2305   0.2457   0.2527   0.3845   0.4233
     0.4314   0.4801   0.7175   0.7262   0.8843   0.9222   0.9904   1.0067
     1.0896   1.0903   1.1509   1.1749   1.3105   1.4661   1.5309   1.5586

     occupation numbers 
     1.0000   1.0000   1.0000   1.0000   1.0000   1.0000   1.0000   1.0000
     1.0000   1.0000   1.0000   1.0000   1.0000   1.0000   1.0000   1.0000
     1.0000   1.0000   1.0000   1.0000   1.0000   1.0000   1.0000   1.0000
     1.0000   1.0000   1.0000   1.0000   1.0000   1.0000   1.0000   1.0000
     1.0000   1.0000   1.0000   1.0000   1.0000   1.0000   1.0000   1.0000
     1.0000   1.0000   1.0000   1.0000   1.0000   1.0000   1.0000   1.0000
     1.0000   1.0000   1.0000   1.0000   1.0000   1.0000   1.0000   1.0000
     1.0000   1.0000   1.0000   1.0000   1.0000   1.0000   1.0000   1.0000
     1.0000   1.0000   1.0000   1.0000   1.0000   1.0000   1.0000   1.0000
     1.0000   1.0000   1.0000   1.0000   1.0000   1.0000   1.0000   1.0000
     1.0000   1.0000   1.0000   1.0000   1.0000   1.0000   1.0000   1.0000
     1.0000   1.0000   1.0000   1.0000   1.0000   1.0000   1.0000   1.0000
     1.0000   1.0000   1.0000   1.0000   1.0000   1.0000   1.0000   1.0000
     1.0000   1.0000   1.0000   1.0000   1.0000   1.0000   1.0000   1.0000

     highest occupied level (ev):     1.5586

!    total energy              =   -1282.08713887 Ry
     Harris-Foulkes estimate   =   -1282.08713961 Ry
     estimated scf accuracy    <       0.00000085 Ry

     total all-electron energy =     -4786.530887 Ry

     The total energy is the sum of the following terms:

     one-electron contribution =    -633.92399400 Ry
     hartree contribution      =     415.32771037 Ry
     xc contribution           =    -258.45546860 Ry
     ewald contribution        =    -474.67964063 Ry
     one-center paw contrib.   =    -330.35574601 Ry

     convergence has been achieved in  14 iterations

     Forces acting on atoms (Ry/au):

     atom    1 type  1   force =     0.07120545    0.02195204    0.04521672
     atom    2 type  4   force =    -0.00494639   -0.00329797   -0.00185569
     atom    3 type  1   force =     0.01599200    0.05182439    0.07942751
     atom    4 type  1   force =    -0.00404536    0.00234897    0.00558133
     atom    5 type  4   force =     0.00397581    0.01628806   -0.02094021
     atom    6 type  1   force =    -0.05424822   -0.00811028    0.02194013
     atom    7 type  4   force =     0.01304754   -0.02342497   -0.05481147
     atom    8 type  2   force =    -0.22893568    0.13016543   -0.04145349
     atom    9 type  3   force =     0.05634351    0.00162334    0.03538998
     atom   10 type  3   force =     0.03272861   -0.06059942   -0.01486801
     atom   11 type  4   force =     0.01820079   -0.01434344    0.00155595
     atom   12 type  2   force =    -0.12442117    0.04611294   -0.24951017
     atom   13 type  3   force =     0.04310158    0.03024690    0.03894712
     atom   14 type  3   force =    -0.00436742   -0.04537245    0.05931427
     atom   15 type  3   force =    -0.00436868    0.04537219    0.05932165
     atom   16 type  3   force =     0.04309716   -0.03025034    0.03894926
     atom   17 type  2   force =    -0.12441714   -0.04611336   -0.24949023
     atom   18 type  4   force =     0.01833253    0.01449042    0.00154775
     atom   19 type  3   force =     0.03272926    0.06060235   -0.01487484
     atom   20 type  3   force =     0.05633653   -0.00161806    0.03538669
     atom   21 type  2   force =    -0.22894608   -0.13016472   -0.04147833
     atom   22 type  4   force =     0.01300039    0.02344462   -0.05474840
     atom   23 type  1   force =    -0.05438741    0.00789014    0.02163811
     atom   24 type  4   force =     0.00398611   -0.01616148   -0.02077436
     atom   25 type  1   force =    -0.00405348   -0.00231961    0.00556311
     atom   26 type  1   force =     0.01604651   -0.05182416    0.07935823
     atom   27 type  4   force =    -0.00499050    0.00328001   -0.00177552
     atom   28 type  1   force =     0.07124100   -0.02194527    0.04516807
     atom   29 type  3   force =     0.00436742    0.04537245   -0.05931427
     atom   30 type  3   force =    -0.04310158   -0.03024690   -0.03894712
     atom   31 type  2   force =     0.12442117   -0.04611294    0.24951017
     atom   32 type  4   force =    -0.01820079    0.01434344   -0.00155595
     atom   33 type  3   force =    -0.03272861    0.06059942    0.01486801
     atom   34 type  3   force =    -0.05634351   -0.00162334   -0.03538998
     atom   35 type  2   force =     0.22893568   -0.13016543    0.04145349
     atom   36 type  4   force =    -0.01304754    0.02342497    0.05481147
     atom   37 type  1   force =     0.05424822    0.00811028   -0.02194013
     atom   38 type  4   force =    -0.00397581   -0.01628806    0.02094021
     atom   39 type  1   force =     0.00404536   -0.00234897   -0.00558133
     atom   40 type  1   force =    -0.01599200   -0.05182439   -0.07942751
     atom   41 type  4   force =     0.00494639    0.00329797    0.00185569
     atom   42 type  1   force =    -0.07120545   -0.02195204   -0.04521672
     atom   43 type  3   force =     0.00436868   -0.04537219   -0.05932165
     atom   44 type  3   force =    -0.04309716    0.03025034   -0.03894926
     atom   45 type  2   force =     0.12441714    0.04611336    0.24949023
     atom   46 type  4   force =    -0.01833253   -0.01449042   -0.00154775
     atom   47 type  3   force =    -0.03272926   -0.06060235    0.01487484
     atom   48 type  3   force =    -0.05633653    0.00161806   -0.03538669
     atom   49 type  2   force =     0.22894608    0.13016472    0.04147833
     atom   50 type  4   force =    -0.01300039   -0.02344462    0.05474840
     atom   51 type  1   force =     0.05438741   -0.00789014   -0.02163811
     atom   52 type  4   force =    -0.00398611    0.01616148    0.02077436
     atom   53 type  1   force =     0.00405348    0.00231961   -0.00556311
     atom   54 type  1   force =    -0.01604651    0.05182416   -0.07935823
     atom   55 type  4   force =     0.00499050   -0.00328001    0.00177552
     atom   56 type  1   force =    -0.07124100    0.02194527   -0.04516807
     The non-local contrib.  to forces
     atom    1 type  1   force =     0.33142840    0.11202007    0.28636383
     atom    2 type  4   force =    -2.42376262   -0.46691672    1.48689982
     atom    3 type  1   force =     0.09045413   -0.02226619    0.01796306
     atom    4 type  1   force =    -0.57029509   -0.45313236   -0.30303853
     atom    5 type  4   force =     0.17712244    1.83230452   -2.17314851
     atom    6 type  1   force =     0.04668846    0.09371908    0.05158458
     atom    7 type  4   force =     0.50856753   -1.11015832   -2.50080532
     atom    8 type  2   force =     0.27636070   -0.20674104    0.07581678
     atom    9 type  3   force =     0.04999856    0.00971773    0.04049593
     atom   10 type  3   force =     0.02235508   -0.05906568   -0.02067664
     atom   11 type  4   force =     2.21878619   -1.41782497    0.83955101
     atom   12 type  2   force =     0.14763434   -0.06879325    0.27787061
     atom   13 type  3   force =     0.05151414    0.02629208    0.02895803
     atom   14 type  3   force =    -0.01013757   -0.04162652    0.04881205
     atom   15 type  3   force =    -0.01013676    0.04162679    0.04881195
     atom   16 type  3   force =     0.05151418   -0.02629224    0.02895701
     atom   17 type  2   force =     0.14761873    0.06879940    0.27783984
     atom   18 type  4   force =     2.21836073    1.41765708    0.83944312
     atom   19 type  3   force =     0.02235538    0.05906627   -0.02067700
     atom   20 type  3   force =     0.04999927   -0.00971804    0.04049611
     atom   21 type  2   force =     0.27640652    0.20676005    0.07579108
     atom   22 type  4   force =     0.50848845    1.11011785   -2.50052245
     atom   23 type  1   force =     0.04684010   -0.09347115    0.05179283
     atom   24 type  4   force =     0.17715170   -1.83271431   -2.17362842
     atom   25 type  1   force =    -0.57024669    0.45315229   -0.30303426
     atom   26 type  1   force =     0.09075800    0.02233408    0.01752857
     atom   27 type  4   force =    -2.42394401    0.46690667    1.48702869
     atom   28 type  1   force =     0.33146881   -0.11203389    0.28631406
     atom   29 type  3   force =     0.01013757    0.04162652   -0.04881205
     atom   30 type  3   force =    -0.05151414   -0.02629208   -0.02895803
     atom   31 type  2   force =    -0.14763434    0.06879325   -0.27787061
     atom   32 type  4   force =    -2.21878619    1.41782497   -0.83955101
     atom   33 type  3   force =    -0.02235508    0.05906568    0.02067664
     atom   34 type  3   force =    -0.04999856   -0.00971773   -0.04049593
     atom   35 type  2   force =    -0.27636070    0.20674104   -0.07581678
     atom   36 type  4   force =    -0.50856753    1.11015832    2.50080532
     atom   37 type  1   force =    -0.04668846   -0.09371908   -0.05158458
     atom   38 type  4   force =    -0.17712244   -1.83230452    2.17314851
     atom   39 type  1   force =     0.57029509    0.45313236    0.30303853
     atom   40 type  1   force =    -0.09045413    0.02226619   -0.01796306
     atom   41 type  4   force =     2.42376262    0.46691672   -1.48689982
     atom   42 type  1   force =    -0.33142840   -0.11202007   -0.28636383
     atom   43 type  3   force =     0.01013676   -0.04162679   -0.04881195
     atom   44 type  3   force =    -0.05151418    0.02629224   -0.02895701
     atom   45 type  2   force =    -0.14761873   -0.06879940   -0.27783984
     atom   46 type  4   force =    -2.21836073   -1.41765708   -0.83944312
     atom   47 type  3   force =    -0.02235538   -0.05906627    0.02067700
     atom   48 type  3   force =    -0.04999927    0.00971804   -0.04049611
     atom   49 type  2   force =    -0.27640652   -0.20676005   -0.07579108
     atom   50 type  4   force =    -0.50848845   -1.11011785    2.50052245
     atom   51 type  1   force =    -0.04684010    0.09347115   -0.05179283
     atom   52 type  4   force =    -0.17715170    1.83271431    2.17362842
     atom   53 type  1   force =     0.57024669   -0.45315229    0.30303426
     atom   54 type  1   force =    -0.09075800   -0.02233408   -0.01752857
     atom   55 type  4   force =     2.42394401   -0.46690667   -1.48702869
     atom   56 type  1   force =    -0.33146881    0.11203389   -0.28631406
     The ionic contribution  to forces
     atom    1 type  1   force =    -3.13151781    1.39529620   -2.20476406
     atom    2 type  4   force =    12.05257259    4.55101370   -5.65833101
     atom    3 type  1   force =    -0.17268673    2.27746997    0.61646934
     atom    4 type  1   force =     1.97909471    2.92725975    2.96814853
     atom    5 type  4   force =    -1.35002447   -8.13110556   10.84421715
     atom    6 type  1   force =    -0.87668660    0.11354879    1.46675161
     atom    7 type  4   force =    -1.82536865    6.06631791   11.51280783
     atom    8 type  2   force =    -4.99162626    3.83643967   -1.11938241
     atom    9 type  3   force =    -1.70440285    0.19550849   -1.42988646
     atom   10 type  3   force =    -1.10492374    2.01981578    0.37840742
     atom   11 type  4   force =   -10.50709700    5.95842698   -1.92025046
     atom   12 type  2   force =    -3.25347047    1.35118522   -5.81748480
     atom   13 type  3   force =    -1.83389092   -0.61845057   -1.42557500
     atom   14 type  3   force =    -0.06032546    1.44207189   -1.94675001
[...]
     atom   22 type  4   force =    -0.00309682   -0.00832094    0.02110434
     atom   23 type  1   force =    -0.00022959    0.00184566   -0.00102160
     atom   24 type  4   force =    -0.00071173    0.01455782    0.01765378
     atom   25 type  1   force =     0.00958034   -0.00873371    0.00427782
     atom   26 type  1   force =     0.00005656   -0.00123590   -0.00006509
     atom   27 type  4   force =     0.01834044   -0.00367537   -0.01275577
     atom   28 type  1   force =    -0.00439688    0.00482757   -0.00324371
     atom   29 type  3   force =     0.00000000    0.00000000    0.00000000
     atom   30 type  3   force =     0.00000000    0.00000000    0.00000000
     atom   31 type  2   force =     0.00581429   -0.00143098    0.01011266
     atom   32 type  4   force =     0.01804677   -0.00941269    0.00863710
     atom   33 type  3   force =     0.00000000    0.00000000    0.00000000
     atom   34 type  3   force =     0.00000000    0.00000000    0.00000000
     atom   35 type  2   force =     0.00939470   -0.00685703    0.00341008
     atom   36 type  4   force =     0.00309930   -0.00832617   -0.02110356
     atom   37 type  1   force =     0.00022963    0.00184697    0.00102126
     atom   38 type  4   force =     0.00071502    0.01455722   -0.01765437
     atom   39 type  1   force =    -0.00957840   -0.00873772   -0.00427477
     atom   40 type  1   force =    -0.00006074   -0.00122986    0.00006217
     atom   41 type  4   force =    -0.01833991   -0.00368362    0.01275629
     atom   42 type  1   force =     0.00440551    0.00481927    0.00324906
     atom   43 type  3   force =     0.00000000    0.00000000    0.00000000
     atom   44 type  3   force =     0.00000000    0.00000000    0.00000000
     atom   45 type  2   force =     0.00581496    0.00143086    0.01010356
     atom   46 type  4   force =     0.01804850    0.00941176    0.00863578
     atom   47 type  3   force =     0.00000000    0.00000000    0.00000000
     atom   48 type  3   force =     0.00000000    0.00000000    0.00000000
     atom   49 type  2   force =     0.00939501    0.00685991    0.00340065
     atom   50 type  4   force =     0.00309682    0.00832094   -0.02110429
     atom   51 type  1   force =     0.00022956   -0.00184566    0.00102158
     atom   52 type  4   force =     0.00071171   -0.01455781   -0.01765378
     atom   53 type  1   force =    -0.00958034    0.00873371   -0.00427780
     atom   54 type  1   force =    -0.00005662    0.00123587    0.00006517
     atom   55 type  4   force =    -0.01834047    0.00367537    0.01275586
     atom   56 type  1   force =     0.00439686   -0.00482757    0.00324370
     The Hubbard contrib.    to forces
     atom    1 type  1   force =     0.00000000    0.00000000    0.00000000
     atom    2 type  4   force =     0.00000000    0.00000000    0.00000000
     atom    3 type  1   force =     0.00000000    0.00000000    0.00000000
     atom    4 type  1   force =     0.00000000    0.00000000    0.00000000
     atom    5 type  4   force =     0.00000000    0.00000000    0.00000000
     atom    6 type  1   force =     0.00000000    0.00000000    0.00000000
     atom    7 type  4   force =     0.00000000    0.00000000    0.00000000
     atom    8 type  2   force =     0.00000000    0.00000000    0.00000000
     atom    9 type  3   force =     0.00000000    0.00000000    0.00000000
     atom   10 type  3   force =     0.00000000    0.00000000    0.00000000
     atom   11 type  4   force =     0.00000000    0.00000000    0.00000000
     atom   12 type  2   force =     0.00000000    0.00000000    0.00000000
     atom   13 type  3   force =     0.00000000    0.00000000    0.00000000
     atom   14 type  3   force =     0.00000000    0.00000000    0.00000000
     atom   15 type  3   force =     0.00000000    0.00000000    0.00000000
     atom   16 type  3   force =     0.00000000    0.00000000    0.00000000
     atom   17 type  2   force =     0.00000000    0.00000000    0.00000000
     atom   18 type  4   force =     0.00000000    0.00000000    0.00000000
     atom   19 type  3   force =     0.00000000    0.00000000    0.00000000
     atom   20 type  3   force =     0.00000000    0.00000000    0.00000000
     atom   21 type  2   force =     0.00000000    0.00000000    0.00000000
     atom   22 type  4   force =     0.00000000    0.00000000    0.00000000
     atom   23 type  1   force =     0.00000000    0.00000000    0.00000000
     atom   24 type  4   force =     0.00000000    0.00000000    0.00000000
     atom   25 type  1   force =     0.00000000    0.00000000    0.00000000
     atom   26 type  1   force =     0.00000000    0.00000000    0.00000000
     atom   27 type  4   force =     0.00000000    0.00000000    0.00000000
     atom   28 type  1   force =     0.00000000    0.00000000    0.00000000
     atom   29 type  3   force =     0.00000000    0.00000000    0.00000000
     atom   30 type  3   force =     0.00000000    0.00000000    0.00000000
     atom   31 type  2   force =     0.00000000    0.00000000    0.00000000
     atom   32 type  4   force =     0.00000000    0.00000000    0.00000000
     atom   33 type  3   force =     0.00000000    0.00000000    0.00000000
     atom   34 type  3   force =     0.00000000    0.00000000    0.00000000
     atom   35 type  2   force =     0.00000000    0.00000000    0.00000000
     atom   36 type  4   force =     0.00000000    0.00000000    0.00000000
     atom   37 type  1   force =     0.00000000    0.00000000    0.00000000
     atom   38 type  4   force =     0.00000000    0.00000000    0.00000000
     atom   39 type  1   force =     0.00000000    0.00000000    0.00000000
     atom   40 type  1   force =     0.00000000    0.00000000    0.00000000
     atom   41 type  4   force =     0.00000000    0.00000000    0.00000000
     atom   42 type  1   force =     0.00000000    0.00000000    0.00000000
     atom   43 type  3   force =     0.00000000    0.00000000    0.00000000
     atom   44 type  3   force =     0.00000000    0.00000000    0.00000000
     atom   45 type  2   force =     0.00000000    0.00000000    0.00000000
     atom   46 type  4   force =     0.00000000    0.00000000    0.00000000
     atom   47 type  3   force =     0.00000000    0.00000000    0.00000000
     atom   48 type  3   force =     0.00000000    0.00000000    0.00000000
     atom   49 type  2   force =     0.00000000    0.00000000    0.00000000
     atom   50 type  4   force =     0.00000000    0.00000000    0.00000000
     atom   51 type  1   force =     0.00000000    0.00000000    0.00000000
     atom   52 type  4   force =     0.00000000    0.00000000    0.00000000
     atom   53 type  1   force =     0.00000000    0.00000000    0.00000000
     atom   54 type  1   force =     0.00000000    0.00000000    0.00000000
     atom   55 type  4   force =     0.00000000    0.00000000    0.00000000
     atom   56 type  1   force =     0.00000000    0.00000000    0.00000000
     The SCF correction term to forces
     atom    1 type  1   force =     0.00000193   -0.00000869    0.00000115
     atom    2 type  4   force =    -0.00000481   -0.00000934    0.00000720
     atom    3 type  1   force =     0.00000535   -0.00001368   -0.00001324
     atom    4 type  1   force =    -0.00000892    0.00000089   -0.00001639
     atom    5 type  4   force =    -0.00000587    0.00001514   -0.00002361
     atom    6 type  1   force =    -0.00002086    0.00003157   -0.00004475
     atom    7 type  4   force =     0.00000741   -0.00000933   -0.00001358
     atom    8 type  2   force =    -0.00000313   -0.00001139   -0.00000246
     atom    9 type  3   force =    -0.00000144   -0.00000343    0.00000060
     atom   10 type  3   force =    -0.00000094   -0.00000444   -0.00000004
     atom   11 type  4   force =    -0.00000295    0.00000402   -0.00001939
     atom   12 type  2   force =    -0.00000058   -0.00000208    0.00001297
     atom   13 type  3   force =    -0.00000140    0.00000000    0.00000351
     atom   14 type  3   force =    -0.00000185    0.00000051    0.00000246
     atom   15 type  3   force =    -0.00000154   -0.00000052    0.00000212
     atom   16 type  3   force =    -0.00000114    0.00000038    0.00000314
     atom   17 type  2   force =     0.00000046    0.00000311    0.00001086
     atom   18 type  4   force =    -0.00000241   -0.00000630   -0.00001830
     atom   19 type  3   force =    -0.00000075    0.00000404    0.00000037
     atom   20 type  3   force =    -0.00000141    0.00000320    0.00000074
     atom   21 type  2   force =    -0.00000329    0.00001037   -0.00000045
     atom   22 type  4   force =     0.00000801    0.00000547   -0.00000984
     atom   23 type  1   force =    -0.00001666   -0.00003130   -0.00004196
     atom   24 type  4   force =    -0.00000371   -0.00001389   -0.00002023
     atom   25 type  1   force =    -0.00000778   -0.00000227   -0.00001425
     atom   26 type  1   force =     0.00000656    0.00000890   -0.00000891
     atom   27 type  4   force =    -0.00000470    0.00000661    0.00000752
     atom   28 type  1   force =     0.00000262    0.00000709    0.00000190
     atom   29 type  3   force =     0.00000144   -0.00000119   -0.00000231
     atom   30 type  3   force =     0.00000138   -0.00000093   -0.00000379
     atom   31 type  2   force =     0.00000056   -0.00000168   -0.00001327
     atom   32 type  4   force =     0.00000302   -0.00000846    0.00001987
     atom   33 type  3   force =     0.00000096    0.00000408    0.00000020
     atom   34 type  3   force =     0.00000137    0.00000262   -0.00000102
     atom   35 type  2   force =     0.00000336    0.00000944    0.00000124
     atom   36 type  4   force =    -0.00000660    0.00001073    0.00001396
     atom   37 type  1   force =     0.00002214   -0.00004200    0.00005269
     atom   38 type  4   force =     0.00000548   -0.00002414    0.00002988
     atom   39 type  1   force =     0.00000971   -0.00000466    0.00001613
     atom   40 type  1   force =    -0.00000400    0.00001312    0.00001284
     atom   41 type  4   force =     0.00000476    0.00000777   -0.00000663
     atom   42 type  1   force =    -0.00000139    0.00000552   -0.00000223
     atom   43 type  3   force =     0.00000113    0.00000121   -0.00000176
     atom   44 type  3   force =     0.00000106    0.00000049   -0.00000340
     atom   45 type  2   force =    -0.00000066    0.00000019   -0.00001107
     atom   46 type  4   force =     0.00000151    0.00000900    0.00001746
     atom   47 type  3   force =     0.00000064   -0.00000358   -0.00000051
     atom   48 type  3   force =     0.00000129   -0.00000253   -0.00000140
     atom   49 type  2   force =     0.00000333   -0.00000840   -0.00000166
     atom   50 type  4   force =    -0.00000658   -0.00000619    0.00000752
     atom   51 type  1   force =     0.00001845    0.00004089    0.00004982
     atom   52 type  4   force =     0.00000356    0.00002299    0.00002864
     atom   53 type  1   force =     0.00000928    0.00000574    0.00001338
     atom   54 type  1   force =    -0.00000373   -0.00000726    0.00000434
     atom   55 type  4   force =     0.00000531   -0.00000628   -0.00000845
     atom   56 type  1   force =    -0.00000177   -0.00000405   -0.00000419

     Total force =     0.004057     Total SCF correction =     0.000165


     entering subroutine stress ...

          total   stress  (Ry/bohr**3)                   (kbar)     P=   15.43
   0.00009605   0.00000024   0.00002040         14.13      0.04      3.00
   0.00000024   0.00011543  -0.00000037          0.04     16.98     -0.05
   0.00002040  -0.00000037   0.00010316          3.00     -0.05     15.17

     kinetic stress (kbar)  14984.40     -0.10    280.66
                               -0.10  15453.67      0.07
                              280.66      0.07  14920.41

     local   stress (kbar) -15791.19     -0.92   6585.69
                               -0.92  -7535.89      0.91
                             6585.69      0.91 -11775.40

     nonloc. stress (kbar)   1045.40     -0.01      3.60
                               -0.01   1059.24      0.01
                                3.60      0.01   1010.92

     hartree stress (kbar)   7127.16      0.19  -2421.55
                                0.19   4543.59     -0.21
                            -2421.55     -0.21   5527.17

     exc-cor stress (kbar)  -2164.11      0.00     -8.71
                                0.00  -2185.80     -0.00
                               -8.71     -0.00  -2168.92

     corecor stress (kbar)  -1133.10     -0.00     -2.28
                               -0.00  -1135.80      0.00
                               -2.28      0.00  -1133.66

     ewald   stress (kbar)  -4054.43      0.88  -4434.40
                                0.88 -10182.02     -0.83
                            -4434.40     -0.83  -6365.34

     hubbard stress (kbar)      0.00      0.00      0.00
                                0.00      0.00      0.00
                                0.00      0.00      0.00

     london  stress (kbar)      0.00      0.00      0.00
                                0.00      0.00      0.00
                                0.00      0.00      0.00

     XDM     stress (kbar)      0.00      0.00      0.00
                                0.00      0.00      0.00
                                0.00      0.00      0.00

     dft-nl  stress (kbar)      0.00      0.00      0.00
                                0.00      0.00      0.00
                                0.00      0.00      0.00

     TS-vdW  stress (kbar)      0.00      0.00      0.00
                                0.00      0.00      0.00
                                0.00      0.00      0.00



     bfgs converged in  36 scf cycles and  35 bfgs steps
     (criteria: energy <  1.0E-04, force <  1.0E-03)

     End of BFGS Geometry Optimization

     Final energy   =   -1282.3933275809 Ry
Begin final coordinates

ATOMIC_POSITIONS (crystal)
N       -0.025741241   0.623280536   0.455414146
O        0.266007933   0.720423887   0.423432409
N        0.139146381   0.701621205   0.524377781
N       -0.136697443   0.526181229   0.712565708
O       -0.271201649   0.418292078   0.920862380
N       -0.304738079   0.491166078   0.789371004
O        0.149392615   0.743330564   0.682703783
C       -0.190177769   0.615611708   0.557754353
H       -0.333129177   0.587722602   0.459199303
H       -0.212640058   0.704565438   0.617193906
O       -0.477047795   0.540473394   0.722361149
C       -0.033157586   0.560673032   0.278011260
H       -0.185278661   0.512953350   0.242924827
H       -0.024612624   0.625206277   0.166450632
H        0.475392134  -0.125203594  -0.333550341
H        0.314725089  -0.012952721  -0.257071145
C        0.466843980  -0.060671784  -0.221983876
O        0.022968783  -0.040475231   0.222366984
H        0.287367453  -0.204567234   0.117189341
H        0.166873639  -0.087727403  -0.040805679
C        0.309819983  -0.115617048   0.057760885
O        0.649392792  -0.243330789   0.182686604
N        0.195237666   0.008817026   0.289352410
O        0.228796687   0.081708700   0.420867638
N        0.363305811  -0.026181289   0.212568015
N        0.639134230  -0.201643617   0.024381989
O        0.766013598  -0.220420735  -0.076561163
N        0.474266495  -0.123274905  -0.044585242
H        0.024612624   0.374793723   0.833549368
H        0.185278661   0.487046650   0.757075173
C        0.033157586   0.439326968   0.721988740
O        0.477047795   0.459526606   0.277638851
H        0.212640058   0.295434562   0.382806094
H        0.333129177   0.412277398   0.540800697
C        0.190177769   0.384388292   0.442245647
O       -0.149392615   0.256669436   0.317296217
N        0.304738079   0.508833922   0.210628996
O        0.271201649   0.581707922   0.079137620
N        0.136697443   0.473818771   0.287434292
N       -0.139146381   0.298378795   0.475622219
O       -0.266007933   0.279576113   0.576567591
N        0.025741241   0.376719464   0.544585854
H        0.524607866   0.125203594   0.333550341
H        0.685274911   0.012952721   0.257071145
C        0.533156020   0.060671784   0.221983876
O        0.977031217   0.040475231  -0.222366984
H        0.712632547   0.204567234  -0.117189341
H        0.833126361   0.087727403   0.040805679
C        0.690180017   0.115617048  -0.057760885
O        0.350607208   0.243330789  -0.182686604
N        0.804762334  -0.008817026  -0.289352410
O        0.771203313  -0.081708700  -0.420867638
N        0.636694189   0.026181289  -0.212568015
N        0.360865770   0.201643617  -0.024381989
O        0.233986402   0.220420735   0.076561163
N        0.525733505   0.123274905   0.044585242
End final coordinates



     Writing output data file scf.pbe-ec-80-kp444.HMX-792927-nofor.nostress.save

     init_run     :     45.84s CPU     48.57s WALL (       1 calls)
     electrons    :   9539.00s CPU  11246.65s WALL (      36 calls)
     update_pot   :   1398.96s CPU   1535.61s WALL (      35 calls)
     forces       :   1284.69s CPU   1379.93s WALL (      36 calls)
     stress       :   2898.94s CPU   3021.96s WALL (      36 calls)

     Called by init_run:
     wfcinit      :      3.96s CPU      4.37s WALL (       1 calls)
     potinit      :     15.18s CPU     16.18s WALL (       1 calls)

     Called by electrons:
     c_bands      :   4280.84s CPU   4815.64s WALL (     520 calls)
     sum_band     :   2833.92s CPU   3636.48s WALL (     520 calls)
     v_of_rho     :    921.75s CPU    956.25s WALL (     548 calls)
     v_h          :     86.84s CPU     90.33s WALL (     548 calls)
     v_xc         :    944.47s CPU    978.58s WALL (     620 calls)
     newd         :    996.26s CPU   1241.70s WALL (     548 calls)
     PAW_pot      :    386.88s CPU    396.97s WALL (     583 calls)
     mix_rho      :    172.80s CPU    180.89s WALL (     520 calls)

     Called by c_bands:
     init_us_2    :     45.65s CPU     47.69s WALL (    1076 calls)
     regterg      :   4231.80s CPU   4742.32s WALL (     520 calls)

     Called by sum_band:
     sum_band:bec :      0.23s CPU      0.26s WALL (     555 calls)
     addusdens    :   1769.53s CPU   2483.55s WALL (     520 calls)

     Called by *egterg:
     h_psi        :   2798.73s CPU   3089.15s WALL (    2549 calls)
     s_psi        :    302.99s CPU    301.91s WALL (    2549 calls)
     g_psi        :      5.22s CPU      6.16s WALL (    2028 calls)
     rdiaghg      :    205.30s CPU    216.39s WALL (    2505 calls)
     regterg:over :    357.70s CPU    459.65s WALL (    2028 calls)
     regterg:upda :    210.45s CPU    213.80s WALL (    2028 calls)
     regterg:last :    118.08s CPU    123.01s WALL (     564 calls)

     Called by h_psi:
     h_psi:vloc   :   2100.22s CPU   2290.47s WALL (    2549 calls)
     h_psi:vnl    :    676.55s CPU    775.82s WALL (    2549 calls)
     add_vuspsi   :    303.98s CPU    315.92s WALL (    2549 calls)

     General routines
     calbec       :    556.45s CPU    681.11s WALL (    3284 calls)
     fft          :   1125.62s CPU   1318.83s WALL (    9591 calls)
     ffts         :     13.83s CPU     17.15s WALL (    1068 calls)
     fftw         :   1242.25s CPU   1444.40s WALL (  193728 calls)
     interpolate  :    171.59s CPU    191.47s WALL (    1068 calls)
     davcio       :      0.66s CPU     12.70s WALL (      36 calls)

     Parallel routines
     fft_scatter  :   1371.49s CPU   1753.55s WALL (  204387 calls)

     PAW routines
     PAW_pot      :    386.88s CPU    396.97s WALL (     583 calls)
     PAW_symme    :      0.88s CPU      1.80s WALL (    1103 calls)

     PWSCF        :     4h14m CPU        4h51m WALL


   This run was terminated on:   7:41:35  24May2016            

=------------------------------------------------------------------------------=
   JOB DONE.
=------------------------------------------------------------------------------=
