
     Program PWSCF v.6.1 starts on 20May2017 at 17:29:30 

     This program is part of the open-source Quantum ESPRESSO suite
     for quantum simulation of materials; please cite
         "P. Giannozzi et al., J. Phys.:Condens. Matter 21 395502 (2009);
          URL http://www.quantum-espresso.org", 
     in publications or presentations arising from this work. More details at
     http://www.quantum-espresso.org/quote

     Parallel version (MPI & OpenMP), running on      32 processor cores
     Number of MPI processes:                32
     Threads/MPI process:                     1
     R & G space division:  proc/nbgrp/npool/nimage =      32
     Waiting for input...
     Reading input from standard input
Warning: card &IONS ignored
Warning: card     ION_TEMPERATURE   = 'INITIAL' ignored
Warning: card     TEMPW             = 586.D0 ignored
Warning: card     TOLP              = 100.D0 ignored
Warning: card     DELTA_T           = 1.D0 ignored
Warning: card     NRAISE            = 1 ignored
Warning: card / ignored
Warning: card &CELL ignored
Warning: card     CELL_DYNAMICS     = 'BFGS' ignored
Warning: card / ignored

     Current dimensions of program PWSCF are:
     Max number of different atomic species (ntypx) = 10
     Max number of k-points (npk) =  40000
     Max angular momentum in pseudopotentials (lmaxx) =  3
               file C.pbe-n-kjpaw_psl.1.0.0.UPF: wavefunction(s)  2S 2P renormalized
               file Cl.pbe-n-kjpaw_psl.1.0.0.UPF: wavefunction(s)  3S 3P renormalized
               file H.pbe-kjpaw_psl.1.0.0.UPF: wavefunction(s)  1S renormalized

     Subspace diagonalization in iterative solution of the eigenvalue problem:
     a serial algorithm will be used

 
     Parallelization info
     --------------------
     sticks:   dense  smooth     PW     G-vecs:    dense   smooth      PW
     Min         764     305     83                36108     9133    1292
     Max         765     306     84                36110     9135    1293
     Sum       24467    9791   2657              1155489   292295   41363
 


     bravais-lattice index     =            0
     lattice parameter (alat)  =       1.8897  a.u.
     unit-cell volume          =    2163.5316 (a.u.)^3
     number of atoms/cell      =           24
     number of atomic types    =            3
     number of electrons       =        84.00
     number of Kohn-Sham states=           42
     kinetic-energy cutoff     =     100.0000  Ry
     charge density cutoff     =    1000.0000  Ry
     convergence threshold     =      1.0E-07
     mixing beta               =       0.7000
     number of iterations used =            8  plain     mixing
     Exchange-correlation      =  SLA  PW   PBX  PBC ( 1  4  3  4 0 0)

     celldm(1)=   1.889726  celldm(2)=   0.000000  celldm(3)=   0.000000
     celldm(4)=   0.000000  celldm(5)=   0.000000  celldm(6)=   0.000000

     crystal axes: (cart. coord. in units of alat)
               a(1) = (  14.762000   0.000000   0.000000 )  
               a(2) = (   0.000000   5.832000   0.000000 )  
               a(3) = (  -1.563876   0.000000   3.723951 )  

     reciprocal axes: (cart. coord. in units 2 pi/alat)
               b(1) = (  0.067741  0.000000  0.028448 )  
               b(2) = (  0.000000  0.171468  0.000000 )  
               b(3) = (  0.000000  0.000000  0.268532 )  


     PseudoPot. # 1 for  C read from file:
     /global/cscratch1/sd/almno10/.data/PSEUDOPOTENTIALS/C.pbe-n-kjpaw_psl.1.0.0.UPF
     MD5 check sum: 2ba8448e293caca687844dde9a1b88a8
     Pseudo is Projector augmented-wave + core cor, Zval =  4.0
     Generated using "atomic" code by A. Dal Corso  v.5.3.0 svn rev. 11974
     Shape of augmentation charge: PSQ
     Using radial grid of 1073 points,  4 beta functions with: 
                l(1) =   0
                l(2) =   0
                l(3) =   1
                l(4) =   1
     Q(r) pseudized with 0 coefficients 


     PseudoPot. # 2 for Cl read from file:
     /global/cscratch1/sd/almno10/.data/PSEUDOPOTENTIALS/Cl.pbe-n-kjpaw_psl.1.0.0.UPF
     MD5 check sum: dca63699d6b897c5771335df08a09219
     Pseudo is Projector augmented-wave + core cor, Zval =  7.0
     Generated using "atomic" code by A. Dal Corso  v.5.3.0 svn rev. 11974
     Shape of augmentation charge: PSQ
     Using radial grid of 1157 points,  6 beta functions with: 
                l(1) =   0
                l(2) =   0
                l(3) =   1
                l(4) =   1
                l(5) =   2
                l(6) =   2
     Q(r) pseudized with 0 coefficients 


     PseudoPot. # 3 for  H read from file:
     /global/cscratch1/sd/almno10/.data/PSEUDOPOTENTIALS/H.pbe-kjpaw_psl.1.0.0.UPF
     MD5 check sum: bc0feb48a24907a0b97fa6ee2d589a29
     Pseudo is Projector augmented-wave, Zval =  1.0
     Generated using "atomic" code by A. Dal Corso  v.5.3.0 svn rev. 11974
     Shape of augmentation charge: PSQ
     Using radial grid of  929 points,  2 beta functions with: 
                l(1) =   0
                l(2) =   0
     Q(r) pseudized with 0 coefficients 


     atomic species   valence    mass     pseudopotential
        C              4.00    12.01100      C( 1.00)
        Cl             7.00    35.45270     Cl( 1.00)
        H              1.00     1.00790      H( 1.00)

     No symmetry found


                                    s                        frac. trans.

      isym =  1     identity                                     

 cryst.   s( 1) = (     1          0          0      )
                  (     0          1          0      )
                  (     0          0          1      )

 cart.    s( 1) = (  1.0000000  0.0000000 -0.0000000 )
                  (  0.0000000  1.0000000  0.0000000 )
                  (  0.0000000  0.0000000  1.0000000 )


   Cartesian axes

     site n.     atom                  positions (alat units)
         1           Cl  tau(   1) = (  16.4787347   0.8113527   1.5369860  )
         2           C   tau(   2) = (  15.1756951   1.8080874   1.6922524  )
         3           C   tau(   3) = (  15.2071766   3.0410743   2.3420991  )
         4           H   tau(   4) = (  16.0941615   3.4009490   2.8604110  )
         5           C   tau(   5) = (  14.0312249   3.7883694   2.3720417  )
         6           H   tau(   6) = (  14.0149680   4.7535468   2.8750852  )
         7           H   tau(   7) = (   6.6395849   2.1547502   0.4647029  )
         8           C   tau(   8) = (   6.6099026   1.3186862   1.1601073  )
         9           H   tau(   9) = (   4.7216649   0.5779147   0.4254367  )
        10           C   tau(  10) = (   5.5114880   0.4573325   1.1651177  )
        11           C   tau(  11) = (   5.5152700  -0.6063361   2.0662990  )
        12           Cl  tau(  12) = (   4.1777895  -1.6945875   2.2878431  )
        13           H   tau(  13) = (  14.0351588   0.3770538   0.5804633  )
        14           C   tau(  14) = (  14.0011123   1.3210610   1.1213152  )
        15           H   tau(  15) = (  11.9647975   1.7592592   0.5656871  )
        16           C   tau(  16) = (  12.8777593   2.1418790   1.0163136  )
        17           C   tau(  17) = (  12.8845763   3.3393424   1.7190514  )
        18           Cl  tau(  18) = (  11.4939239   4.5903935   1.5964039  )
        19           H   tau(  19) = (   6.5917365  -1.6962218   3.5782716  )
        20           C   tau(  20) = (   6.6026709  -0.8379401   2.9079773  )
        21           H   tau(  21) = (   8.4962545  -0.1064601   3.6307669  )
        22           C   tau(  22) = (   7.6525069   0.0768219   2.9686836  )
        23           C   tau(  23) = (   7.6275980   1.1661601   2.1001482  )
        24           Cl  tau(  24) = (   8.9256348   2.3005557   1.9267837  )

   Crystallographic axes

     site n.     atom                  positions (cryst. coord.)
         1           Cl  tau(   1) = (  1.1600185  0.1391208  0.4127299  )
         2           C   tau(   2) = (  1.0761657  0.3100287  0.4544239  )
         3           C   tau(   3) = (  1.0967852  0.5214462  0.6289285  )
         4           H   tau(   4) = (  1.1716158  0.5831531  0.7681118  )
         5           C   tau(   5) = (  1.0179762  0.6495832  0.6369690  )
         6           H   tau(   6) = (  1.0311856  0.8150800  0.7720523  )
         7           H   tau(   7) = (  0.4629953  0.3694702  0.1247876  )
         8           C   tau(   8) = (  0.4807675  0.2261122  0.3115259  )
         9           H   tau(   9) = (  0.3319555  0.0990937  0.1142434  )
        10           C   tau(  10) = (  0.4065018  0.0784178  0.3128713  )
        11           C   tau(  11) = (  0.4323949 -0.1039671  0.5548673  )
        12           Cl  tau(  12) = (  0.3480945 -0.2905671  0.6143590  )
        13           H   tau(  13) = (  0.9672758  0.0646526  0.1558729  )
        14           C   tau(  14) = (  0.9803556  0.2265194  0.3011090  )
        15           H   tau(  15) = (  0.8266060  0.3016562  0.1519051  )
        16           C   tau(  16) = (  0.9012709  0.3672632  0.2729127  )
        17           C   tau(  17) = (  0.9217242  0.5725896  0.4616203  )
        18           Cl  tau(  18) = (  0.8240303  0.7871045  0.4286855  )
        19           H   tau(  19) = (  0.5483291 -0.2908474  0.9608803  )
        20           C   tau(  20) = (  0.5300012 -0.1436797  0.7808849  )
        21           H   tau(  21) = (  0.6788374 -0.0182545  0.9749770  )
        22           C   tau(  22) = (  0.6028456  0.0131725  0.7971865  )
        23           C   tau(  23) = (  0.5764501  0.1999589  0.5639569  )
        24           Cl  tau(  24) = (  0.6594492  0.3944711  0.5174030  )

     number of k points=    16
                       cart. coord. in units 2pi/alat
        k(    1) = (   0.0169354   0.0214335   0.0406785), wk =   0.1250000
        k(    2) = (   0.0169354   0.0214335   0.1078115), wk =   0.1250000
        k(    3) = (   0.0169354   0.0214335  -0.0935875), wk =   0.1250000
        k(    4) = (   0.0169354   0.0214335  -0.0264545), wk =   0.1250000
        k(    5) = (   0.0169354   0.0643004   0.0406785), wk =   0.1250000
        k(    6) = (   0.0169354   0.0643004   0.1078115), wk =   0.1250000
        k(    7) = (   0.0169354   0.0643004  -0.0935875), wk =   0.1250000
        k(    8) = (   0.0169354   0.0643004  -0.0264545), wk =   0.1250000
        k(    9) = (  -0.0169354   0.0214335  -0.0406785), wk =   0.1250000
        k(   10) = (  -0.0169354   0.0214335  -0.1078115), wk =   0.1250000
        k(   11) = (  -0.0169354   0.0214335   0.0935875), wk =   0.1250000
        k(   12) = (  -0.0169354   0.0214335   0.0264545), wk =   0.1250000
        k(   13) = (  -0.0169354   0.0643004  -0.0406785), wk =   0.1250000
        k(   14) = (  -0.0169354   0.0643004  -0.1078115), wk =   0.1250000
        k(   15) = (  -0.0169354   0.0643004   0.0935875), wk =   0.1250000
        k(   16) = (  -0.0169354   0.0643004   0.0264545), wk =   0.1250000

                       cryst. coord.
        k(    1) = (   0.2500000   0.1250000   0.1250000), wk =   0.1250000
        k(    2) = (   0.2500000   0.1250000   0.3750000), wk =   0.1250000
        k(    3) = (   0.2500000   0.1250000  -0.3750000), wk =   0.1250000
        k(    4) = (   0.2500000   0.1250000  -0.1250000), wk =   0.1250000
        k(    5) = (   0.2500000   0.3750000   0.1250000), wk =   0.1250000
        k(    6) = (   0.2500000   0.3750000   0.3750000), wk =   0.1250000
        k(    7) = (   0.2500000   0.3750000  -0.3750000), wk =   0.1250000
        k(    8) = (   0.2500000   0.3750000  -0.1250000), wk =   0.1250000
        k(    9) = (  -0.2500000   0.1250000  -0.1250000), wk =   0.1250000
        k(   10) = (  -0.2500000   0.1250000  -0.3750000), wk =   0.1250000
        k(   11) = (  -0.2500000   0.1250000   0.3750000), wk =   0.1250000
        k(   12) = (  -0.2500000   0.1250000   0.1250000), wk =   0.1250000
        k(   13) = (  -0.2500000   0.3750000  -0.1250000), wk =   0.1250000
        k(   14) = (  -0.2500000   0.3750000  -0.3750000), wk =   0.1250000
        k(   15) = (  -0.2500000   0.3750000   0.3750000), wk =   0.1250000
        k(   16) = (  -0.2500000   0.3750000   0.1250000), wk =   0.1250000

     Dense  grid:  1155489 G-vectors     FFT dimensions: ( 288, 120,  80)

     Smooth grid:   292295 G-vectors     FFT dimensions: ( 180,  72,  50)

     Estimated max dynamical RAM per process >     147.21MB

     Estimated total allocated dynamical RAM >    4710.62MB

     Initial potential from superposition of free atoms

     starting charge   83.99939, renormalised to   84.00000
     Starting wfc are   72 randomized atomic wfcs
     Checking if some PAW data can be deallocated... 
       node    0, deallocated PAW data for type:  1
       node    0, deallocated PAW data for type:  3
       node    1, deallocated PAW data for type:  1
       node    1, deallocated PAW data for type:  3
       node    2, deallocated PAW data for type:  2
       node    2, deallocated PAW data for type:  3
       node    3, deallocated PAW data for type:  2
       node    3, deallocated PAW data for type:  3
       node    4, deallocated PAW data for type:  2
       node    4, deallocated PAW data for type:  3
       node    5, deallocated PAW data for type:  2
       node    5, deallocated PAW data for type:  3
       node    6, deallocated PAW data for type:  1
       node    6, deallocated PAW data for type:  2
       node    7, deallocated PAW data for type:  1
       node    7, deallocated PAW data for type:  2
       node    8, deallocated PAW data for type:  2
       node    8, deallocated PAW data for type:  3
       node    9, deallocated PAW data for type:  2
       node    9, deallocated PAW data for type:  3
       node   10, deallocated PAW data for type:  1
       node   10, deallocated PAW data for type:  2
       node   11, deallocated PAW data for type:  1
       node   11, deallocated PAW data for type:  2
       node   12, deallocated PAW data for type:  1
       node   12, deallocated PAW data for type:  2
       node   13, deallocated PAW data for type:  1
       node   13, deallocated PAW data for type:  2
       node   14, deallocated PAW data for type:  2
       node   14, deallocated PAW data for type:  3
       node   15, deallocated PAW data for type:  2
       node   15, deallocated PAW data for type:  3
       node   16, deallocated PAW data for type:  1
       node   16, deallocated PAW data for type:  2
       node   17, deallocated PAW data for type:  2
       node   17, deallocated PAW data for type:  3
       node   18, deallocated PAW data for type:  2
       node   18, deallocated PAW data for type:  3
       node   19, deallocated PAW data for type:  1
       node   19, deallocated PAW data for type:  3
       node   20, deallocated PAW data for type:  1
       node   20, deallocated PAW data for type:  2
       node   21, deallocated PAW data for type:  2
       node   21, deallocated PAW data for type:  3
       node   22, deallocated PAW data for type:  1
       node   22, deallocated PAW data for type:  2
       node   23, deallocated PAW data for type:  2
       node   23, deallocated PAW data for type:  3
       node   24, deallocated PAW data for type:  2
       node   24, deallocated PAW data for type:  3
       node   25, deallocated PAW data for type:  1
       node   25, deallocated PAW data for type:  3
       node   26, deallocated PAW data for type:  1
       node   26, deallocated PAW data for type:  2
       node   27, deallocated PAW data for type:  2
       node   27, deallocated PAW data for type:  3
       node   28, deallocated PAW data for type:  1
       node   28, deallocated PAW data for type:  2
       node   29, deallocated PAW data for type:  2
       node   29, deallocated PAW data for type:  3
       node   30, deallocated PAW data for type:  2
       node   30, deallocated PAW data for type:  3
       node   31, deallocated PAW data for type:  1
       node   31, deallocated PAW data for type:  3

     total cpu time spent up to now is        5.3 secs

     per-process dynamical memory:    20.7 Mb

     Self-consistent Calculation

     iteration #  1     ecut=   100.00 Ry     beta= 0.70
     Davidson diagonalization with overlap
     ethr =  1.00E-04,  avg # of iterations =  5.0

     total cpu time spent up to now is       12.0 secs

     total energy              =    -547.09152856 Ry
     Harris-Foulkes estimate   =    -548.97758156 Ry
     estimated scf accuracy    <       2.75466016 Ry

     iteration #  2     ecut=   100.00 Ry     beta= 0.70
     Davidson diagonalization with overlap
     ethr =  3.28E-03,  avg # of iterations =  3.0

     total cpu time spent up to now is       16.8 secs

     total energy              =    -547.49205617 Ry
     Harris-Foulkes estimate   =    -548.60399967 Ry
     estimated scf accuracy    <       2.01546025 Ry

     iteration #  3     ecut=   100.00 Ry     beta= 0.70
     Davidson diagonalization with overlap
     ethr =  2.40E-03,  avg # of iterations =  2.8

     total cpu time spent up to now is       21.2 secs

     total energy              =    -547.99257383 Ry
     Harris-Foulkes estimate   =    -548.03269418 Ry
     estimated scf accuracy    <       0.08140959 Ry

     iteration #  4     ecut=   100.00 Ry     beta= 0.70
     Davidson diagonalization with overlap
     ethr =  9.69E-05,  avg # of iterations =  4.0

     total cpu time spent up to now is       26.0 secs

     total energy              =    -548.01985743 Ry
     Harris-Foulkes estimate   =    -548.03017681 Ry
     estimated scf accuracy    <       0.02024148 Ry

     iteration #  5     ecut=   100.00 Ry     beta= 0.70
     Davidson diagonalization with overlap
     ethr =  2.41E-05,  avg # of iterations =  3.0

     total cpu time spent up to now is       30.4 secs

     total energy              =    -548.02376118 Ry
     Harris-Foulkes estimate   =    -548.02499434 Ry
     estimated scf accuracy    <       0.00231794 Ry

     iteration #  6     ecut=   100.00 Ry     beta= 0.70
     Davidson diagonalization with overlap
     ethr =  2.76E-06,  avg # of iterations =  4.0

     total cpu time spent up to now is       35.0 secs

     total energy              =    -548.02418047 Ry
     Harris-Foulkes estimate   =    -548.02493746 Ry
     estimated scf accuracy    <       0.00194519 Ry

     iteration #  7     ecut=   100.00 Ry     beta= 0.70
     Davidson diagonalization with overlap
     ethr =  2.32E-06,  avg # of iterations =  4.0

     total cpu time spent up to now is       39.3 secs

     total energy              =    -548.02455725 Ry
     Harris-Foulkes estimate   =    -548.02460292 Ry
     estimated scf accuracy    <       0.00011444 Ry

     iteration #  8     ecut=   100.00 Ry     beta= 0.70
     Davidson diagonalization with overlap
     ethr =  1.36E-07,  avg # of iterations =  4.0

     total cpu time spent up to now is       43.9 secs

     total energy              =    -548.02458416 Ry
     Harris-Foulkes estimate   =    -548.02459258 Ry
     estimated scf accuracy    <       0.00001882 Ry

     iteration #  9     ecut=   100.00 Ry     beta= 0.70
     Davidson diagonalization with overlap
     ethr =  2.24E-08,  avg # of iterations =  4.0

     total cpu time spent up to now is       48.5 secs

     total energy              =    -548.02458842 Ry
     Harris-Foulkes estimate   =    -548.02458976 Ry
     estimated scf accuracy    <       0.00000297 Ry

     iteration # 10     ecut=   100.00 Ry     beta= 0.70
     Davidson diagonalization with overlap
     ethr =  3.53E-09,  avg # of iterations =  4.0

     total cpu time spent up to now is       53.2 secs

     total energy              =    -548.02458911 Ry
     Harris-Foulkes estimate   =    -548.02458936 Ry
     estimated scf accuracy    <       0.00000057 Ry

     iteration # 11     ecut=   100.00 Ry     beta= 0.70
     Davidson diagonalization with overlap
     ethr =  6.80E-10,  avg # of iterations =  4.0

     total cpu time spent up to now is       57.7 secs

     End of self-consistent calculation

          k = 0.0169 0.0214 0.0407 ( 36525 PWs)   bands (ev):

   -16.4981 -16.0475 -15.3931 -15.1973 -13.8759 -13.8513 -12.4311 -12.2284
   -11.3165 -11.1398  -9.0742  -8.8929  -8.2704  -8.1164  -6.4223  -6.1937
    -5.4125  -5.2438  -5.0385  -4.7948  -4.2638  -4.1329  -4.0371  -3.8441
    -3.3908  -3.0748  -2.7140  -2.6502  -2.4927  -2.2792  -2.2016  -2.1378
    -1.1796  -1.0883  -1.0613  -0.9717  -0.8401  -0.7626  -0.0608  -0.0355
     0.5782   0.7655

     occupation numbers 
     1.0000   1.0000   1.0000   1.0000   1.0000   1.0000   1.0000   1.0000
     1.0000   1.0000   1.0000   1.0000   1.0000   1.0000   1.0000   1.0000
     1.0000   1.0000   1.0000   1.0000   1.0000   1.0000   1.0000   1.0000
     1.0000   1.0000   1.0000   1.0000   1.0000   1.0000   1.0000   1.0000
     1.0000   1.0000   1.0000   1.0000   1.0000   1.0000   1.0000   1.0000
     1.0000   1.0000

          k = 0.0169 0.0214 0.1078 ( 36561 PWs)   bands (ev):

   -16.4313 -15.9310 -15.3383 -15.1529 -13.8759 -13.8210 -12.4069 -12.2664
   -11.3231 -11.1447  -9.0343  -8.8623  -8.2377  -8.1098  -6.4385  -6.2707
    -5.4127  -5.2533  -5.0688  -4.9215  -4.3057  -4.2297  -4.0966  -4.0348
    -3.9091  -3.6652  -2.7895  -2.6925  -2.5795  -2.4977  -2.3849  -2.2797
    -1.3031  -1.1409  -1.1015  -0.9522  -0.9227  -0.7423  -0.2973   0.0266
     0.6282   0.9079

     occupation numbers 
     1.0000   1.0000   1.0000   1.0000   1.0000   1.0000   1.0000   1.0000
     1.0000   1.0000   1.0000   1.0000   1.0000   1.0000   1.0000   1.0000
     1.0000   1.0000   1.0000   1.0000   1.0000   1.0000   1.0000   1.0000
     1.0000   1.0000   1.0000   1.0000   1.0000   1.0000   1.0000   1.0000
     1.0000   1.0000   1.0000   1.0000   1.0000   1.0000   1.0000   1.0000
     1.0000   1.0000

          k = 0.0169 0.0214-0.0936 ( 36547 PWs)   bands (ev):

   -16.4334 -15.9225 -15.3462 -15.1508 -13.8852 -13.8178 -12.4005 -12.2735
   -11.3254 -11.1317  -9.0601  -8.8352  -8.2668  -8.0524  -6.4335  -6.3074
    -5.4138  -5.2549  -5.1050  -4.9259  -4.2942  -4.2119  -4.1472  -4.0242
    -3.8371  -3.7164  -2.7756  -2.6480  -2.6295  -2.4800  -2.4522  -2.2831
    -1.2665  -1.1610  -1.0678  -0.9808  -0.8761  -0.7064  -0.3375   0.0673
     0.6363   0.8943

     occupation numbers 
     1.0000   1.0000   1.0000   1.0000   1.0000   1.0000   1.0000   1.0000
     1.0000   1.0000   1.0000   1.0000   1.0000   1.0000   1.0000   1.0000
     1.0000   1.0000   1.0000   1.0000   1.0000   1.0000   1.0000   1.0000
     1.0000   1.0000   1.0000   1.0000   1.0000   1.0000   1.0000   1.0000
     1.0000   1.0000   1.0000   1.0000   1.0000   1.0000   1.0000   1.0000
     1.0000   1.0000

          k = 0.0169 0.0214-0.0265 ( 36551 PWs)   bands (ev):

   -16.5002 -16.0403 -15.3998 -15.1952 -13.8891 -13.8434 -12.4251 -12.2368
   -11.3188 -11.1259  -9.1027  -8.8659  -8.3028  -8.0489  -6.4395  -6.2038
    -5.4201  -5.2530  -5.0986  -4.7691  -4.3266  -4.0470  -3.9970  -3.8709
    -3.3832  -3.1167  -2.7757  -2.5667  -2.4785  -2.3275  -2.2298  -2.1370
    -1.1945  -1.1149  -1.0144  -0.9087  -0.8379  -0.7296  -0.0782  -0.0235
     0.5948   0.7538

     occupation numbers 
     1.0000   1.0000   1.0000   1.0000   1.0000   1.0000   1.0000   1.0000
     1.0000   1.0000   1.0000   1.0000   1.0000   1.0000   1.0000   1.0000
     1.0000   1.0000   1.0000   1.0000   1.0000   1.0000   1.0000   1.0000
     1.0000   1.0000   1.0000   1.0000   1.0000   1.0000   1.0000   1.0000
     1.0000   1.0000   1.0000   1.0000   1.0000   1.0000   1.0000   1.0000
     1.0000   1.0000

          k = 0.0169 0.0643 0.0407 ( 36518 PWs)   bands (ev):

   -16.4811 -16.0185 -15.4069 -15.1922 -13.9202 -13.8776 -12.4799 -12.2505
   -11.3301 -11.1250  -8.9764  -8.8413  -8.1607  -8.0445  -6.4424  -6.2453
    -5.3807  -5.2377  -5.1086  -4.9294  -4.3725  -4.2863  -4.0438  -3.9203
    -3.4465  -3.1606  -2.6282  -2.5637  -2.4150  -2.2977  -2.1877  -2.1118
    -1.0454  -1.0242  -0.9293  -0.8578  -0.8299  -0.7383  -0.0496   0.0141
     0.6300   0.7766

     occupation numbers 
     1.0000   1.0000   1.0000   1.0000   1.0000   1.0000   1.0000   1.0000
     1.0000   1.0000   1.0000   1.0000   1.0000   1.0000   1.0000   1.0000
     1.0000   1.0000   1.0000   1.0000   1.0000   1.0000   1.0000   1.0000
     1.0000   1.0000   1.0000   1.0000   1.0000   1.0000   1.0000   1.0000
     1.0000   1.0000   1.0000   1.0000   1.0000   1.0000   1.0000   1.0000
     1.0000   1.0000

          k = 0.0169 0.0643 0.1078 ( 36558 PWs)   bands (ev):

   -16.4196 -15.9188 -15.3404 -15.1428 -13.8762 -13.8587 -12.4378 -12.2661
   -11.3429 -11.1609  -8.9844  -8.8717  -8.1975  -8.1367  -6.4288  -6.2486
    -5.3862  -5.2591  -5.0076  -4.8260  -4.2997  -4.2210  -4.1416  -4.0556
    -3.9577  -3.8136  -2.7491  -2.6573  -2.6131  -2.5364  -2.4330  -2.2425
    -1.2476  -1.0958  -1.0524  -0.9744  -0.8948  -0.8057  -0.1729   0.1946
     0.6525   0.8580

     occupation numbers 
     1.0000   1.0000   1.0000   1.0000   1.0000   1.0000   1.0000   1.0000
     1.0000   1.0000   1.0000   1.0000   1.0000   1.0000   1.0000   1.0000
     1.0000   1.0000   1.0000   1.0000   1.0000   1.0000   1.0000   1.0000
     1.0000   1.0000   1.0000   1.0000   1.0000   1.0000   1.0000   1.0000
     1.0000   1.0000   1.0000   1.0000   1.0000   1.0000   1.0000   1.0000
     1.0000   1.0000

          k = 0.0169 0.0643-0.0936 ( 36547 PWs)   bands (ev):

   -16.4218 -15.9102 -15.3481 -15.1410 -13.8978 -13.8431 -12.4313 -12.2732
   -11.3474 -11.1467  -9.0081  -8.8412  -8.2269  -8.0885  -6.4365  -6.2801
    -5.3894  -5.2601  -4.9481  -4.8676  -4.3642  -4.1940  -4.1137  -4.0077
    -3.9676  -3.8907  -2.7612  -2.7097  -2.6122  -2.5096  -2.3996  -2.2554
    -1.2426  -1.1264  -0.9809  -0.9620  -0.8512  -0.8149  -0.2132   0.2313
     0.6587   0.8494

     occupation numbers 
     1.0000   1.0000   1.0000   1.0000   1.0000   1.0000   1.0000   1.0000
     1.0000   1.0000   1.0000   1.0000   1.0000   1.0000   1.0000   1.0000
     1.0000   1.0000   1.0000   1.0000   1.0000   1.0000   1.0000   1.0000
     1.0000   1.0000   1.0000   1.0000   1.0000   1.0000   1.0000   1.0000
     1.0000   1.0000   1.0000   1.0000   1.0000   1.0000   1.0000   1.0000
     1.0000   1.0000

          k = 0.0169 0.0643-0.0265 ( 36489 PWs)   bands (ev):

   -16.4831 -16.0111 -15.4135 -15.1903 -13.9340 -13.8695 -12.4735 -12.2571
   -11.3360 -11.1116  -8.9999  -8.8099  -8.1910  -7.9859  -6.4580  -6.2896
    -5.3735  -5.2370  -5.0561  -4.9699  -4.3976  -4.2398  -4.0549  -3.9810
    -3.4176  -3.1973  -2.6429  -2.4919  -2.4269  -2.3361  -2.1912  -2.1186
    -1.1352  -0.9723  -0.9078  -0.8483  -0.7792  -0.6874  -0.0328  -0.0076
     0.6346   0.7721

     occupation numbers 
     1.0000   1.0000   1.0000   1.0000   1.0000   1.0000   1.0000   1.0000
     1.0000   1.0000   1.0000   1.0000   1.0000   1.0000   1.0000   1.0000
     1.0000   1.0000   1.0000   1.0000   1.0000   1.0000   1.0000   1.0000
     1.0000   1.0000   1.0000   1.0000   1.0000   1.0000   1.0000   1.0000
     1.0000   1.0000   1.0000   1.0000   1.0000   1.0000   1.0000   1.0000
     1.0000   1.0000

          k =-0.0169 0.0214-0.0407 ( 36525 PWs)   bands (ev):

   -16.5001 -16.0410 -15.3977 -15.1967 -13.8911 -13.8417 -12.4250 -12.2352
   -11.3214 -11.1255  -9.1004  -8.8616  -8.2968  -8.0668  -6.4101  -6.2345
    -5.4184  -5.2459  -5.0030  -4.8824  -4.2288  -4.1272  -3.9838  -3.9269
    -3.3676  -3.1205  -2.7130  -2.5963  -2.4811  -2.3241  -2.2019  -2.1591
    -1.1931  -1.0901  -1.0054  -0.9729  -0.8203  -0.7278  -0.0762  -0.0239
     0.5798   0.7653

     occupation numbers 
     1.0000   1.0000   1.0000   1.0000   1.0000   1.0000   1.0000   1.0000
     1.0000   1.0000   1.0000   1.0000   1.0000   1.0000   1.0000   1.0000
     1.0000   1.0000   1.0000   1.0000   1.0000   1.0000   1.0000   1.0000
     1.0000   1.0000   1.0000   1.0000   1.0000   1.0000   1.0000   1.0000
     1.0000   1.0000   1.0000   1.0000   1.0000   1.0000   1.0000   1.0000
     1.0000   1.0000

          k =-0.0169 0.0214-0.1078 ( 36561 PWs)   bands (ev):

   -16.4334 -15.9227 -15.3450 -15.1519 -13.8857 -13.8171 -12.4004 -12.2738
   -11.3252 -11.1316  -9.0599  -8.8357  -8.2659  -8.0552  -6.4254  -6.3042
    -5.4174  -5.2490  -5.0774  -4.9961  -4.3200  -4.1917  -4.0603  -4.0454
    -3.8464  -3.7275  -2.8168  -2.6789  -2.6017  -2.4410  -2.4141  -2.3120
    -1.3110  -1.1353  -1.0855  -0.9692  -0.8605  -0.7044  -0.3423   0.0655
     0.6342   0.8969

     occupation numbers 
     1.0000   1.0000   1.0000   1.0000   1.0000   1.0000   1.0000   1.0000
     1.0000   1.0000   1.0000   1.0000   1.0000   1.0000   1.0000   1.0000
     1.0000   1.0000   1.0000   1.0000   1.0000   1.0000   1.0000   1.0000
     1.0000   1.0000   1.0000   1.0000   1.0000   1.0000   1.0000   1.0000
     1.0000   1.0000   1.0000   1.0000   1.0000   1.0000   1.0000   1.0000
     1.0000   1.0000

          k =-0.0169 0.0214 0.0936 ( 36547 PWs)   bands (ev):

   -16.4314 -15.9306 -15.3399 -15.1516 -13.8678 -13.8292 -12.4068 -12.2671
   -11.3197 -11.1469  -9.0344  -8.8648  -8.2439  -8.1000  -6.4433  -6.2664
    -5.4138  -5.2446  -5.1202  -4.8583  -4.3265  -4.2398  -4.0938  -4.0704
    -3.8755  -3.6506  -2.7437  -2.6782  -2.6506  -2.4601  -2.4066  -2.3053
    -1.2555  -1.1866  -1.0473  -0.9987  -0.9245  -0.7397  -0.2907   0.0276
     0.6348   0.8994

     occupation numbers 
     1.0000   1.0000   1.0000   1.0000   1.0000   1.0000   1.0000   1.0000
     1.0000   1.0000   1.0000   1.0000   1.0000   1.0000   1.0000   1.0000
     1.0000   1.0000   1.0000   1.0000   1.0000   1.0000   1.0000   1.0000
     1.0000   1.0000   1.0000   1.0000   1.0000   1.0000   1.0000   1.0000
     1.0000   1.0000   1.0000   1.0000   1.0000   1.0000   1.0000   1.0000
     1.0000   1.0000

          k =-0.0169 0.0214 0.0265 ( 36551 PWs)   bands (ev):

   -16.4983 -16.0469 -15.3949 -15.1960 -13.8721 -13.8549 -12.4317 -12.2287
   -11.3162 -11.1387  -9.0800  -8.8913  -8.2865  -8.0896  -6.4508  -6.1665
    -5.4181  -5.2599  -5.0992  -4.6926  -4.3251  -4.0915  -4.0302  -3.8203
    -3.4000  -3.0874  -2.7523  -2.6339  -2.4978  -2.2872  -2.2115  -2.1148
    -1.1879  -1.1293  -1.0390  -0.9377  -0.8362  -0.7653  -0.0623  -0.0350
     0.5891   0.7558

     occupation numbers 
     1.0000   1.0000   1.0000   1.0000   1.0000   1.0000   1.0000   1.0000
     1.0000   1.0000   1.0000   1.0000   1.0000   1.0000   1.0000   1.0000
     1.0000   1.0000   1.0000   1.0000   1.0000   1.0000   1.0000   1.0000
     1.0000   1.0000   1.0000   1.0000   1.0000   1.0000   1.0000   1.0000
     1.0000   1.0000   1.0000   1.0000   1.0000   1.0000   1.0000   1.0000
     1.0000   1.0000

          k =-0.0169 0.0643-0.0407 ( 36518 PWs)   bands (ev):

   -16.4831 -16.0113 -15.4123 -15.1914 -13.9314 -13.8716 -12.4742 -12.2578
   -11.3350 -11.1104  -9.0007  -8.8112  -8.1920  -7.9899  -6.4374  -6.2800
    -5.3778  -5.2467  -5.0750  -5.0061  -4.3878  -4.2471  -4.0255  -3.9410
    -3.4157  -3.2035  -2.6468  -2.5437  -2.4495  -2.3119  -2.1765  -2.1092
    -1.0939  -0.9693  -0.9181  -0.8535  -0.7765  -0.7136  -0.0330  -0.0074
     0.6271   0.7800

     occupation numbers 
     1.0000   1.0000   1.0000   1.0000   1.0000   1.0000   1.0000   1.0000
     1.0000   1.0000   1.0000   1.0000   1.0000   1.0000   1.0000   1.0000
     1.0000   1.0000   1.0000   1.0000   1.0000   1.0000   1.0000   1.0000
     1.0000   1.0000   1.0000   1.0000   1.0000   1.0000   1.0000   1.0000
     1.0000   1.0000   1.0000   1.0000   1.0000   1.0000   1.0000   1.0000
     1.0000   1.0000

          k =-0.0169 0.0643-0.1078 ( 36558 PWs)   bands (ev):

   -16.4218 -15.9102 -15.3475 -15.1418 -13.8907 -13.8501 -12.4314 -12.2736
   -11.3453 -11.1477  -9.0090  -8.8427  -8.2272  -8.0884  -6.4170  -6.2874
    -5.3890  -5.2484  -4.9640  -4.9118  -4.3297  -4.2263  -4.0657  -4.0271
    -3.9791  -3.8694  -2.7828  -2.6521  -2.5984  -2.5085  -2.3967  -2.3156
    -1.2498  -1.1426  -0.9975  -0.9294  -0.8549  -0.7966  -0.2141   0.2323
     0.6560   0.8485

     occupation numbers 
     1.0000   1.0000   1.0000   1.0000   1.0000   1.0000   1.0000   1.0000
     1.0000   1.0000   1.0000   1.0000   1.0000   1.0000   1.0000   1.0000
     1.0000   1.0000   1.0000   1.0000   1.0000   1.0000   1.0000   1.0000
     1.0000   1.0000   1.0000   1.0000   1.0000   1.0000   1.0000   1.0000
     1.0000   1.0000   1.0000   1.0000   1.0000   1.0000   1.0000   1.0000
     1.0000   1.0000

          k =-0.0169 0.0643 0.0936 ( 36547 PWs)   bands (ev):

   -16.4196 -15.9186 -15.3414 -15.1420 -13.8767 -13.8583 -12.4376 -12.2667
   -11.3417 -11.1617  -8.9833  -8.8730  -8.2100  -8.1227  -6.4447  -6.2319
    -5.3908  -5.2621  -5.0280  -4.7700  -4.3989  -4.1843  -4.1386  -4.0249
    -3.9451  -3.8099  -2.7492  -2.6755  -2.6337  -2.5765  -2.4204  -2.1927
    -1.2107  -1.1234  -1.0760  -0.9451  -0.8903  -0.8291  -0.1729   0.1967
     0.6604   0.8506

     occupation numbers 
     1.0000   1.0000   1.0000   1.0000   1.0000   1.0000   1.0000   1.0000
     1.0000   1.0000   1.0000   1.0000   1.0000   1.0000   1.0000   1.0000
     1.0000   1.0000   1.0000   1.0000   1.0000   1.0000   1.0000   1.0000
     1.0000   1.0000   1.0000   1.0000   1.0000   1.0000   1.0000   1.0000
     1.0000   1.0000   1.0000   1.0000   1.0000   1.0000   1.0000   1.0000
     1.0000   1.0000

          k =-0.0169 0.0643 0.0265 ( 36489 PWs)   bands (ev):

   -16.4811 -16.0183 -15.4077 -15.1913 -13.9246 -13.8736 -12.4800 -12.2485
   -11.3335 -11.1246  -8.9797  -8.8347  -8.1624  -8.0383  -6.4663  -6.2530
    -5.3775  -5.2410  -5.0844  -4.8840  -4.3861  -4.2058  -4.1328  -3.9729
    -3.4442  -3.1610  -2.6199  -2.5072  -2.4206  -2.3064  -2.1785  -2.1345
    -1.1183  -1.0296  -0.9131  -0.8442  -0.8028  -0.7203  -0.0509   0.0139
     0.6312   0.7726

     occupation numbers 
     1.0000   1.0000   1.0000   1.0000   1.0000   1.0000   1.0000   1.0000
     1.0000   1.0000   1.0000   1.0000   1.0000   1.0000   1.0000   1.0000
     1.0000   1.0000   1.0000   1.0000   1.0000   1.0000   1.0000   1.0000
     1.0000   1.0000   1.0000   1.0000   1.0000   1.0000   1.0000   1.0000
     1.0000   1.0000   1.0000   1.0000   1.0000   1.0000   1.0000   1.0000
     1.0000   1.0000

     highest occupied level (ev):     0.9079

!    total energy              =    -548.02458923 Ry
     Harris-Foulkes estimate   =    -548.02458926 Ry
     estimated scf accuracy    <       0.00000004 Ry

     total all-electron energy =     -4615.868077 Ry

     The total energy is the sum of the following terms:

     one-electron contribution =    -154.50777151 Ry
     hartree contribution      =     108.61920229 Ry
     xc contribution           =    -104.26560654 Ry
     ewald contribution        =    -142.08495003 Ry
     one-center paw contrib.   =    -255.78546344 Ry
      -> PAW hartree energy AE =      19.85262820 Ry
      -> PAW hartree energy PS =     -19.74701309 Ry
      -> PAW xc energy AE      =     -55.78407105 Ry
      -> PAW xc energy PS      =      10.23360279 Ry
      -> total E_H with PAW    =     108.72481739 Ry
      -> total E_XC with PAW   =    -149.81607480 Ry

     convergence has been achieved in  11 iterations
 writing file ./scratch/scf-2317.save/charge-density
 writing file ./scratch/scf-2317.save/charge-density
 writing file ./scratch/scf-2317.save/charge-density
 writing file ./scratch/scf-2317.save/charge-density
 writing file ./scratch/scf-2317.save/charge-density
 writing file ./scratch/scf-2317.save/charge-density
 writing file ./scratch/scf-2317.save/charge-density
 writing file ./scratch/scf-2317.save/charge-density
 writing file ./scratch/scf-2317.save/charge-density
 writing file ./scratch/scf-2317.save/charge-density
 writing file ./scratch/scf-2317.save/charge-density
 writing file ./scratch/scf-2317.save/charge-density
 writing file ./scratch/scf-2317.save/charge-density
 writing file ./scratch/scf-2317.save/charge-density
 writing file ./scratch/scf-2317.save/charge-density
 writing file ./scratch/scf-2317.save/charge-density
 writing file ./scratch/scf-2317.save/charge-density
 writing file ./scratch/scf-2317.save/charge-density
 writing file ./scratch/scf-2317.save/charge-density
 writing file ./scratch/scf-2317.save/charge-density
 writing file ./scratch/scf-2317.save/charge-density
 writing file ./scratch/scf-2317.save/charge-density
 writing file ./scratch/scf-2317.save/charge-density
 writing file ./scratch/scf-2317.save/charge-density
 writing file ./scratch/scf-2317.save/charge-density
 writing file ./scratch/scf-2317.save/charge-density
 writing file ./scratch/scf-2317.save/charge-density
 writing file ./scratch/scf-2317.save/charge-density
 writing file ./scratch/scf-2317.save/charge-density
 writing file ./scratch/scf-2317.save/charge-density
 writing file ./scratch/scf-2317.save/charge-density
 writing file ./scratch/scf-2317.save/charge-density

     Forces acting on atoms (cartesian axes, Ry/au):

     atom    1 type  2   force =     0.09579061   -0.05041150    0.00514463
     atom    2 type  1   force =    -0.06851027    0.02961275    0.00445971
     atom    3 type  1   force =    -0.01179254   -0.00449433    0.00711535
     atom    4 type  3   force =     0.00214457   -0.00032755   -0.00367536
     atom    5 type  1   force =    -0.00547589    0.01496614    0.00236879
     atom    6 type  3   force =     0.00216515   -0.00068496    0.00162506
     atom    7 type  3   force =    -0.00020578   -0.00210968   -0.00295545
     atom    8 type  1   force =    -0.02393856    0.00183998    0.01238747
     atom    9 type  3   force =    -0.00406693    0.00207818    0.00523270
     atom   10 type  1   force =     0.00149488   -0.00662056   -0.00260100
     atom   11 type  1   force =     0.01305960   -0.00451342    0.01210700
     atom   12 type  2   force =    -0.01226462   -0.00305271   -0.02116902
     atom   13 type  3   force =    -0.00636067   -0.00255088    0.00463069
     atom   14 type  1   force =    -0.00921417    0.02627352   -0.03143932
     atom   15 type  3   force =     0.00246294    0.00555269   -0.00947661
     atom   16 type  1   force =    -0.02808734   -0.01341164    0.03360176
     atom   17 type  1   force =    -0.01780383    0.05778742   -0.01775209
     atom   18 type  2   force =     0.04924636   -0.06151572    0.01120040
     atom   19 type  3   force =     0.00211038    0.00125369   -0.00015425
     atom   20 type  1   force =     0.00087270    0.01130524    0.01247089
     atom   21 type  3   force =    -0.00146358    0.00279554   -0.00118163
     atom   22 type  1   force =     0.00728318   -0.00153679   -0.01285955
     atom   23 type  1   force =    -0.00382039   -0.00431161   -0.02754818
     atom   24 type  2   force =     0.01637420    0.00207619    0.01846799
     The non-local contrib.  to forces
     atom    1 type  2   force =    -0.28889687    0.24497338    0.05114872
     atom    2 type  1   force =     0.33585972   -0.26480704   -0.00630230
     atom    3 type  1   force =    -0.04384335   -0.04894455   -0.02415301
     atom    4 type  3   force =    -0.06346966   -0.02626205   -0.03784456
     atom    5 type  1   force =    -0.04043805   -0.03420651   -0.01936947
     atom    6 type  3   force =     0.00114224   -0.06958489   -0.03623461
     atom    7 type  3   force =    -0.00178659   -0.06058512    0.05036742
     atom    8 type  1   force =    -0.02823762   -0.02143739    0.06965009
     atom    9 type  3   force =     0.05636864   -0.00859216    0.05389897
     atom   10 type  1   force =     0.02286532   -0.05992382    0.04867915
     atom   11 type  1   force =    -0.38476969   -0.31840702    0.04266842
     atom   12 type  2   force =     0.29360617    0.24864425   -0.07582463
     atom   13 type  3   force =    -0.00203839    0.06788323    0.03952630
     atom   14 type  1   force =     0.00820805    0.08288645   -0.02060402
     atom   15 type  3   force =     0.06654606    0.02798551    0.03235163
     atom   16 type  1   force =    -0.00134621    0.04435142    0.11243828
     atom   17 type  1   force =    -0.39221436    0.38228414   -0.05782481
     atom   18 type  2   force =     0.27837015   -0.26932198    0.02546339
     atom   19 type  3   force =     0.00031538    0.06185895   -0.04856265
     atom   20 type  1   force =    -0.02080427    0.05505673   -0.03128245
     atom   21 type  3   force =    -0.06084973    0.01400142   -0.04746758
     atom   22 type  1   force =    -0.02915760    0.05484548   -0.06046021
     atom   23 type  1   force =     0.37002344    0.30469583   -0.04864682
     atom   24 type  2   force =    -0.28815657   -0.26925123    0.05905214
     The ionic contribution  to forces
     atom    1 type  2   force =     6.88974767   -4.29264241    0.22423421
     atom    2 type  1   force =     2.43326281   -0.75916141    0.66504383
     atom    3 type  1   force =     4.71171858    2.42522063    2.52338628
     atom    4 type  3   force =     2.07684914    0.89868617    1.26283923
     atom    5 type  1   force =     1.00027271    4.02541547    2.47297973
     atom    6 type  3   force =     0.23591159    1.97354082    1.22070054
     atom    7 type  3   force =    -0.38611373    1.84338329   -1.54454451
     atom    8 type  1   force =    -1.44158578    3.65709034   -3.06328694
     atom    9 type  3   force =    -2.01136749    0.48153519   -1.62187555
     atom   10 type  1   force =    -4.81339321    1.56670585   -3.20668594
     atom   11 type  1   force =    -2.82463981   -1.72477330   -0.95266181
     atom   12 type  2   force =    -6.88224960   -4.82243677   -0.87192099
     atom   13 type  3   force =    -0.11023927   -2.00727132   -1.23135718
     atom   14 type  1   force =    -1.03460061   -4.29310422   -1.48948645
     atom   15 type  3   force =    -1.89559732   -0.92456447   -0.96842845
     atom   16 type  1   force =    -3.81920091   -1.73952450   -2.78582928
     atom   17 type  1   force =    -3.00312964    1.60820107    0.14010611
     atom   18 type  2   force =    -4.03184381    3.54024016   -0.27447067
     atom   19 type  3   force =     0.19843139   -1.85598553    1.39085416
     atom   20 type  1   force =     1.01577244   -3.99315258    2.28287035
     atom   21 type  3   force =     1.95753813   -0.45017016    1.37237492
     atom   22 type  1   force =     4.10463681   -1.22204216    3.12153385
     atom   23 type  1   force =     1.98191920    1.85258890    0.94367748
     atom   24 type  2   force =     5.64790071    4.21222096    0.38994708
     The local contribution  to forces
     atom    1 type  2   force =    -6.51288098    4.00482537   -0.26830297
     atom    2 type  1   force =    -2.82954065    1.04806568   -0.65428736
     atom    3 type  1   force =    -4.67842269   -2.38053574   -2.49164348
     atom    4 type  3   force =    -2.01125663   -0.87275390   -1.22867985
     atom    5 type  1   force =    -0.96578115   -3.97514734   -2.45027009
     atom    6 type  3   force =    -0.23488277   -1.90465986   -1.18284823
     atom    7 type  3   force =     0.38769496   -1.78490664    1.49122742
     atom    8 type  1   force =     1.44540459   -3.63277539    3.00547852
     atom    9 type  3   force =     1.95091612   -0.47085275    1.57319932
     atom   10 type  1   force =     4.79053974   -1.51366676    3.15485867
     atom   11 type  1   force =     3.21243260    2.03073650    0.92269894
     atom   12 type  2   force =     6.58776890    4.58059604    0.92276941
     atom   13 type  3   force =     0.10593214    1.93682717    1.19646746
     atom   14 type  1   force =     1.01669791    4.23555882    1.47818223
     atom   15 type  3   force =     1.83151657    0.90212647    0.92660208
     atom   16 type  1   force =     3.79102513    1.68193193    2.70684696
     atom   17 type  1   force =     3.36593133   -1.92284191   -0.10067417
     atom   18 type  2   force =     3.81661451   -3.34609715    0.26169933
     atom   19 type  3   force =    -0.19663010    1.79536835   -1.34243933
     atom   20 type  1   force =    -0.99390956    3.94840568   -2.23853320
     atom   21 type  3   force =    -1.89815233    0.43897469   -1.32609421
     atom   22 type  1   force =    -4.06710880    1.16638893   -3.07317428
     atom   23 type  1   force =    -2.34644844   -2.15355042   -0.92274860
     atom   24 type  2   force =    -5.35451279   -3.95161184   -0.42767820
     The core correction contribution to forces
     atom    1 type  2   force =     0.00766305   -0.00747564   -0.00193582
     atom    2 type  1   force =    -0.00806223    0.00556214    0.00003098
     atom    3 type  1   force =    -0.00127674   -0.00019255   -0.00047439
     atom    4 type  3   force =     0.00000000    0.00000000    0.00000000
     atom    5 type  1   force =     0.00053726   -0.00108914   -0.00095211
     atom    6 type  3   force =     0.00000000    0.00000000    0.00000000
     atom    7 type  3   force =     0.00000000    0.00000000    0.00000000
     atom    8 type  1   force =     0.00051313   -0.00095902    0.00055440
     atom    9 type  3   force =     0.00000000    0.00000000    0.00000000
     atom   10 type  1   force =     0.00144367    0.00036278    0.00048772
     atom   11 type  1   force =     0.00999854    0.00791522   -0.00062145
     atom   12 type  2   force =    -0.01156734   -0.00994953    0.00372162
     atom   13 type  3   force =     0.00000000    0.00000000    0.00000000
     atom   14 type  1   force =     0.00057554    0.00091162    0.00050543
     atom   15 type  3   force =     0.00000000    0.00000000    0.00000000
     atom   16 type  1   force =     0.00149685   -0.00015407    0.00018659
     atom   17 type  1   force =     0.01173288   -0.00978053    0.00071772
     atom   18 type  2   force =    -0.01368609    0.01371694   -0.00141015
     atom   19 type  3   force =     0.00000000    0.00000000    0.00000000
     atom   20 type  1   force =    -0.00011232    0.00096550   -0.00053646
     atom   21 type  3   force =     0.00000000    0.00000000    0.00000000
     atom   22 type  1   force =    -0.00102990   -0.00067259   -0.00075579
     atom   23 type  1   force =    -0.00929034   -0.00798917    0.00017190
     atom   24 type  2   force =     0.01100855    0.01064276   -0.00284991
     The Hubbard contrib.    to forces
     atom    1 type  2   force =     0.00000000    0.00000000    0.00000000
     atom    2 type  1   force =     0.00000000    0.00000000    0.00000000
     atom    3 type  1   force =     0.00000000    0.00000000    0.00000000
     atom    4 type  3   force =     0.00000000    0.00000000    0.00000000
     atom    5 type  1   force =     0.00000000    0.00000000    0.00000000
     atom    6 type  3   force =     0.00000000    0.00000000    0.00000000
     atom    7 type  3   force =     0.00000000    0.00000000    0.00000000
     atom    8 type  1   force =     0.00000000    0.00000000    0.00000000
     atom    9 type  3   force =     0.00000000    0.00000000    0.00000000
     atom   10 type  1   force =     0.00000000    0.00000000    0.00000000
     atom   11 type  1   force =     0.00000000    0.00000000    0.00000000
     atom   12 type  2   force =     0.00000000    0.00000000    0.00000000
     atom   13 type  3   force =     0.00000000    0.00000000    0.00000000
     atom   14 type  1   force =     0.00000000    0.00000000    0.00000000
     atom   15 type  3   force =     0.00000000    0.00000000    0.00000000
     atom   16 type  1   force =     0.00000000    0.00000000    0.00000000
     atom   17 type  1   force =     0.00000000    0.00000000    0.00000000
     atom   18 type  2   force =     0.00000000    0.00000000    0.00000000
     atom   19 type  3   force =     0.00000000    0.00000000    0.00000000
     atom   20 type  1   force =     0.00000000    0.00000000    0.00000000
     atom   21 type  3   force =     0.00000000    0.00000000    0.00000000
     atom   22 type  1   force =     0.00000000    0.00000000    0.00000000
     atom   23 type  1   force =     0.00000000    0.00000000    0.00000000
     atom   24 type  2   force =     0.00000000    0.00000000    0.00000000
     The SCF correction term to forces
     atom    1 type  2   force =     0.00015858   -0.00009081    0.00000108
     atom    2 type  1   force =    -0.00002909   -0.00004524   -0.00002485
     atom    3 type  1   force =     0.00003250   -0.00004072    0.00000053
     atom    4 type  3   force =     0.00002258    0.00000362    0.00001041
     atom    5 type  1   force =    -0.00006582   -0.00000495   -0.00001869
     atom    6 type  3   force =    -0.00000506    0.00002035    0.00000795
     atom    7 type  3   force =     0.00000042    0.00000018   -0.00000519
     atom    8 type  1   force =    -0.00003204   -0.00007716   -0.00000801
     atom    9 type  3   force =     0.00001664   -0.00001071    0.00001054
     atom   10 type  1   force =     0.00004020   -0.00009722    0.00005997
     atom   11 type  1   force =     0.00003881    0.00001656    0.00002347
     atom   12 type  2   force =     0.00017810    0.00009469    0.00008615
     atom   13 type  3   force =    -0.00001431    0.00001143   -0.00000531
     atom   14 type  1   force =    -0.00009422    0.00002223   -0.00003593
     atom   15 type  3   force =    -0.00000153    0.00000656   -0.00000128
     atom   16 type  1   force =    -0.00006137   -0.00001502   -0.00004021
     atom   17 type  1   force =    -0.00012319   -0.00007395   -0.00007635
     atom   18 type  2   force =    -0.00020756   -0.00005230   -0.00008093
     atom   19 type  3   force =    -0.00000545    0.00001331   -0.00000584
     atom   20 type  1   force =    -0.00007275    0.00003130   -0.00004678
     atom   21 type  3   force =     0.00000119   -0.00000902    0.00000581
     atom   22 type  1   force =    -0.00005648   -0.00005506   -0.00000253
     atom   23 type  1   force =    -0.00002342   -0.00005537   -0.00000154
     atom   24 type  2   force =     0.00013514    0.00007693   -0.00000254

     Total force =     0.189499     Total SCF correction =     0.000506

     Writing output data file scf-2317.save
 writing file ./scratch/scf-2317.save/charge-density
 writing file ./scratch/scf-2317.save/charge-density
 writing file ./scratch/scf-2317.save/charge-density
 writing file ./scratch/scf-2317.save/charge-density
 writing file ./scratch/scf-2317.save/charge-density
 writing file ./scratch/scf-2317.save/charge-density
 writing file ./scratch/scf-2317.save/charge-density
 writing file ./scratch/scf-2317.save/charge-density
 writing file ./scratch/scf-2317.save/charge-density
 writing file ./scratch/scf-2317.save/charge-density
 writing file ./scratch/scf-2317.save/charge-density
 writing file ./scratch/scf-2317.save/charge-density
 writing file ./scratch/scf-2317.save/charge-density
 writing file ./scratch/scf-2317.save/charge-density
 writing file ./scratch/scf-2317.save/charge-density
 writing file ./scratch/scf-2317.save/charge-density
 writing file ./scratch/scf-2317.save/charge-density
 writing file ./scratch/scf-2317.save/charge-density
 writing file ./scratch/scf-2317.save/charge-density
 writing file ./scratch/scf-2317.save/charge-density
 writing file ./scratch/scf-2317.save/charge-density
 writing file ./scratch/scf-2317.save/charge-density
 writing file ./scratch/scf-2317.save/charge-density
 writing file ./scratch/scf-2317.save/charge-density
 writing file ./scratch/scf-2317.save/charge-density
 writing file ./scratch/scf-2317.save/charge-density
 writing file ./scratch/scf-2317.save/charge-density
 writing file ./scratch/scf-2317.save/charge-density
 writing file ./scratch/scf-2317.save/charge-density
 writing file ./scratch/scf-2317.save/charge-density
 writing file ./scratch/scf-2317.save/charge-density
 writing file ./scratch/scf-2317.save/charge-density
 
     init_run     :      4.46s CPU      4.70s WALL (       1 calls)
     electrons    :     49.61s CPU     52.53s WALL (       1 calls)
     forces       :      2.33s CPU      2.48s WALL (       1 calls)

     Called by init_run:
     wfcinit      :      1.58s CPU      1.61s WALL (       1 calls)
     wfcinit:atom :      0.03s CPU      0.02s WALL (      16 calls)
     wfcinit:wfcr :      1.49s CPU      1.49s WALL (      16 calls)
     potinit      :      0.97s CPU      1.01s WALL (       1 calls)

     Called by electrons:
     c_bands      :     38.72s CPU     39.02s WALL (      11 calls)
     sum_band     :      6.90s CPU      8.06s WALL (      11 calls)
     v_of_rho     :      0.88s CPU      0.96s WALL (      12 calls)
     v_h          :      0.05s CPU      0.06s WALL (      12 calls)
     v_xc         :      0.90s CPU      0.98s WALL (      13 calls)
     newd         :      1.40s CPU      2.87s WALL (      12 calls)
     PAW_pot      :      1.66s CPU      1.69s WALL (      12 calls)
     mix_rho      :      0.14s CPU      0.14s WALL (      11 calls)

     Called by c_bands:
     init_us_2    :      0.77s CPU      0.86s WALL (     384 calls)
     cegterg      :     36.45s CPU     36.66s WALL (     176 calls)

     Called by sum_band:
     sum_band:bec :      0.02s CPU      0.02s WALL (     176 calls)
     addusdens    :      1.56s CPU      2.68s WALL (      11 calls)

     Called by *egterg:
     h_psi        :     27.04s CPU     27.21s WALL (     861 calls)
     s_psi        :      2.05s CPU      2.01s WALL (     861 calls)
     g_psi        :      0.19s CPU      0.16s WALL (     669 calls)
     cdiaghg      :      3.44s CPU      3.47s WALL (     845 calls)
     cegterg:over :      1.67s CPU      1.69s WALL (     669 calls)
     cegterg:upda :      1.27s CPU      1.26s WALL (     669 calls)
     cegterg:last :      0.50s CPU      0.43s WALL (     192 calls)

     Called by h_psi:
     h_psi:pot    :     26.78s CPU     26.95s WALL (     861 calls)
     h_psi:calbec :      2.24s CPU      2.25s WALL (     861 calls)
     vloc_psi     :     22.60s CPU     22.74s WALL (     861 calls)
     add_vuspsi   :      1.94s CPU      1.95s WALL (     861 calls)

     General routines
     calbec       :      2.96s CPU      3.00s WALL (    1101 calls)
     fft          :      0.84s CPU      0.89s WALL (     199 calls)
     ffts         :      0.04s CPU      0.03s WALL (      23 calls)
     fftw         :     21.66s CPU     21.73s WALL (   55548 calls)
     interpolate  :      0.15s CPU      0.15s WALL (      23 calls)
     davcio       :      0.00s CPU      0.01s WALL (      16 calls)
 
     Parallel routines
     fft_scatter  :      8.11s CPU      8.05s WALL (   55770 calls)

     PAW routines
     PAW_pot      :      1.66s CPU      1.69s WALL (      12 calls)
 
     PWSCF        :  0m57.06s CPU     1m 0.91s WALL

 
   This run was terminated on:  17:30:31  20May2017            

=------------------------------------------------------------------------------=
   JOB DONE.
=------------------------------------------------------------------------------=
