
     Program PWSCF v.6.1 starts on 20May2017 at 13:25:54 

     This program is part of the open-source Quantum ESPRESSO suite
     for quantum simulation of materials; please cite
         "P. Giannozzi et al., J. Phys.:Condens. Matter 21 395502 (2009);
          URL http://www.quantum-espresso.org", 
     in publications or presentations arising from this work. More details at
     http://www.quantum-espresso.org/quote

     Parallel version (MPI & OpenMP), running on      32 processor cores
     Number of MPI processes:                32
     Threads/MPI process:                     1
     R & G space division:  proc/nbgrp/npool/nimage =      32
     Waiting for input...
     Reading input from standard input
Warning: card &IONS ignored
Warning: card     ION_TEMPERATURE   = 'INITIAL' ignored
Warning: card     TEMPW             = 586.D0 ignored
Warning: card     TOLP              = 100.D0 ignored
Warning: card     DELTA_T           = 1.D0 ignored
Warning: card     NRAISE            = 1 ignored
Warning: card / ignored
Warning: card &CELL ignored
Warning: card     CELL_DYNAMICS     = 'BFGS' ignored
Warning: card / ignored

     Current dimensions of program PWSCF are:
     Max number of different atomic species (ntypx) = 10
     Max number of k-points (npk) =  40000
     Max angular momentum in pseudopotentials (lmaxx) =  3
               file C.pbe-n-kjpaw_psl.1.0.0.UPF: wavefunction(s)  2S 2P renormalized
               file Cl.pbe-n-kjpaw_psl.1.0.0.UPF: wavefunction(s)  3S 3P renormalized
               file H.pbe-kjpaw_psl.1.0.0.UPF: wavefunction(s)  1S renormalized

     Subspace diagonalization in iterative solution of the eigenvalue problem:
     a serial algorithm will be used

 
     Parallelization info
     --------------------
     sticks:   dense  smooth     PW     G-vecs:    dense   smooth      PW
     Min         764     305     83                36108     9133    1292
     Max         765     306     84                36110     9135    1293
     Sum       24467    9791   2657              1155489   292295   41363
 


     bravais-lattice index     =            0
     lattice parameter (alat)  =       1.8897  a.u.
     unit-cell volume          =    2163.5316 (a.u.)^3
     number of atoms/cell      =           24
     number of atomic types    =            3
     number of electrons       =        84.00
     number of Kohn-Sham states=           42
     kinetic-energy cutoff     =     100.0000  Ry
     charge density cutoff     =    1000.0000  Ry
     convergence threshold     =      1.0E-07
     mixing beta               =       0.7000
     number of iterations used =            8  plain     mixing
     Exchange-correlation      =  SLA  PW   PBX  PBC ( 1  4  3  4 0 0)

     celldm(1)=   1.889726  celldm(2)=   0.000000  celldm(3)=   0.000000
     celldm(4)=   0.000000  celldm(5)=   0.000000  celldm(6)=   0.000000

     crystal axes: (cart. coord. in units of alat)
               a(1) = (  14.762000   0.000000   0.000000 )  
               a(2) = (   0.000000   5.832000   0.000000 )  
               a(3) = (  -1.563876   0.000000   3.723951 )  

     reciprocal axes: (cart. coord. in units 2 pi/alat)
               b(1) = (  0.067741  0.000000  0.028448 )  
               b(2) = (  0.000000  0.171468  0.000000 )  
               b(3) = (  0.000000  0.000000  0.268532 )  


     PseudoPot. # 1 for  C read from file:
     /global/cscratch1/sd/almno10/.data/PSEUDOPOTENTIALS/C.pbe-n-kjpaw_psl.1.0.0.UPF
     MD5 check sum: 2ba8448e293caca687844dde9a1b88a8
     Pseudo is Projector augmented-wave + core cor, Zval =  4.0
     Generated using "atomic" code by A. Dal Corso  v.5.3.0 svn rev. 11974
     Shape of augmentation charge: PSQ
     Using radial grid of 1073 points,  4 beta functions with: 
                l(1) =   0
                l(2) =   0
                l(3) =   1
                l(4) =   1
     Q(r) pseudized with 0 coefficients 


     PseudoPot. # 2 for Cl read from file:
     /global/cscratch1/sd/almno10/.data/PSEUDOPOTENTIALS/Cl.pbe-n-kjpaw_psl.1.0.0.UPF
     MD5 check sum: dca63699d6b897c5771335df08a09219
     Pseudo is Projector augmented-wave + core cor, Zval =  7.0
     Generated using "atomic" code by A. Dal Corso  v.5.3.0 svn rev. 11974
     Shape of augmentation charge: PSQ
     Using radial grid of 1157 points,  6 beta functions with: 
                l(1) =   0
                l(2) =   0
                l(3) =   1
                l(4) =   1
                l(5) =   2
                l(6) =   2
     Q(r) pseudized with 0 coefficients 


     PseudoPot. # 3 for  H read from file:
     /global/cscratch1/sd/almno10/.data/PSEUDOPOTENTIALS/H.pbe-kjpaw_psl.1.0.0.UPF
     MD5 check sum: bc0feb48a24907a0b97fa6ee2d589a29
     Pseudo is Projector augmented-wave, Zval =  1.0
     Generated using "atomic" code by A. Dal Corso  v.5.3.0 svn rev. 11974
     Shape of augmentation charge: PSQ
     Using radial grid of  929 points,  2 beta functions with: 
                l(1) =   0
                l(2) =   0
     Q(r) pseudized with 0 coefficients 


     atomic species   valence    mass     pseudopotential
        C              4.00    12.01100      C( 1.00)
        Cl             7.00    35.45270     Cl( 1.00)
        H              1.00     1.00790      H( 1.00)

     No symmetry found


                                    s                        frac. trans.

      isym =  1     identity                                     

 cryst.   s( 1) = (     1          0          0      )
                  (     0          1          0      )
                  (     0          0          1      )

 cart.    s( 1) = (  1.0000000  0.0000000 -0.0000000 )
                  (  0.0000000  1.0000000  0.0000000 )
                  (  0.0000000  0.0000000  1.0000000 )


   Cartesian axes

     site n.     atom                  positions (alat units)
         1           Cl  tau(   1) = (  16.5913588   1.2869363   1.9442765  )
         2           C   tau(   2) = (  15.1562249   2.3727399   1.9250006  )
         3           C   tau(   3) = (  15.2114558   3.5934273   2.5968279  )
         4           H   tau(   4) = (  16.0991551   3.9137638   3.1404958  )
         5           C   tau(   5) = (  14.0699509   4.3936662   2.5926258  )
         6           H   tau(   6) = (  14.0765808   5.3506981   3.1124507  )
         7           H   tau(   7) = (   6.1523200   1.8934851   0.6748047  )
         8           C   tau(   8) = (   6.3154488   0.9527706   1.1963326  )
         9           H   tau(   9) = (   4.3429056   0.1963588   0.7611254  )
        10           C   tau(  10) = (   5.3060933  -0.0109685   1.2237238  )
        11           C   tau(  11) = (   5.5178662  -1.2193716   1.8857332  )
        12           Cl  tau(  12) = (   4.2075723  -2.3773458   1.8040420  )
        13           H   tau(  13) = (  14.0427067   1.0793065   0.6142732  )
        14           C   tau(  14) = (  14.0262133   1.9961814   1.1999207  )
        15           H   tau(  15) = (  12.0322089   2.5331931   0.5825987  )
        16           C   tau(  16) = (  12.9089815   2.8298766   1.1537293  )
        17           C   tau(  17) = (  12.9249286   3.9918514   1.9055296  )
        18           Cl  tau(  18) = (  11.5457925   5.0938645   1.9525164  )
        19           H   tau(  19) = (   6.8851386  -2.4361133   3.0415255  )
        20           C   tau(  20) = (   6.7461299  -1.5157410   2.4760770  )
        21           H   tau(  21) = (   8.6901045  -0.7294931   2.9706350  )
        22           C   tau(  22) = (   7.7255181  -0.5247884   2.5114268  )
        23           C   tau(  23) = (   7.5396335   0.6542471   1.7920517  )
        24           Cl  tau(  24) = (   8.8223043   1.8185833   1.7079556  )

   Crystallographic axes

     site n.     atom                  positions (cryst. coord.)
         1           Cl  tau(   1) = (  1.1792344  0.2206681  0.5221004  )
         2           C   tau(   2) = (  1.0814680  0.4068484  0.5169242  )
         3           C   tau(   3) = (  1.1043216  0.6161569  0.6973313  )
         4           H   tau(   4) = (  1.1799220  0.6710843  0.8433235  )
         5           C   tau(   5) = (  1.0268748  0.7533721  0.6962029  )
         6           H   tau(   6) = (  1.0421119  0.9174722  0.8357925  )
         7           H   tau(   7) = (  0.4359643  0.3246716  0.1812066  )
         8           C   tau(   8) = (  0.4618513  0.1633694  0.3212536  )
         9           H   tau(   9) = (  0.3158475  0.0336692  0.2043865  )
        10           C   tau(  10) = (  0.3942553 -0.0018807  0.3286090  )
        11           C   tau(  11) = (  0.4274340 -0.2090829  0.5063796  )
        12           Cl  tau(  12) = (  0.3363488 -0.4076382  0.4844429  )
        13           H   tau(  13) = (  0.9687489  0.1850663  0.1649520  )
        14           C   tau(  14) = (  0.9842921  0.3422808  0.3222171  )
        15           H   tau(  15) = (  0.8316537  0.4343610  0.1564464  )
        16           C   tau(  16) = (  0.9072951  0.4852326  0.3098132  )
        17           C   tau(  17) = (  0.9297627  0.6844738  0.5116956  )
        18           Cl  tau(  18) = (  0.8376746  0.8734336  0.5243131  )
        19           H   tau(  19) = (  0.5529352 -0.4177149  0.8167468  )
        20           C   tau(  20) = (  0.5274326 -0.2599007  0.6649058  )
        21           H   tau(  21) = (  0.6731896 -0.1250846  0.7977105  )
        22           C   tau(  22) = (  0.5947835 -0.0899843  0.6743984  )
        23           C   tau(  23) = (  0.5617265  0.1121823  0.4812232  )
        24           Cl  tau(  24) = (  0.6462242  0.3118284  0.4586407  )

     number of k points=    16
                       cart. coord. in units 2pi/alat
        k(    1) = (   0.0169354   0.0214335   0.0406785), wk =   0.1250000
        k(    2) = (   0.0169354   0.0214335   0.1078115), wk =   0.1250000
        k(    3) = (   0.0169354   0.0214335  -0.0935875), wk =   0.1250000
        k(    4) = (   0.0169354   0.0214335  -0.0264545), wk =   0.1250000
        k(    5) = (   0.0169354   0.0643004   0.0406785), wk =   0.1250000
        k(    6) = (   0.0169354   0.0643004   0.1078115), wk =   0.1250000
        k(    7) = (   0.0169354   0.0643004  -0.0935875), wk =   0.1250000
        k(    8) = (   0.0169354   0.0643004  -0.0264545), wk =   0.1250000
        k(    9) = (  -0.0169354   0.0214335  -0.0406785), wk =   0.1250000
        k(   10) = (  -0.0169354   0.0214335  -0.1078115), wk =   0.1250000
        k(   11) = (  -0.0169354   0.0214335   0.0935875), wk =   0.1250000
        k(   12) = (  -0.0169354   0.0214335   0.0264545), wk =   0.1250000
        k(   13) = (  -0.0169354   0.0643004  -0.0406785), wk =   0.1250000
        k(   14) = (  -0.0169354   0.0643004  -0.1078115), wk =   0.1250000
        k(   15) = (  -0.0169354   0.0643004   0.0935875), wk =   0.1250000
        k(   16) = (  -0.0169354   0.0643004   0.0264545), wk =   0.1250000

                       cryst. coord.
        k(    1) = (   0.2500000   0.1250000   0.1250000), wk =   0.1250000
        k(    2) = (   0.2500000   0.1250000   0.3750000), wk =   0.1250000
        k(    3) = (   0.2500000   0.1250000  -0.3750000), wk =   0.1250000
        k(    4) = (   0.2500000   0.1250000  -0.1250000), wk =   0.1250000
        k(    5) = (   0.2500000   0.3750000   0.1250000), wk =   0.1250000
        k(    6) = (   0.2500000   0.3750000   0.3750000), wk =   0.1250000
        k(    7) = (   0.2500000   0.3750000  -0.3750000), wk =   0.1250000
        k(    8) = (   0.2500000   0.3750000  -0.1250000), wk =   0.1250000
        k(    9) = (  -0.2500000   0.1250000  -0.1250000), wk =   0.1250000
        k(   10) = (  -0.2500000   0.1250000  -0.3750000), wk =   0.1250000
        k(   11) = (  -0.2500000   0.1250000   0.3750000), wk =   0.1250000
        k(   12) = (  -0.2500000   0.1250000   0.1250000), wk =   0.1250000
        k(   13) = (  -0.2500000   0.3750000  -0.1250000), wk =   0.1250000
        k(   14) = (  -0.2500000   0.3750000  -0.3750000), wk =   0.1250000
        k(   15) = (  -0.2500000   0.3750000   0.3750000), wk =   0.1250000
        k(   16) = (  -0.2500000   0.3750000   0.1250000), wk =   0.1250000

     Dense  grid:  1155489 G-vectors     FFT dimensions: ( 288, 120,  80)

     Smooth grid:   292295 G-vectors     FFT dimensions: ( 180,  72,  50)

     Estimated max dynamical RAM per process >     147.21MB

     Estimated total allocated dynamical RAM >    4710.62MB

     Initial potential from superposition of free atoms

     starting charge   83.99939, renormalised to   84.00000
     Starting wfc are   72 randomized atomic wfcs
     Checking if some PAW data can be deallocated... 
       node    0, deallocated PAW data for type:  1
       node    0, deallocated PAW data for type:  3
       node    1, deallocated PAW data for type:  1
       node    1, deallocated PAW data for type:  3
       node    2, deallocated PAW data for type:  2
       node    2, deallocated PAW data for type:  3
       node    3, deallocated PAW data for type:  2
       node    3, deallocated PAW data for type:  3
       node    4, deallocated PAW data for type:  2
       node    4, deallocated PAW data for type:  3
       node    5, deallocated PAW data for type:  2
       node    5, deallocated PAW data for type:  3
       node    6, deallocated PAW data for type:  1
       node    6, deallocated PAW data for type:  2
       node    7, deallocated PAW data for type:  1
       node    7, deallocated PAW data for type:  2
       node    8, deallocated PAW data for type:  2
       node    8, deallocated PAW data for type:  3
       node    9, deallocated PAW data for type:  2
       node    9, deallocated PAW data for type:  3
       node   10, deallocated PAW data for type:  1
       node   10, deallocated PAW data for type:  2
       node   11, deallocated PAW data for type:  1
       node   11, deallocated PAW data for type:  2
       node   12, deallocated PAW data for type:  1
       node   12, deallocated PAW data for type:  2
       node   13, deallocated PAW data for type:  1
       node   13, deallocated PAW data for type:  2
       node   14, deallocated PAW data for type:  2
       node   14, deallocated PAW data for type:  3
       node   15, deallocated PAW data for type:  2
       node   15, deallocated PAW data for type:  3
       node   16, deallocated PAW data for type:  1
       node   16, deallocated PAW data for type:  2
       node   17, deallocated PAW data for type:  2
       node   17, deallocated PAW data for type:  3
       node   18, deallocated PAW data for type:  2
       node   18, deallocated PAW data for type:  3
       node   19, deallocated PAW data for type:  1
       node   19, deallocated PAW data for type:  3
       node   20, deallocated PAW data for type:  1
       node   20, deallocated PAW data for type:  2
       node   21, deallocated PAW data for type:  2
       node   21, deallocated PAW data for type:  3
       node   22, deallocated PAW data for type:  1
       node   22, deallocated PAW data for type:  2
       node   23, deallocated PAW data for type:  2
       node   23, deallocated PAW data for type:  3
       node   24, deallocated PAW data for type:  2
       node   24, deallocated PAW data for type:  3
       node   25, deallocated PAW data for type:  1
       node   25, deallocated PAW data for type:  3
       node   26, deallocated PAW data for type:  1
       node   26, deallocated PAW data for type:  2
       node   27, deallocated PAW data for type:  2
       node   27, deallocated PAW data for type:  3
       node   28, deallocated PAW data for type:  1
       node   28, deallocated PAW data for type:  2
       node   29, deallocated PAW data for type:  2
       node   29, deallocated PAW data for type:  3
       node   30, deallocated PAW data for type:  2
       node   30, deallocated PAW data for type:  3
       node   31, deallocated PAW data for type:  1
       node   31, deallocated PAW data for type:  3

     total cpu time spent up to now is        5.2 secs

     per-process dynamical memory:    20.7 Mb

     Self-consistent Calculation

     iteration #  1     ecut=   100.00 Ry     beta= 0.70
     Davidson diagonalization with overlap
     ethr =  1.00E-04,  avg # of iterations =  5.0

     total cpu time spent up to now is       11.9 secs

     total energy              =    -547.13856114 Ry
     Harris-Foulkes estimate   =    -549.00420656 Ry
     estimated scf accuracy    <       2.72966721 Ry

     iteration #  2     ecut=   100.00 Ry     beta= 0.70
     Davidson diagonalization with overlap
     ethr =  3.25E-03,  avg # of iterations =  3.0

     total cpu time spent up to now is       16.7 secs

     total energy              =    -547.53982016 Ry
     Harris-Foulkes estimate   =    -548.61995661 Ry
     estimated scf accuracy    <       1.95112760 Ry

     iteration #  3     ecut=   100.00 Ry     beta= 0.70
     Davidson diagonalization with overlap
     ethr =  2.32E-03,  avg # of iterations =  3.0

     total cpu time spent up to now is       21.1 secs

     total energy              =    -548.02530367 Ry
     Harris-Foulkes estimate   =    -548.06676220 Ry
     estimated scf accuracy    <       0.08340852 Ry

     iteration #  4     ecut=   100.00 Ry     beta= 0.70
     Davidson diagonalization with overlap
     ethr =  9.93E-05,  avg # of iterations =  3.4

     total cpu time spent up to now is       25.8 secs

     total energy              =    -548.05213839 Ry
     Harris-Foulkes estimate   =    -548.06249092 Ry
     estimated scf accuracy    <       0.02052441 Ry

     iteration #  5     ecut=   100.00 Ry     beta= 0.70
     Davidson diagonalization with overlap
     ethr =  2.44E-05,  avg # of iterations =  3.0

     total cpu time spent up to now is       30.2 secs

     total energy              =    -548.05638486 Ry
     Harris-Foulkes estimate   =    -548.05671954 Ry
     estimated scf accuracy    <       0.00075283 Ry

     iteration #  6     ecut=   100.00 Ry     beta= 0.70
     Davidson diagonalization with overlap
     ethr =  8.96E-07,  avg # of iterations =  4.0

     total cpu time spent up to now is       35.0 secs

     total energy              =    -548.05662270 Ry
     Harris-Foulkes estimate   =    -548.05666095 Ry
     estimated scf accuracy    <       0.00008109 Ry

     iteration #  7     ecut=   100.00 Ry     beta= 0.70
     Davidson diagonalization with overlap
     ethr =  9.65E-08,  avg # of iterations =  4.0

     total cpu time spent up to now is       39.8 secs

     total energy              =    -548.05663877 Ry
     Harris-Foulkes estimate   =    -548.05665993 Ry
     estimated scf accuracy    <       0.00004512 Ry

     iteration #  8     ecut=   100.00 Ry     beta= 0.70
     Davidson diagonalization with overlap
     ethr =  5.37E-08,  avg # of iterations =  4.0

     total cpu time spent up to now is       44.3 secs

     total energy              =    -548.05664849 Ry
     Harris-Foulkes estimate   =    -548.05665579 Ry
     estimated scf accuracy    <       0.00002011 Ry

     iteration #  9     ecut=   100.00 Ry     beta= 0.70
     Davidson diagonalization with overlap
     ethr =  2.39E-08,  avg # of iterations =  4.0

     total cpu time spent up to now is       48.6 secs

     total energy              =    -548.05665197 Ry
     Harris-Foulkes estimate   =    -548.05665273 Ry
     estimated scf accuracy    <       0.00000174 Ry

     iteration # 10     ecut=   100.00 Ry     beta= 0.70
     Davidson diagonalization with overlap
     ethr =  2.07E-09,  avg # of iterations =  4.0

     total cpu time spent up to now is       53.1 secs

     total energy              =    -548.05665238 Ry
     Harris-Foulkes estimate   =    -548.05665244 Ry
     estimated scf accuracy    <       0.00000012 Ry

     iteration # 11     ecut=   100.00 Ry     beta= 0.70
     Davidson diagonalization with overlap
     ethr =  1.48E-10,  avg # of iterations =  4.0

     total cpu time spent up to now is       58.0 secs

     End of self-consistent calculation

          k = 0.0169 0.0214 0.0407 ( 36525 PWs)   bands (ev):

   -16.0205 -15.9934 -15.3309 -15.2081 -13.9706 -13.8340 -12.4313 -12.2299
   -11.3893 -11.1640  -9.0286  -8.9179  -8.2764  -8.1397  -6.3807  -6.1932
    -5.3606  -5.2363  -5.0116  -4.7874  -4.2339  -4.1180  -4.0920  -3.8449
    -3.2197  -3.0942  -2.7149  -2.6037  -2.4489  -2.2310  -2.1276  -2.0773
    -1.1819  -1.1260  -1.0587  -1.0044  -0.9200  -0.7719  -0.0863   0.1626
     0.5123   0.8248

     occupation numbers 
     1.0000   1.0000   1.0000   1.0000   1.0000   1.0000   1.0000   1.0000
     1.0000   1.0000   1.0000   1.0000   1.0000   1.0000   1.0000   1.0000
     1.0000   1.0000   1.0000   1.0000   1.0000   1.0000   1.0000   1.0000
     1.0000   1.0000   1.0000   1.0000   1.0000   1.0000   1.0000   1.0000
     1.0000   1.0000   1.0000   1.0000   1.0000   1.0000   1.0000   1.0000
     1.0000   1.0000

          k = 0.0169 0.0214 0.1078 ( 36561 PWs)   bands (ev):

   -15.9339 -15.9244 -15.2852 -15.1680 -13.9531 -13.8143 -12.4191 -12.2027
   -11.3887 -11.1485  -8.9905  -8.8772  -8.2451  -8.1048  -6.3841  -6.2284
    -5.3618  -5.2270  -5.0350  -4.8997  -4.3068  -4.1855  -4.1177  -3.9671
    -3.7830  -3.5885  -2.8174  -2.7054  -2.5823  -2.4358  -2.3153  -2.1809
    -1.3587  -1.2217  -1.1467  -1.0061  -0.9551  -0.8215  -0.2894  -0.1099
     0.5303   0.7972

     occupation numbers 
     1.0000   1.0000   1.0000   1.0000   1.0000   1.0000   1.0000   1.0000
     1.0000   1.0000   1.0000   1.0000   1.0000   1.0000   1.0000   1.0000
     1.0000   1.0000   1.0000   1.0000   1.0000   1.0000   1.0000   1.0000
     1.0000   1.0000   1.0000   1.0000   1.0000   1.0000   1.0000   1.0000
     1.0000   1.0000   1.0000   1.0000   1.0000   1.0000   1.0000   1.0000
     1.0000   1.0000

          k = 0.0169 0.0214-0.0936 ( 36547 PWs)   bands (ev):

   -15.9421 -15.9142 -15.2921 -15.1632 -13.9477 -13.8235 -12.4118 -12.2062
   -11.3913 -11.1382  -9.0182  -8.8555  -8.2773  -8.0669  -6.3873  -6.2644
    -5.3671  -5.2208  -5.0591  -4.8614  -4.2671  -4.1697  -4.1151  -4.0002
    -3.7398  -3.6224  -2.7518  -2.6785  -2.6299  -2.4697  -2.3537  -2.2348
    -1.2953  -1.2431  -1.1330  -1.0571  -0.9136  -0.7763  -0.3215  -0.0653
     0.5348   0.7784

     occupation numbers 
     1.0000   1.0000   1.0000   1.0000   1.0000   1.0000   1.0000   1.0000
     1.0000   1.0000   1.0000   1.0000   1.0000   1.0000   1.0000   1.0000
     1.0000   1.0000   1.0000   1.0000   1.0000   1.0000   1.0000   1.0000
     1.0000   1.0000   1.0000   1.0000   1.0000   1.0000   1.0000   1.0000
     1.0000   1.0000   1.0000   1.0000   1.0000   1.0000   1.0000   1.0000
     1.0000   1.0000

          k = 0.0169 0.0214-0.0265 ( 36551 PWs)   bands (ev):

   -16.0288 -15.9827 -15.3384 -15.2031 -13.9657 -13.8423 -12.4245 -12.2336
   -11.3923 -11.1528  -9.0587  -8.8966  -8.3149  -8.0891  -6.4095  -6.2004
    -5.3701  -5.2346  -5.0811  -4.6986  -4.2847  -4.0826  -3.9841  -3.8470
    -3.2132  -3.1210  -2.8024  -2.5756  -2.4293  -2.2983  -2.1620  -2.0549
    -1.1640  -1.1269  -1.0459  -0.9858  -0.9212  -0.7237  -0.1201   0.2045
     0.5195   0.8057

     occupation numbers 
     1.0000   1.0000   1.0000   1.0000   1.0000   1.0000   1.0000   1.0000
     1.0000   1.0000   1.0000   1.0000   1.0000   1.0000   1.0000   1.0000
     1.0000   1.0000   1.0000   1.0000   1.0000   1.0000   1.0000   1.0000
     1.0000   1.0000   1.0000   1.0000   1.0000   1.0000   1.0000   1.0000
     1.0000   1.0000   1.0000   1.0000   1.0000   1.0000   1.0000   1.0000
     1.0000   1.0000

          k = 0.0169 0.0643 0.0407 ( 36518 PWs)   bands (ev):

   -15.9862 -15.9428 -15.3518 -15.2228 -14.0067 -13.9019 -12.4722 -12.2768
   -11.3991 -11.1456  -8.9442  -8.7919  -8.1878  -8.0174  -6.3946  -6.2690
    -5.3321  -5.1842  -5.0512  -4.9240  -4.3465  -4.2911  -4.1147  -3.9044
    -3.2941  -3.1669  -2.6487  -2.5705  -2.4487  -2.3592  -2.0995  -2.0387
    -1.0588  -0.9844  -0.9650  -0.9116  -0.7821  -0.7521  -0.0372   0.1843
     0.5634   0.8092

     occupation numbers 
     1.0000   1.0000   1.0000   1.0000   1.0000   1.0000   1.0000   1.0000
     1.0000   1.0000   1.0000   1.0000   1.0000   1.0000   1.0000   1.0000
     1.0000   1.0000   1.0000   1.0000   1.0000   1.0000   1.0000   1.0000
     1.0000   1.0000   1.0000   1.0000   1.0000   1.0000   1.0000   1.0000
     1.0000   1.0000   1.0000   1.0000   1.0000   1.0000   1.0000   1.0000
     1.0000   1.0000

          k = 0.0169 0.0643 0.1078 ( 36558 PWs)   bands (ev):

   -15.9126 -15.8845 -15.2988 -15.1725 -13.9722 -13.8672 -12.4402 -12.2352
   -11.4060 -11.1558  -8.9582  -8.8001  -8.2283  -8.0450  -6.3793  -6.2300
    -5.3441  -5.1929  -4.9546  -4.8289  -4.3103  -4.2377  -4.1439  -3.9997
    -3.9223  -3.7419  -2.7346  -2.6606  -2.6158  -2.4721  -2.4182  -2.1893
    -1.3267  -1.1769  -1.0900  -1.0096  -0.9018  -0.8154  -0.1331   0.0097
     0.5472   0.7580

     occupation numbers 
     1.0000   1.0000   1.0000   1.0000   1.0000   1.0000   1.0000   1.0000
     1.0000   1.0000   1.0000   1.0000   1.0000   1.0000   1.0000   1.0000
     1.0000   1.0000   1.0000   1.0000   1.0000   1.0000   1.0000   1.0000
     1.0000   1.0000   1.0000   1.0000   1.0000   1.0000   1.0000   1.0000
     1.0000   1.0000   1.0000   1.0000   1.0000   1.0000   1.0000   1.0000
     1.0000   1.0000

          k = 0.0169 0.0643-0.0936 ( 36547 PWs)   bands (ev):

   -15.9178 -15.8771 -15.3048 -15.1690 -13.9693 -13.8732 -12.4331 -12.2391
   -11.4100 -11.1443  -8.9856  -8.7773  -8.2589  -8.0072  -6.3890  -6.2608
    -5.3511  -5.2051  -4.9535  -4.8160  -4.3062  -4.1866  -4.1014  -4.0372
    -3.8688  -3.7729  -2.7529  -2.6774  -2.6486  -2.5325  -2.3364  -2.2377
    -1.2686  -1.2025  -1.0552  -1.0344  -0.8904  -0.7950  -0.1698   0.0475
     0.5569   0.7456

     occupation numbers 
     1.0000   1.0000   1.0000   1.0000   1.0000   1.0000   1.0000   1.0000
     1.0000   1.0000   1.0000   1.0000   1.0000   1.0000   1.0000   1.0000
     1.0000   1.0000   1.0000   1.0000   1.0000   1.0000   1.0000   1.0000
     1.0000   1.0000   1.0000   1.0000   1.0000   1.0000   1.0000   1.0000
     1.0000   1.0000   1.0000   1.0000   1.0000   1.0000   1.0000   1.0000
     1.0000   1.0000

          k = 0.0169 0.0643-0.0265 ( 36489 PWs)   bands (ev):

   -15.9913 -15.9354 -15.3576 -15.2195 -14.0043 -13.9076 -12.4649 -12.2800
   -11.4039 -11.1350  -8.9697  -8.7701  -8.2201  -7.9740  -6.4278  -6.2938
    -5.3299  -5.2005  -5.0338  -4.8845  -4.3507  -4.2201  -4.1050  -3.9607
    -3.2678  -3.2097  -2.6538  -2.4962  -2.4805  -2.4154  -2.1040  -2.0497
    -1.1141  -1.0118  -0.9427  -0.8429  -0.7671  -0.7072  -0.0675   0.2193
     0.5650   0.7972

     occupation numbers 
     1.0000   1.0000   1.0000   1.0000   1.0000   1.0000   1.0000   1.0000
     1.0000   1.0000   1.0000   1.0000   1.0000   1.0000   1.0000   1.0000
     1.0000   1.0000   1.0000   1.0000   1.0000   1.0000   1.0000   1.0000
     1.0000   1.0000   1.0000   1.0000   1.0000   1.0000   1.0000   1.0000
     1.0000   1.0000   1.0000   1.0000   1.0000   1.0000   1.0000   1.0000
     1.0000   1.0000

          k =-0.0169 0.0214-0.0407 ( 36525 PWs)   bands (ev):

   -16.0225 -15.9900 -15.3342 -15.2061 -13.9682 -13.8402 -12.4244 -12.2322
   -11.3943 -11.1528  -9.0571  -8.8938  -8.3012  -8.1117  -6.3764  -6.2377
    -5.3711  -5.2255  -4.9994  -4.7919  -4.2191  -4.0926  -3.9765  -3.9455
    -3.1957  -3.1216  -2.7220  -2.5946  -2.4463  -2.3341  -2.1164  -2.0599
    -1.1935  -1.1227  -1.0283  -0.9930  -0.9282  -0.7223  -0.1190   0.2077
     0.5160   0.8066

     occupation numbers 
     1.0000   1.0000   1.0000   1.0000   1.0000   1.0000   1.0000   1.0000
     1.0000   1.0000   1.0000   1.0000   1.0000   1.0000   1.0000   1.0000
     1.0000   1.0000   1.0000   1.0000   1.0000   1.0000   1.0000   1.0000
     1.0000   1.0000   1.0000   1.0000   1.0000   1.0000   1.0000   1.0000
     1.0000   1.0000   1.0000   1.0000   1.0000   1.0000   1.0000   1.0000
     1.0000   1.0000

          k =-0.0169 0.0214-0.1078 ( 36561 PWs)   bands (ev):

   -15.9368 -15.9201 -15.2892 -15.1655 -13.9511 -13.8199 -12.4117 -12.2061
   -11.3933 -11.1365  -9.0186  -8.8542  -8.2755  -8.0704  -6.3897  -6.2607
    -5.3702  -5.2170  -4.9941  -4.9418  -4.2758  -4.1859  -4.0869  -3.9680
    -3.7439  -3.6263  -2.8195  -2.7008  -2.6147  -2.4336  -2.3105  -2.2344
    -1.3455  -1.2278  -1.1440  -1.0267  -0.8986  -0.7898  -0.3263  -0.0674
     0.5362   0.7797

     occupation numbers 
     1.0000   1.0000   1.0000   1.0000   1.0000   1.0000   1.0000   1.0000
     1.0000   1.0000   1.0000   1.0000   1.0000   1.0000   1.0000   1.0000
     1.0000   1.0000   1.0000   1.0000   1.0000   1.0000   1.0000   1.0000
     1.0000   1.0000   1.0000   1.0000   1.0000   1.0000   1.0000   1.0000
     1.0000   1.0000   1.0000   1.0000   1.0000   1.0000   1.0000   1.0000
     1.0000   1.0000

          k =-0.0169 0.0214 0.0936 ( 36547 PWs)   bands (ev):

   -15.9412 -15.9165 -15.2889 -15.1648 -13.9519 -13.8157 -12.4189 -12.2031
   -11.3872 -11.1495  -8.9896  -8.8782  -8.2493  -8.1001  -6.3838  -6.2311
    -5.3638  -5.2263  -5.0604  -4.8524  -4.2850  -4.2017  -4.1435  -3.9911
    -3.7688  -3.5955  -2.7437  -2.6740  -2.5948  -2.4816  -2.3403  -2.2103
    -1.3124  -1.2236  -1.1109  -1.0621  -0.9633  -0.8135  -0.2789  -0.1167
     0.5314   0.7938

     occupation numbers 
     1.0000   1.0000   1.0000   1.0000   1.0000   1.0000   1.0000   1.0000
     1.0000   1.0000   1.0000   1.0000   1.0000   1.0000   1.0000   1.0000
     1.0000   1.0000   1.0000   1.0000   1.0000   1.0000   1.0000   1.0000
     1.0000   1.0000   1.0000   1.0000   1.0000   1.0000   1.0000   1.0000
     1.0000   1.0000   1.0000   1.0000   1.0000   1.0000   1.0000   1.0000
     1.0000   1.0000

          k =-0.0169 0.0214 0.0265 ( 36551 PWs)   bands (ev):

   -16.0276 -15.9851 -15.3363 -15.2038 -13.9695 -13.8350 -12.4319 -12.2298
   -11.3889 -11.1638  -9.0327  -8.9162  -8.2958  -8.1121  -6.3994  -6.1808
    -5.3641  -5.2428  -5.0733  -4.6919  -4.2717  -4.1115  -4.0582  -3.8490
    -3.2191  -3.1109  -2.7594  -2.5515  -2.4566  -2.2300  -2.1708  -2.0557
    -1.1832  -1.1200  -1.0290  -1.0064  -0.9434  -0.7640  -0.0860   0.1593
     0.5163   0.8226

     occupation numbers 
     1.0000   1.0000   1.0000   1.0000   1.0000   1.0000   1.0000   1.0000
     1.0000   1.0000   1.0000   1.0000   1.0000   1.0000   1.0000   1.0000
     1.0000   1.0000   1.0000   1.0000   1.0000   1.0000   1.0000   1.0000
     1.0000   1.0000   1.0000   1.0000   1.0000   1.0000   1.0000   1.0000
     1.0000   1.0000   1.0000   1.0000   1.0000   1.0000   1.0000   1.0000
     1.0000   1.0000

          k =-0.0169 0.0643-0.0407 ( 36518 PWs)   bands (ev):

   -15.9899 -15.9371 -15.3568 -15.2200 -14.0056 -13.9061 -12.4655 -12.2802
   -11.4040 -11.1335  -8.9706  -8.7695  -8.2215  -7.9780  -6.3986  -6.3047
    -5.3314  -5.2019  -5.0418  -4.9208  -4.3309  -4.2383  -4.0368  -3.9863
    -3.2627  -3.2113  -2.6556  -2.5494  -2.4694  -2.4147  -2.0750  -2.0488
    -1.1128  -0.9783  -0.9451  -0.8454  -0.7661  -0.7400  -0.0698   0.2185
     0.5671   0.7981

     occupation numbers 
     1.0000   1.0000   1.0000   1.0000   1.0000   1.0000   1.0000   1.0000
     1.0000   1.0000   1.0000   1.0000   1.0000   1.0000   1.0000   1.0000
     1.0000   1.0000   1.0000   1.0000   1.0000   1.0000   1.0000   1.0000
     1.0000   1.0000   1.0000   1.0000   1.0000   1.0000   1.0000   1.0000
     1.0000   1.0000   1.0000   1.0000   1.0000   1.0000   1.0000   1.0000
     1.0000   1.0000

          k =-0.0169 0.0643-0.1078 ( 36558 PWs)   bands (ev):

   -15.9168 -15.8783 -15.3040 -15.1696 -13.9713 -13.8711 -12.4330 -12.2394
   -11.4105 -11.1435  -8.9860  -8.7773  -8.2586  -8.0083  -6.3859  -6.2599
    -5.3505  -5.1973  -4.9220  -4.8732  -4.2918  -4.1979  -4.1009  -3.9964
    -3.9022  -3.7849  -2.7330  -2.6800  -2.6268  -2.4657  -2.3785  -2.2862
    -1.3223  -1.1904  -1.0521  -0.9826  -0.9073  -0.7874  -0.1689   0.0487
     0.5517   0.7450

     occupation numbers 
     1.0000   1.0000   1.0000   1.0000   1.0000   1.0000   1.0000   1.0000
     1.0000   1.0000   1.0000   1.0000   1.0000   1.0000   1.0000   1.0000
     1.0000   1.0000   1.0000   1.0000   1.0000   1.0000   1.0000   1.0000
     1.0000   1.0000   1.0000   1.0000   1.0000   1.0000   1.0000   1.0000
     1.0000   1.0000   1.0000   1.0000   1.0000   1.0000   1.0000   1.0000
     1.0000   1.0000

          k =-0.0169 0.0643 0.0936 ( 36547 PWs)   bands (ev):

   -15.9142 -15.8826 -15.3005 -15.1710 -13.9729 -13.8665 -12.4401 -12.2353
   -11.4061 -11.1560  -8.9575  -8.7997  -8.2293  -8.0440  -6.3819  -6.2331
    -5.3483  -5.1975  -4.9442  -4.8103  -4.2930  -4.2505  -4.1378  -4.0624
    -3.8900  -3.7281  -2.7504  -2.6600  -2.6227  -2.5470  -2.3563  -2.1656
    -1.2709  -1.1863  -1.1084  -1.0165  -0.9185  -0.8195  -0.1316   0.0029
     0.5505   0.7612

     occupation numbers 
     1.0000   1.0000   1.0000   1.0000   1.0000   1.0000   1.0000   1.0000
     1.0000   1.0000   1.0000   1.0000   1.0000   1.0000   1.0000   1.0000
     1.0000   1.0000   1.0000   1.0000   1.0000   1.0000   1.0000   1.0000
     1.0000   1.0000   1.0000   1.0000   1.0000   1.0000   1.0000   1.0000
     1.0000   1.0000   1.0000   1.0000   1.0000   1.0000   1.0000   1.0000
     1.0000   1.0000

          k =-0.0169 0.0643 0.0265 ( 36489 PWs)   bands (ev):

   -15.9881 -15.9406 -15.3541 -15.2207 -14.0070 -13.9021 -12.4721 -12.2749
   -11.4011 -11.1464  -8.9456  -8.7875  -8.1904  -8.0111  -6.4030  -6.2879
    -5.3326  -5.1861  -5.0412  -4.8753  -4.3479  -4.2318  -4.0959  -4.0482
    -3.2892  -3.1707  -2.6286  -2.5130  -2.4342  -2.4005  -2.1084  -2.0454
    -1.0961  -0.9794  -0.9550  -0.9208  -0.7696  -0.7373  -0.0363   0.1901
     0.5618   0.8053

     occupation numbers 
     1.0000   1.0000   1.0000   1.0000   1.0000   1.0000   1.0000   1.0000
     1.0000   1.0000   1.0000   1.0000   1.0000   1.0000   1.0000   1.0000
     1.0000   1.0000   1.0000   1.0000   1.0000   1.0000   1.0000   1.0000
     1.0000   1.0000   1.0000   1.0000   1.0000   1.0000   1.0000   1.0000
     1.0000   1.0000   1.0000   1.0000   1.0000   1.0000   1.0000   1.0000
     1.0000   1.0000

     highest occupied level (ev):     0.8248

!    total energy              =    -548.05665241 Ry
     Harris-Foulkes estimate   =    -548.05665243 Ry
     estimated scf accuracy    <       0.00000003 Ry

     total all-electron energy =     -4615.900140 Ry

     The total energy is the sum of the following terms:

     one-electron contribution =    -151.23359358 Ry
     hartree contribution      =     106.99318941 Ry
     xc contribution           =    -104.20299745 Ry
     ewald contribution        =    -143.83123810 Ry
     one-center paw contrib.   =    -255.78201269 Ry
      -> PAW hartree energy AE =      19.03827797 Ry
      -> PAW hartree energy PS =     -18.93382577 Ry
      -> PAW xc energy AE      =     -55.63215499 Ry
      -> PAW xc energy PS      =      10.08638143 Ry
      -> total E_H with PAW    =     107.09764161 Ry
      -> total E_XC with PAW   =    -149.74877101 Ry

     convergence has been achieved in  11 iterations
 writing file ./scratch/scf-2413.save/charge-density
 writing file ./scratch/scf-2413.save/charge-density
 writing file ./scratch/scf-2413.save/charge-density
 writing file ./scratch/scf-2413.save/charge-density
 writing file ./scratch/scf-2413.save/charge-density
 writing file ./scratch/scf-2413.save/charge-density
 writing file ./scratch/scf-2413.save/charge-density
 writing file ./scratch/scf-2413.save/charge-density
 writing file ./scratch/scf-2413.save/charge-density
 writing file ./scratch/scf-2413.save/charge-density
 writing file ./scratch/scf-2413.save/charge-density
 writing file ./scratch/scf-2413.save/charge-density
 writing file ./scratch/scf-2413.save/charge-density
 writing file ./scratch/scf-2413.save/charge-density
 writing file ./scratch/scf-2413.save/charge-density
 writing file ./scratch/scf-2413.save/charge-density
 writing file ./scratch/scf-2413.save/charge-density
 writing file ./scratch/scf-2413.save/charge-density
 writing file ./scratch/scf-2413.save/charge-density
 writing file ./scratch/scf-2413.save/charge-density
 writing file ./scratch/scf-2413.save/charge-density
 writing file ./scratch/scf-2413.save/charge-density
 writing file ./scratch/scf-2413.save/charge-density
 writing file ./scratch/scf-2413.save/charge-density
 writing file ./scratch/scf-2413.save/charge-density
 writing file ./scratch/scf-2413.save/charge-density
 writing file ./scratch/scf-2413.save/charge-density
 writing file ./scratch/scf-2413.save/charge-density
 writing file ./scratch/scf-2413.save/charge-density
 writing file ./scratch/scf-2413.save/charge-density
 writing file ./scratch/scf-2413.save/charge-density
 writing file ./scratch/scf-2413.save/charge-density

     Forces acting on atoms (cartesian axes, Ry/au):

     atom    1 type  2   force =    -0.03589692    0.02081303   -0.00136387
     atom    2 type  1   force =     0.02214723   -0.01186838   -0.00251190
     atom    3 type  1   force =    -0.00482473   -0.00662119    0.00273246
     atom    4 type  3   force =    -0.00064204   -0.00335527   -0.00264630
     atom    5 type  1   force =     0.00290732    0.00450721    0.00222237
     atom    6 type  3   force =     0.00149113   -0.00205671    0.00219431
     atom    7 type  3   force =     0.00260813   -0.00184977   -0.00058154
     atom    8 type  1   force =     0.00053544   -0.01245473   -0.01059846
     atom    9 type  3   force =     0.00105159    0.00068747   -0.00178128
     atom   10 type  1   force =     0.00416716    0.01098657    0.00909610
     atom   11 type  1   force =    -0.00344204    0.00036523   -0.02472437
     atom   12 type  2   force =     0.00745520    0.00302571    0.01416602
     atom   13 type  3   force =    -0.00370849   -0.00237135    0.00178837
     atom   14 type  1   force =     0.01353984   -0.00578641   -0.00854635
     atom   15 type  3   force =    -0.00121847    0.00029303   -0.00190658
     atom   16 type  1   force =    -0.00748676   -0.01297083    0.00759651
     atom   17 type  1   force =    -0.00054857    0.03124390    0.00276441
     atom   18 type  2   force =     0.00711770   -0.01626449   -0.00554321
     atom   19 type  3   force =     0.00092789   -0.00054238   -0.00559797
     atom   20 type  1   force =    -0.02095754    0.00912260    0.02959379
     atom   21 type  3   force =    -0.00075261    0.00052588    0.00534108
     atom   22 type  1   force =     0.01457170   -0.01143039   -0.02546364
     atom   23 type  1   force =    -0.01300432    0.00368601    0.01296585
     atom   24 type  2   force =     0.01396214    0.00231525    0.00080419
     The non-local contrib.  to forces
     atom    1 type  2   force =    -0.32128088    0.23553362   -0.00688802
     atom    2 type  1   force =     0.41387791   -0.31720612    0.00040681
     atom    3 type  1   force =    -0.05596955   -0.06339862   -0.04109374
     atom    4 type  3   force =    -0.06429778   -0.02325982   -0.03964031
     atom    5 type  1   force =    -0.02759271   -0.04036989   -0.02812051
     atom    6 type  3   force =    -0.00090453   -0.06888350   -0.03734597
     atom    7 type  3   force =     0.01263508   -0.06821733    0.03800975
     atom    8 type  1   force =     0.04985651   -0.06747008    0.02097521
     atom    9 type  3   force =     0.06925198   -0.01540623    0.03347794
     atom   10 type  1   force =     0.03243050   -0.01567293    0.04481134
     atom   11 type  1   force =    -0.34737493   -0.34163054   -0.05430032
     atom   12 type  2   force =     0.30067494    0.26602146    0.02647874
     atom   13 type  3   force =    -0.00099985    0.06604819    0.04262550
     atom   14 type  1   force =     0.04181849    0.04035373    0.03515448
     atom   15 type  3   force =     0.06344703    0.02181140    0.04144422
     atom   16 type  1   force =     0.02433334    0.01895736    0.06224446
     atom   17 type  1   force =    -0.38720370    0.33173389    0.00178877
     atom   18 type  2   force =     0.30386575   -0.25743389   -0.01496614
     atom   19 type  3   force =    -0.01025943    0.06617245   -0.04134765
     atom   20 type  1   force =    -0.07628270    0.07018194    0.00422017
     atom   21 type  3   force =    -0.06984097    0.01499409   -0.03317855
     atom   22 type  1   force =    -0.02019717    0.01925785   -0.07906750
     atom   23 type  1   force =     0.35309504    0.35797823    0.01839010
     atom   24 type  2   force =    -0.28370014   -0.27031300    0.02505317
     The ionic contribution  to forces
     atom    1 type  2   force =     4.06059978   -4.27634967    0.17616592
     atom    2 type  1   force =     1.88643246   -1.90710494    0.22687849
     atom    3 type  1   force =     3.63939987    2.09176432    2.16088940
     atom    4 type  3   force =     1.79465227    0.90013187    1.07923667
     atom    5 type  1   force =     0.38447234    4.08009267    2.09404729
     atom    6 type  3   force =     0.09296597    2.01498301    1.15707514
     atom    7 type  3   force =    -0.37832525    1.81295893   -1.21650109
     atom    8 type  1   force =    -1.06110330    3.69653627   -1.98770541
     atom    9 type  3   force =    -2.17262172    0.49066147   -1.09175817
     atom   10 type  1   force =    -4.13497008    1.34511881   -2.34525530
     atom   11 type  1   force =    -1.83032459   -1.61775114    0.28195791
     atom   12 type  2   force =    -4.99680708   -3.28672569   -0.40153820
     atom   13 type  3   force =    -0.31253711   -1.94072399   -1.36748157
     atom   14 type  1   force =    -1.51629529   -4.17895252   -2.45441859
     atom   15 type  3   force =    -2.11725702   -0.79459797   -1.34584191
     atom   16 type  1   force =    -4.74258273   -1.94312901   -3.12258830
     atom   17 type  1   force =    -3.17671951    1.40908003   -0.41815782
     atom   18 type  2   force =    -5.93975356    3.92094990   -0.64450523
     atom   19 type  3   force =     0.65330990   -1.77955950    1.39065595
     atom   20 type  1   force =     2.23724527   -3.92985734    2.21035866
     atom   21 type  3   force =     2.30821938   -0.57903100    1.16883112
     atom   22 type  1   force =     4.95361754   -1.28603832    3.16176071
     atom   23 type  1   force =     2.91908910    1.47443418    0.35301044
     atom   24 type  2   force =     7.44929335    4.28310964    0.93488389
     The local contribution  to forces
     atom    1 type  2   force =    -3.78994628    4.07227553   -0.17099563
     atom    2 type  1   force =    -2.26709611    2.20395053   -0.22954258
     atom    3 type  1   force =    -3.58723266   -2.03524139   -2.11671954
     atom    4 type  3   force =    -1.73102314   -0.88024110   -1.04225787
     atom    5 type  1   force =    -0.35409049   -4.03418009   -2.06292734
     atom    6 type  3   force =    -0.09055670   -1.94816549   -1.11753472
     atom    7 type  3   force =     0.36829930   -1.74659990    1.17791463
     atom    8 type  1   force =     1.01203405   -3.64058545    1.95557726
     atom    9 type  3   force =     2.10440129   -0.47455693    1.05648786
     atom   10 type  1   force =     4.10549772   -1.31803773    2.30908570
     atom   11 type  1   force =     2.16519048    1.95092990   -0.25282454
     atom   12 type  2   force =     4.71573512    3.03453922    0.39057229
     atom   13 type  3   force =     0.30984468    1.87230956    1.32665325
     atom   14 type  1   force =     1.48845950    4.13161507    2.41046818
     atom   15 type  3   force =     2.05259165    0.77307401    1.30248895
     atom   16 type  1   force =     4.70958667    1.91063493    3.06732381
     atom   17 type  1   force =     3.55296530   -1.70124622    0.41958081
     atom   18 type  2   force =     5.65563373   -3.69077263    0.65319240
     atom   19 type  3   force =    -0.64211314    1.71283422   -1.35489985
     atom   20 type  1   force =    -2.18232140    3.86774822   -2.18447128
     atom   21 type  3   force =    -2.23914418    0.56456820   -1.13031774
     atom   22 type  1   force =    -4.91764396    1.25540393   -3.10772063
     atom   23 type  1   force =    -3.27593783   -1.81997727   -0.35854352
     atom   24 type  2   force =    -7.16261015   -4.02137988   -0.95805580
     The core correction contribution to forces
     atom    1 type  2   force =     0.01458261   -0.01052341    0.00033504
     atom    2 type  1   force =    -0.01104901    0.00855034   -0.00022270
     atom    3 type  1   force =    -0.00102848    0.00020220   -0.00036751
     atom    4 type  3   force =     0.00000000    0.00000000    0.00000000
     atom    5 type  1   force =     0.00024933   -0.00107915   -0.00074112
     atom    6 type  3   force =     0.00000000    0.00000000    0.00000000
     atom    7 type  3   force =     0.00000000    0.00000000    0.00000000
     atom    8 type  1   force =    -0.00022330   -0.00086854    0.00055072
     atom    9 type  3   force =     0.00000000    0.00000000    0.00000000
     atom   10 type  1   force =     0.00120386   -0.00033182    0.00042619
     atom   11 type  1   force =     0.00905039    0.00878813    0.00044705
     atom   12 type  2   force =    -0.01230643   -0.01090231   -0.00140841
     atom   13 type  3   force =     0.00000000    0.00000000    0.00000000
     atom   14 type  1   force =    -0.00032163    0.00121582    0.00031146
     atom   15 type  3   force =     0.00000000    0.00000000    0.00000000
     atom   16 type  1   force =     0.00124561    0.00052364    0.00062819
     atom   17 type  1   force =     0.01050762   -0.00832677   -0.00040748
     atom   18 type  2   force =    -0.01261210    0.01103065    0.00074151
     atom   19 type  3   force =     0.00000000    0.00000000    0.00000000
     atom   20 type  1   force =     0.00049344    0.00105080   -0.00047727
     atom   21 type  3   force =     0.00000000    0.00000000    0.00000000
     atom   22 type  1   force =    -0.00115125   -0.00002609   -0.00041431
     atom   23 type  1   force =    -0.00923829   -0.00874101    0.00012412
     atom   24 type  2   force =     0.01097527    0.01090005   -0.00107918
     The Hubbard contrib.    to forces
     atom    1 type  2   force =     0.00000000    0.00000000    0.00000000
     atom    2 type  1   force =     0.00000000    0.00000000    0.00000000
     atom    3 type  1   force =     0.00000000    0.00000000    0.00000000
     atom    4 type  3   force =     0.00000000    0.00000000    0.00000000
     atom    5 type  1   force =     0.00000000    0.00000000    0.00000000
     atom    6 type  3   force =     0.00000000    0.00000000    0.00000000
     atom    7 type  3   force =     0.00000000    0.00000000    0.00000000
     atom    8 type  1   force =     0.00000000    0.00000000    0.00000000
     atom    9 type  3   force =     0.00000000    0.00000000    0.00000000
     atom   10 type  1   force =     0.00000000    0.00000000    0.00000000
     atom   11 type  1   force =     0.00000000    0.00000000    0.00000000
     atom   12 type  2   force =     0.00000000    0.00000000    0.00000000
     atom   13 type  3   force =     0.00000000    0.00000000    0.00000000
     atom   14 type  1   force =     0.00000000    0.00000000    0.00000000
     atom   15 type  3   force =     0.00000000    0.00000000    0.00000000
     atom   16 type  1   force =     0.00000000    0.00000000    0.00000000
     atom   17 type  1   force =     0.00000000    0.00000000    0.00000000
     atom   18 type  2   force =     0.00000000    0.00000000    0.00000000
     atom   19 type  3   force =     0.00000000    0.00000000    0.00000000
     atom   20 type  1   force =     0.00000000    0.00000000    0.00000000
     atom   21 type  3   force =     0.00000000    0.00000000    0.00000000
     atom   22 type  1   force =     0.00000000    0.00000000    0.00000000
     atom   23 type  1   force =     0.00000000    0.00000000    0.00000000
     atom   24 type  2   force =     0.00000000    0.00000000    0.00000000
     The SCF correction term to forces
     atom    1 type  2   force =     0.00014779   -0.00012274    0.00001861
     atom    2 type  1   force =    -0.00001808   -0.00005790   -0.00003212
     atom    3 type  1   force =     0.00000604    0.00005258    0.00002365
     atom    4 type  3   force =     0.00002655    0.00001407    0.00001501
     atom    5 type  1   force =    -0.00013121    0.00004396   -0.00003615
     atom    6 type  3   force =    -0.00001368    0.00000955   -0.00000034
     atom    7 type  3   force =    -0.00000107    0.00000882   -0.00000503
     atom    8 type  1   force =    -0.00002858   -0.00006665    0.00000356
     atom    9 type  3   force =     0.00001998   -0.00001055    0.00001089
     atom   10 type  1   force =     0.00000509   -0.00008947    0.00002798
     atom   11 type  1   force =     0.00001655    0.00002917   -0.00000468
     atom   12 type  2   force =     0.00015858    0.00009333    0.00006140
     atom   13 type  3   force =    -0.00001628   -0.00000483   -0.00000901
     atom   14 type  1   force =    -0.00012129   -0.00001823   -0.00006207
     atom   15 type  3   force =    -0.00000019    0.00000587    0.00000196
     atom   16 type  1   force =    -0.00006972    0.00004254   -0.00001186
     atom   17 type  1   force =    -0.00009834    0.00000327   -0.00004007
     atom   18 type  2   force =    -0.00001619   -0.00003823   -0.00000595
     atom   19 type  3   force =    -0.00000951    0.00001074   -0.00000662
     atom   20 type  1   force =    -0.00009221   -0.00000073   -0.00003669
     atom   21 type  3   force =     0.00001310   -0.00000512    0.00000604
     atom   22 type  1   force =    -0.00005352   -0.00002747   -0.00002212
     atom   23 type  1   force =    -0.00001241   -0.00000782   -0.00001550
     atom   24 type  2   force =     0.00000375   -0.00000127    0.00000190

     Total force =     0.093941     Total SCF correction =     0.000418

     Writing output data file scf-2413.save
 writing file ./scratch/scf-2413.save/charge-density
 writing file ./scratch/scf-2413.save/charge-density
 writing file ./scratch/scf-2413.save/charge-density
 writing file ./scratch/scf-2413.save/charge-density
 writing file ./scratch/scf-2413.save/charge-density
 writing file ./scratch/scf-2413.save/charge-density
 writing file ./scratch/scf-2413.save/charge-density
 writing file ./scratch/scf-2413.save/charge-density
 writing file ./scratch/scf-2413.save/charge-density
 writing file ./scratch/scf-2413.save/charge-density
 writing file ./scratch/scf-2413.save/charge-density
 writing file ./scratch/scf-2413.save/charge-density
 writing file ./scratch/scf-2413.save/charge-density
 writing file ./scratch/scf-2413.save/charge-density
 writing file ./scratch/scf-2413.save/charge-density
 writing file ./scratch/scf-2413.save/charge-density
 writing file ./scratch/scf-2413.save/charge-density
 writing file ./scratch/scf-2413.save/charge-density
 writing file ./scratch/scf-2413.save/charge-density
 writing file ./scratch/scf-2413.save/charge-density
 writing file ./scratch/scf-2413.save/charge-density
 writing file ./scratch/scf-2413.save/charge-density
 writing file ./scratch/scf-2413.save/charge-density
 writing file ./scratch/scf-2413.save/charge-density
 writing file ./scratch/scf-2413.save/charge-density
 writing file ./scratch/scf-2413.save/charge-density
 writing file ./scratch/scf-2413.save/charge-density
 writing file ./scratch/scf-2413.save/charge-density
 writing file ./scratch/scf-2413.save/charge-density
 writing file ./scratch/scf-2413.save/charge-density
 writing file ./scratch/scf-2413.save/charge-density
 writing file ./scratch/scf-2413.save/charge-density
 
     init_run     :      4.39s CPU      4.59s WALL (       1 calls)
     electrons    :     50.06s CPU     52.93s WALL (       1 calls)
     forces       :      2.36s CPU      2.48s WALL (       1 calls)

     Called by init_run:
     wfcinit      :      1.60s CPU      1.62s WALL (       1 calls)
     wfcinit:atom :      0.03s CPU      0.02s WALL (      16 calls)
     wfcinit:wfcr :      1.49s CPU      1.50s WALL (      16 calls)
     potinit      :      0.89s CPU      0.91s WALL (       1 calls)

     Called by electrons:
     c_bands      :     39.22s CPU     39.52s WALL (      11 calls)
     sum_band     :      6.74s CPU      7.96s WALL (      11 calls)
     v_of_rho     :      0.92s CPU      0.97s WALL (      12 calls)
     v_h          :      0.06s CPU      0.06s WALL (      12 calls)
     v_xc         :      0.93s CPU      0.98s WALL (      13 calls)
     newd         :      1.52s CPU      2.85s WALL (      12 calls)
     PAW_pot      :      1.61s CPU      1.70s WALL (      12 calls)
     mix_rho      :      0.14s CPU      0.14s WALL (      11 calls)

     Called by c_bands:
     init_us_2    :      0.79s CPU      0.87s WALL (     384 calls)
     cegterg      :     36.86s CPU     37.13s WALL (     176 calls)

     Called by sum_band:
     sum_band:bec :      0.01s CPU      0.02s WALL (     176 calls)
     addusdens    :      1.47s CPU      2.66s WALL (      11 calls)

     Called by *egterg:
     h_psi        :     27.38s CPU     27.62s WALL (     855 calls)
     s_psi        :      2.13s CPU      2.08s WALL (     855 calls)
     g_psi        :      0.16s CPU      0.16s WALL (     663 calls)
     cdiaghg      :      3.50s CPU      3.45s WALL (     839 calls)
     cegterg:over :      1.67s CPU      1.66s WALL (     663 calls)
     cegterg:upda :      1.30s CPU      1.29s WALL (     663 calls)
     cegterg:last :      0.42s CPU      0.44s WALL (     192 calls)

     Called by h_psi:
     h_psi:pot    :     27.11s CPU     27.34s WALL (     855 calls)
     h_psi:calbec :      2.50s CPU      2.27s WALL (     855 calls)
     vloc_psi     :     22.79s CPU     23.03s WALL (     855 calls)
     add_vuspsi   :      1.82s CPU      2.03s WALL (     855 calls)

     General routines
     calbec       :      3.25s CPU      3.03s WALL (    1095 calls)
     fft          :      0.72s CPU      0.77s WALL (     199 calls)
     ffts         :      0.02s CPU      0.03s WALL (      23 calls)
     fftw         :     21.82s CPU     22.08s WALL (   56072 calls)
     interpolate  :      0.16s CPU      0.15s WALL (      23 calls)
     davcio       :      0.00s CPU      0.01s WALL (      16 calls)
 
     Parallel routines
     fft_scatter  :      8.34s CPU      8.10s WALL (   56294 calls)

     PAW routines
     PAW_pot      :      1.61s CPU      1.70s WALL (      12 calls)
 
     PWSCF        :  0m57.48s CPU     1m 1.08s WALL

 
   This run was terminated on:  13:26:55  20May2017            

=------------------------------------------------------------------------------=
   JOB DONE.
=------------------------------------------------------------------------------=
