
     Program PWSCF v.6.1 starts on 22May2017 at 15:37:14 

     This program is part of the open-source Quantum ESPRESSO suite
     for quantum simulation of materials; please cite
         "P. Giannozzi et al., J. Phys.:Condens. Matter 21 395502 (2009);
          URL http://www.quantum-espresso.org", 
     in publications or presentations arising from this work. More details at
     http://www.quantum-espresso.org/quote

     Parallel version (MPI & OpenMP), running on      32 processor cores
     Number of MPI processes:                32
     Threads/MPI process:                     1
     R & G space division:  proc/nbgrp/npool/nimage =      32
     Waiting for input...
     Reading input from standard input
Warning: card &IONS ignored
Warning: card     ION_TEMPERATURE   = 'INITIAL' ignored
Warning: card     TEMPW             = 586.D0 ignored
Warning: card     TOLP              = 100.D0 ignored
Warning: card     DELTA_T           = 1.D0 ignored
Warning: card     NRAISE            = 1 ignored
Warning: card / ignored
Warning: card &CELL ignored
Warning: card     CELL_DYNAMICS     = 'BFGS' ignored
Warning: card / ignored

     Current dimensions of program PWSCF are:
     Max number of different atomic species (ntypx) = 10
     Max number of k-points (npk) =  40000
     Max angular momentum in pseudopotentials (lmaxx) =  3
               file C.pbe-n-kjpaw_psl.1.0.0.UPF: wavefunction(s)  2S 2P renormalized
               file Cl.pbe-n-kjpaw_psl.1.0.0.UPF: wavefunction(s)  3S 3P renormalized
               file H.pbe-kjpaw_psl.1.0.0.UPF: wavefunction(s)  1S renormalized

     Subspace diagonalization in iterative solution of the eigenvalue problem:
     a serial algorithm will be used

 
     Parallelization info
     --------------------
     sticks:   dense  smooth     PW     G-vecs:    dense   smooth      PW
     Min         764     305     83                36108     9133    1292
     Max         765     306     84                36110     9135    1293
     Sum       24467    9791   2657              1155489   292295   41363
 


     bravais-lattice index     =            0
     lattice parameter (alat)  =       1.8897  a.u.
     unit-cell volume          =    2163.5316 (a.u.)^3
     number of atoms/cell      =           24
     number of atomic types    =            3
     number of electrons       =        84.00
     number of Kohn-Sham states=           42
     kinetic-energy cutoff     =     100.0000  Ry
     charge density cutoff     =    1000.0000  Ry
     convergence threshold     =      1.0E-07
     mixing beta               =       0.7000
     number of iterations used =            8  plain     mixing
     Exchange-correlation      =  SLA  PW   PBX  PBC ( 1  4  3  4 0 0)

     celldm(1)=   1.889726  celldm(2)=   0.000000  celldm(3)=   0.000000
     celldm(4)=   0.000000  celldm(5)=   0.000000  celldm(6)=   0.000000

     crystal axes: (cart. coord. in units of alat)
               a(1) = (  14.762000   0.000000   0.000000 )  
               a(2) = (   0.000000   5.832000   0.000000 )  
               a(3) = (  -1.563876   0.000000   3.723951 )  

     reciprocal axes: (cart. coord. in units 2 pi/alat)
               b(1) = (  0.067741  0.000000  0.028448 )  
               b(2) = (  0.000000  0.171468  0.000000 )  
               b(3) = (  0.000000  0.000000  0.268532 )  


     PseudoPot. # 1 for  C read from file:
     /global/cscratch1/sd/almno10/.data/PSEUDOPOTENTIALS/C.pbe-n-kjpaw_psl.1.0.0.UPF
     MD5 check sum: 2ba8448e293caca687844dde9a1b88a8
     Pseudo is Projector augmented-wave + core cor, Zval =  4.0
     Generated using "atomic" code by A. Dal Corso  v.5.3.0 svn rev. 11974
     Shape of augmentation charge: PSQ
     Using radial grid of 1073 points,  4 beta functions with: 
                l(1) =   0
                l(2) =   0
                l(3) =   1
                l(4) =   1
     Q(r) pseudized with 0 coefficients 


     PseudoPot. # 2 for Cl read from file:
     /global/cscratch1/sd/almno10/.data/PSEUDOPOTENTIALS/Cl.pbe-n-kjpaw_psl.1.0.0.UPF
     MD5 check sum: dca63699d6b897c5771335df08a09219
     Pseudo is Projector augmented-wave + core cor, Zval =  7.0
     Generated using "atomic" code by A. Dal Corso  v.5.3.0 svn rev. 11974
     Shape of augmentation charge: PSQ
     Using radial grid of 1157 points,  6 beta functions with: 
                l(1) =   0
                l(2) =   0
                l(3) =   1
                l(4) =   1
                l(5) =   2
                l(6) =   2
     Q(r) pseudized with 0 coefficients 


     PseudoPot. # 3 for  H read from file:
     /global/cscratch1/sd/almno10/.data/PSEUDOPOTENTIALS/H.pbe-kjpaw_psl.1.0.0.UPF
     MD5 check sum: bc0feb48a24907a0b97fa6ee2d589a29
     Pseudo is Projector augmented-wave, Zval =  1.0
     Generated using "atomic" code by A. Dal Corso  v.5.3.0 svn rev. 11974
     Shape of augmentation charge: PSQ
     Using radial grid of  929 points,  2 beta functions with: 
                l(1) =   0
                l(2) =   0
     Q(r) pseudized with 0 coefficients 


     atomic species   valence    mass     pseudopotential
        C              4.00    12.01100      C( 1.00)
        Cl             7.00    35.45270     Cl( 1.00)
        H              1.00     1.00790      H( 1.00)

     No symmetry found


                                    s                        frac. trans.

      isym =  1     identity                                     

 cryst.   s( 1) = (     1          0          0      )
                  (     0          1          0      )
                  (     0          0          1      )

 cart.    s( 1) = (  1.0000000  0.0000000 -0.0000000 )
                  (  0.0000000  1.0000000  0.0000000 )
                  (  0.0000000  0.0000000  1.0000000 )


   Cartesian axes

     site n.     atom                  positions (alat units)
         1           Cl  tau(   1) = (  16.4548968   0.6933903   1.8009811  )
         2           C   tau(   2) = (  15.0934641   1.8735530   1.8570169  )
         3           C   tau(   3) = (  15.1381498   3.0312950   2.6332980  )
         4           H   tau(   4) = (  16.0500925   3.2773260   3.1745030  )
         5           C   tau(   5) = (  14.0608945   3.9154882   2.6446597  )
         6           H   tau(   6) = (  14.1031440   4.8134774   3.2583554  )
         7           H   tau(   7) = (   6.5412929   2.5577473   0.8451368  )
         8           C   tau(   8) = (   6.5637343   1.5693915   1.2987136  )
         9           H   tau(   9) = (   4.4468512   1.2430148   1.0484233  )
        10           C   tau(  10) = (   5.3855395   0.8309015   1.4141182  )
        11           C   tau(  11) = (   5.4462662  -0.4360285   1.9931003  )
        12           Cl  tau(  12) = (   3.9620906  -1.5758279   2.2196386  )
        13           H   tau(  13) = (  13.9271726   0.6522634   0.4906947  )
        14           C   tau(  14) = (  13.9652972   1.5502397   1.1039714  )
        15           H   tau(  15) = (  11.9699090   2.1726514   0.5798340  )
        16           C   tau(  16) = (  12.8609952   2.3991592   1.1613403  )
        17           C   tau(  17) = (  12.9085169   3.5614139   1.9447056  )
        18           Cl  tau(  18) = (  11.5302691   4.5800301   1.8780667  )
        19           H   tau(  19) = (   6.6656955  -1.9295993   2.9599259  )
        20           C   tau(  20) = (   6.6467120  -0.9521885   2.4811002  )
        21           H   tau(  21) = (   8.7564674  -0.6113578   2.7565438  )
        22           C   tau(  22) = (   7.8214649  -0.2100844   2.3712951  )
        23           C   tau(  23) = (   7.7676874   1.0412125   1.7605342  )
        24           Cl  tau(  24) = (   9.1445657   1.8900463   1.4345681  )

   Crystallographic axes

     site n.     atom                  positions (cryst. coord.)
         1           Cl  tau(   1) = (  1.1659138  0.1188941  0.4836210  )
         2           C   tau(   2) = (  1.0752824  0.3212539  0.4986684  )
         3           C   tau(   3) = (  1.1003932  0.5197694  0.7071247  )
         4           H   tau(   4) = (  1.1775658  0.5619558  0.8524555  )
         5           C   tau(   5) = (  1.0277416  0.6713800  0.7101757  )
         6           H   tau(   6) = (  1.0480621  0.8253562  0.8749726  )
         7           H   tau(   7) = (  0.4671595  0.4385712  0.2269462  )
         8           C   tau(   8) = (  0.4815831  0.2691001  0.3487461  )
         9           H   tau(   9) = (  0.3310620  0.2131370  0.2815352  )
        10           C   tau(  10) = (  0.4050535  0.1424728  0.3797359  )
        11           C   tau(  11) = (  0.4256381 -0.0747648  0.5352112  )
        12           Cl  tau(  12) = (  0.3315424 -0.2702037  0.5960439  )
        13           H   tau(  13) = (  0.9574069  0.1118421  0.1317672  )
        14           C   tau(  14) = (  0.9774360  0.2658161  0.2964516  )
        15           H   tau(  15) = (  0.8273547  0.3725397  0.1557040  )
        16           C   tau(  16) = (  0.9042610  0.4113785  0.3118570  )
        17           C   tau(  17) = (  0.9297654  0.6106677  0.5222156  )
        18           Cl  tau(  18) = (  0.8345051  0.7853275  0.5043210  )
        19           H   tau(  19) = (  0.5357484 -0.3308641  0.7948347  )
        20           C   tau(  20) = (  0.5208408 -0.1632696  0.6662547  )
        21           H   tau(  21) = (  0.6715946 -0.1048282  0.7402201  )
        22           C   tau(  22) = (  0.5972966 -0.0360227  0.6367685  )
        23           C   tau(  23) = (  0.5762786  0.1785344  0.4727597  )
        24           Cl  tau(  24) = (  0.6602773  0.3240820  0.3852274  )

     number of k points=    16
                       cart. coord. in units 2pi/alat
        k(    1) = (   0.0169354   0.0214335   0.0406785), wk =   0.1250000
        k(    2) = (   0.0169354   0.0214335   0.1078115), wk =   0.1250000
        k(    3) = (   0.0169354   0.0214335  -0.0935875), wk =   0.1250000
        k(    4) = (   0.0169354   0.0214335  -0.0264545), wk =   0.1250000
        k(    5) = (   0.0169354   0.0643004   0.0406785), wk =   0.1250000
        k(    6) = (   0.0169354   0.0643004   0.1078115), wk =   0.1250000
        k(    7) = (   0.0169354   0.0643004  -0.0935875), wk =   0.1250000
        k(    8) = (   0.0169354   0.0643004  -0.0264545), wk =   0.1250000
        k(    9) = (  -0.0169354   0.0214335  -0.0406785), wk =   0.1250000
        k(   10) = (  -0.0169354   0.0214335  -0.1078115), wk =   0.1250000
        k(   11) = (  -0.0169354   0.0214335   0.0935875), wk =   0.1250000
        k(   12) = (  -0.0169354   0.0214335   0.0264545), wk =   0.1250000
        k(   13) = (  -0.0169354   0.0643004  -0.0406785), wk =   0.1250000
        k(   14) = (  -0.0169354   0.0643004  -0.1078115), wk =   0.1250000
        k(   15) = (  -0.0169354   0.0643004   0.0935875), wk =   0.1250000
        k(   16) = (  -0.0169354   0.0643004   0.0264545), wk =   0.1250000

                       cryst. coord.
        k(    1) = (   0.2500000   0.1250000   0.1250000), wk =   0.1250000
        k(    2) = (   0.2500000   0.1250000   0.3750000), wk =   0.1250000
        k(    3) = (   0.2500000   0.1250000  -0.3750000), wk =   0.1250000
        k(    4) = (   0.2500000   0.1250000  -0.1250000), wk =   0.1250000
        k(    5) = (   0.2500000   0.3750000   0.1250000), wk =   0.1250000
        k(    6) = (   0.2500000   0.3750000   0.3750000), wk =   0.1250000
        k(    7) = (   0.2500000   0.3750000  -0.3750000), wk =   0.1250000
        k(    8) = (   0.2500000   0.3750000  -0.1250000), wk =   0.1250000
        k(    9) = (  -0.2500000   0.1250000  -0.1250000), wk =   0.1250000
        k(   10) = (  -0.2500000   0.1250000  -0.3750000), wk =   0.1250000
        k(   11) = (  -0.2500000   0.1250000   0.3750000), wk =   0.1250000
        k(   12) = (  -0.2500000   0.1250000   0.1250000), wk =   0.1250000
        k(   13) = (  -0.2500000   0.3750000  -0.1250000), wk =   0.1250000
        k(   14) = (  -0.2500000   0.3750000  -0.3750000), wk =   0.1250000
        k(   15) = (  -0.2500000   0.3750000   0.3750000), wk =   0.1250000
        k(   16) = (  -0.2500000   0.3750000   0.1250000), wk =   0.1250000

     Dense  grid:  1155489 G-vectors     FFT dimensions: ( 288, 120,  80)

     Smooth grid:   292295 G-vectors     FFT dimensions: ( 180,  72,  50)

     Estimated max dynamical RAM per process >     147.21MB

     Estimated total allocated dynamical RAM >    4710.62MB

     Initial potential from superposition of free atoms

     starting charge   83.99939, renormalised to   84.00000
     Starting wfc are   72 randomized atomic wfcs
     Checking if some PAW data can be deallocated... 
       node    0, deallocated PAW data for type:  1
       node    0, deallocated PAW data for type:  3
       node    1, deallocated PAW data for type:  1
       node    1, deallocated PAW data for type:  3
       node    2, deallocated PAW data for type:  2
       node    2, deallocated PAW data for type:  3
       node    3, deallocated PAW data for type:  2
       node    3, deallocated PAW data for type:  3
       node    4, deallocated PAW data for type:  2
       node    4, deallocated PAW data for type:  3
       node    5, deallocated PAW data for type:  2
       node    5, deallocated PAW data for type:  3
       node    6, deallocated PAW data for type:  1
       node    6, deallocated PAW data for type:  2
       node    7, deallocated PAW data for type:  1
       node    7, deallocated PAW data for type:  2
       node    8, deallocated PAW data for type:  2
       node    8, deallocated PAW data for type:  3
       node    9, deallocated PAW data for type:  2
       node    9, deallocated PAW data for type:  3
       node   10, deallocated PAW data for type:  1
       node   10, deallocated PAW data for type:  2
       node   11, deallocated PAW data for type:  1
       node   11, deallocated PAW data for type:  2
       node   12, deallocated PAW data for type:  1
       node   12, deallocated PAW data for type:  2
       node   13, deallocated PAW data for type:  1
       node   13, deallocated PAW data for type:  2
       node   14, deallocated PAW data for type:  2
       node   14, deallocated PAW data for type:  3
       node   15, deallocated PAW data for type:  2
       node   15, deallocated PAW data for type:  3
       node   16, deallocated PAW data for type:  1
       node   16, deallocated PAW data for type:  2
       node   17, deallocated PAW data for type:  2
       node   17, deallocated PAW data for type:  3
       node   18, deallocated PAW data for type:  2
       node   18, deallocated PAW data for type:  3
       node   19, deallocated PAW data for type:  1
       node   19, deallocated PAW data for type:  3
       node   20, deallocated PAW data for type:  1
       node   20, deallocated PAW data for type:  2
       node   21, deallocated PAW data for type:  2
       node   21, deallocated PAW data for type:  3
       node   22, deallocated PAW data for type:  1
       node   22, deallocated PAW data for type:  2
       node   23, deallocated PAW data for type:  2
       node   23, deallocated PAW data for type:  3
       node   24, deallocated PAW data for type:  2
       node   24, deallocated PAW data for type:  3
       node   25, deallocated PAW data for type:  1
       node   25, deallocated PAW data for type:  3
       node   26, deallocated PAW data for type:  1
       node   26, deallocated PAW data for type:  2
       node   27, deallocated PAW data for type:  2
       node   27, deallocated PAW data for type:  3
       node   28, deallocated PAW data for type:  1
       node   28, deallocated PAW data for type:  2
       node   29, deallocated PAW data for type:  2
       node   29, deallocated PAW data for type:  3
       node   30, deallocated PAW data for type:  2
       node   30, deallocated PAW data for type:  3
       node   31, deallocated PAW data for type:  1
       node   31, deallocated PAW data for type:  3

     total cpu time spent up to now is        5.4 secs

     per-process dynamical memory:    20.7 Mb

     Self-consistent Calculation

     iteration #  1     ecut=   100.00 Ry     beta= 0.70
     Davidson diagonalization with overlap
     ethr =  1.00E-04,  avg # of iterations =  5.0

     total cpu time spent up to now is       12.1 secs

     total energy              =    -547.12148261 Ry
     Harris-Foulkes estimate   =    -548.97988970 Ry
     estimated scf accuracy    <       2.72282388 Ry

     iteration #  2     ecut=   100.00 Ry     beta= 0.70
     Davidson diagonalization with overlap
     ethr =  3.24E-03,  avg # of iterations =  3.0

     total cpu time spent up to now is       17.1 secs

     total energy              =    -547.51609212 Ry
     Harris-Foulkes estimate   =    -548.60283040 Ry
     estimated scf accuracy    <       1.96577101 Ry

     iteration #  3     ecut=   100.00 Ry     beta= 0.70
     Davidson diagonalization with overlap
     ethr =  2.34E-03,  avg # of iterations =  3.0

     total cpu time spent up to now is       21.5 secs

     total energy              =    -548.00450403 Ry
     Harris-Foulkes estimate   =    -548.04820798 Ry
     estimated scf accuracy    <       0.08762966 Ry

     iteration #  4     ecut=   100.00 Ry     beta= 0.70
     Davidson diagonalization with overlap
     ethr =  1.04E-04,  avg # of iterations =  4.0

     total cpu time spent up to now is       26.4 secs

     total energy              =    -548.03224026 Ry
     Harris-Foulkes estimate   =    -548.04338888 Ry
     estimated scf accuracy    <       0.02212759 Ry

     iteration #  5     ecut=   100.00 Ry     beta= 0.70
     Davidson diagonalization with overlap
     ethr =  2.63E-05,  avg # of iterations =  3.0

     total cpu time spent up to now is       30.8 secs

     total energy              =    -548.03666322 Ry
     Harris-Foulkes estimate   =    -548.03755512 Ry
     estimated scf accuracy    <       0.00168012 Ry

     iteration #  6     ecut=   100.00 Ry     beta= 0.70
     Davidson diagonalization with overlap
     ethr =  2.00E-06,  avg # of iterations =  4.1

     total cpu time spent up to now is       35.6 secs

     total energy              =    -548.03696441 Ry
     Harris-Foulkes estimate   =    -548.03757748 Ry
     estimated scf accuracy    <       0.00151013 Ry

     iteration #  7     ecut=   100.00 Ry     beta= 0.70
     Davidson diagonalization with overlap
     ethr =  1.80E-06,  avg # of iterations =  4.0

     total cpu time spent up to now is       39.9 secs

     total energy              =    -548.03726859 Ry
     Harris-Foulkes estimate   =    -548.03732283 Ry
     estimated scf accuracy    <       0.00013941 Ry

     iteration #  8     ecut=   100.00 Ry     beta= 0.70
     Davidson diagonalization with overlap
     ethr =  1.66E-07,  avg # of iterations =  4.0

     total cpu time spent up to now is       44.5 secs

     total energy              =    -548.03729844 Ry
     Harris-Foulkes estimate   =    -548.03730526 Ry
     estimated scf accuracy    <       0.00001552 Ry

     iteration #  9     ecut=   100.00 Ry     beta= 0.70
     Davidson diagonalization with overlap
     ethr =  1.85E-08,  avg # of iterations =  4.0

     total cpu time spent up to now is       49.2 secs

     total energy              =    -548.03730210 Ry
     Harris-Foulkes estimate   =    -548.03730315 Ry
     estimated scf accuracy    <       0.00000238 Ry

     iteration # 10     ecut=   100.00 Ry     beta= 0.70
     Davidson diagonalization with overlap
     ethr =  2.83E-09,  avg # of iterations =  4.0

     total cpu time spent up to now is       53.9 secs

     total energy              =    -548.03730262 Ry
     Harris-Foulkes estimate   =    -548.03730276 Ry
     estimated scf accuracy    <       0.00000031 Ry

     iteration # 11     ecut=   100.00 Ry     beta= 0.70
     Davidson diagonalization with overlap
     ethr =  3.63E-10,  avg # of iterations =  4.0

     total cpu time spent up to now is       58.7 secs

     End of self-consistent calculation

          k = 0.0169 0.0214 0.0407 ( 36525 PWs)   bands (ev):

   -16.4628 -16.0375 -15.2097 -15.1204 -13.8665 -13.7847 -12.3922 -12.3009
   -11.2817 -11.1939  -9.0620  -8.8947  -8.2938  -8.1282  -6.3802  -6.2584
    -5.4009  -5.2524  -5.0049  -4.7794  -4.2098  -4.1135  -3.9909  -3.9244
    -3.2910  -3.1328  -2.7077  -2.5961  -2.4598  -2.3413  -2.1669  -2.0867
    -1.2148  -1.0787  -0.9949  -0.9481  -0.8692  -0.7200  -0.0118   0.0304
     0.4557   0.7260

     occupation numbers 
     1.0000   1.0000   1.0000   1.0000   1.0000   1.0000   1.0000   1.0000
     1.0000   1.0000   1.0000   1.0000   1.0000   1.0000   1.0000   1.0000
     1.0000   1.0000   1.0000   1.0000   1.0000   1.0000   1.0000   1.0000
     1.0000   1.0000   1.0000   1.0000   1.0000   1.0000   1.0000   1.0000
     1.0000   1.0000   1.0000   1.0000   1.0000   1.0000   1.0000   1.0000
     1.0000   1.0000

          k = 0.0169 0.0214 0.1078 ( 36561 PWs)   bands (ev):

   -16.3776 -15.9581 -15.1534 -15.0714 -13.8599 -13.7710 -12.3504 -12.2950
   -11.3255 -11.1899  -9.0280  -8.8579  -8.2442  -8.1164  -6.4146  -6.2828
    -5.3972  -5.2482  -5.0394  -4.9034  -4.2662  -4.1859  -4.1657  -3.9753
    -3.8469  -3.7108  -2.7271  -2.6855  -2.5990  -2.4375  -2.4255  -2.3162
    -1.2708  -1.1088  -1.0553  -0.9318  -0.8408  -0.8134  -0.4014  -0.1232
     0.7103   0.8324

     occupation numbers 
     1.0000   1.0000   1.0000   1.0000   1.0000   1.0000   1.0000   1.0000
     1.0000   1.0000   1.0000   1.0000   1.0000   1.0000   1.0000   1.0000
     1.0000   1.0000   1.0000   1.0000   1.0000   1.0000   1.0000   1.0000
     1.0000   1.0000   1.0000   1.0000   1.0000   1.0000   1.0000   1.0000
     1.0000   1.0000   1.0000   1.0000   1.0000   1.0000   1.0000   1.0000
     1.0000   1.0000

          k = 0.0169 0.0214-0.0936 ( 36547 PWs)   bands (ev):

   -16.3753 -15.9621 -15.1542 -15.0697 -13.8544 -13.7752 -12.3560 -12.2890
   -11.3167 -11.1974  -9.0023  -8.8912  -8.2265  -8.1334  -6.4503  -6.2612
    -5.3933  -5.2560  -5.0599  -4.8495  -4.2592  -4.1982  -4.1427  -4.0065
    -3.8725  -3.6704  -2.6899  -2.6487  -2.6315  -2.4552  -2.4277  -2.3280
    -1.2308  -1.1283  -1.0672  -0.9685  -0.8795  -0.7921  -0.3420  -0.1637
     0.7213   0.8266

     occupation numbers 
     1.0000   1.0000   1.0000   1.0000   1.0000   1.0000   1.0000   1.0000
     1.0000   1.0000   1.0000   1.0000   1.0000   1.0000   1.0000   1.0000
     1.0000   1.0000   1.0000   1.0000   1.0000   1.0000   1.0000   1.0000
     1.0000   1.0000   1.0000   1.0000   1.0000   1.0000   1.0000   1.0000
     1.0000   1.0000   1.0000   1.0000   1.0000   1.0000   1.0000   1.0000
     1.0000   1.0000

          k = 0.0169 0.0214-0.0265 ( 36551 PWs)   bands (ev):

   -16.4608 -16.0410 -15.2108 -15.1185 -13.8592 -13.7909 -12.3978 -12.2946
   -11.2737 -11.2006  -9.0397  -8.9261  -8.2846  -8.1330  -6.4221  -6.2300
    -5.3969  -5.2668  -5.0396  -4.7080  -4.2332  -4.0932  -3.9954  -3.8989
    -3.3122  -3.1128  -2.7276  -2.5682  -2.4875  -2.2968  -2.1686  -2.1172
    -1.1590  -1.0987  -1.0441  -0.9645  -0.8445  -0.7506  -0.0028   0.0400
     0.4558   0.7266

     occupation numbers 
     1.0000   1.0000   1.0000   1.0000   1.0000   1.0000   1.0000   1.0000
     1.0000   1.0000   1.0000   1.0000   1.0000   1.0000   1.0000   1.0000
     1.0000   1.0000   1.0000   1.0000   1.0000   1.0000   1.0000   1.0000
     1.0000   1.0000   1.0000   1.0000   1.0000   1.0000   1.0000   1.0000
     1.0000   1.0000   1.0000   1.0000   1.0000   1.0000   1.0000   1.0000
     1.0000   1.0000

          k = 0.0169 0.0643 0.0407 ( 36518 PWs)   bands (ev):

   -16.4474 -16.0134 -15.2063 -15.1189 -13.9020 -13.8164 -12.4516 -12.3315
   -11.3019 -11.1947  -8.9488  -8.8192  -8.1906  -8.0561  -6.3721  -6.2950
    -5.3479  -5.2273  -5.0455  -4.9630  -4.3403  -4.2579  -4.0613  -4.0080
    -3.3239  -3.2127  -2.5982  -2.5052  -2.4250  -2.3757  -2.1357  -2.0694
    -1.0968  -1.0068  -0.9157  -0.8748  -0.7870  -0.7117   0.0360   0.0676
     0.5100   0.7675

     occupation numbers 
     1.0000   1.0000   1.0000   1.0000   1.0000   1.0000   1.0000   1.0000
     1.0000   1.0000   1.0000   1.0000   1.0000   1.0000   1.0000   1.0000
     1.0000   1.0000   1.0000   1.0000   1.0000   1.0000   1.0000   1.0000
     1.0000   1.0000   1.0000   1.0000   1.0000   1.0000   1.0000   1.0000
     1.0000   1.0000   1.0000   1.0000   1.0000   1.0000   1.0000   1.0000
     1.0000   1.0000

          k = 0.0169 0.0643 0.1078 ( 36558 PWs)   bands (ev):

   -16.3682 -15.9434 -15.1481 -15.0642 -13.8720 -13.7918 -12.3940 -12.3070
   -11.3575 -11.2060  -8.9613  -8.8448  -8.2219  -8.1088  -6.3609  -6.2822
    -5.3607  -5.2395  -4.9439  -4.8786  -4.2961  -4.2396  -4.0861  -4.0465
    -3.9626  -3.8759  -2.7200  -2.6283  -2.5894  -2.4734  -2.3787  -2.3197
    -1.2190  -1.1180  -1.0359  -1.0175  -0.8338  -0.8031  -0.2236   0.0119
     0.7240   0.8603

     occupation numbers 
     1.0000   1.0000   1.0000   1.0000   1.0000   1.0000   1.0000   1.0000
     1.0000   1.0000   1.0000   1.0000   1.0000   1.0000   1.0000   1.0000
     1.0000   1.0000   1.0000   1.0000   1.0000   1.0000   1.0000   1.0000
     1.0000   1.0000   1.0000   1.0000   1.0000   1.0000   1.0000   1.0000
     1.0000   1.0000   1.0000   1.0000   1.0000   1.0000   1.0000   1.0000
     1.0000   1.0000

          k = 0.0169 0.0643-0.0936 ( 36547 PWs)   bands (ev):

   -16.3658 -15.9477 -15.1479 -15.0631 -13.8692 -13.7937 -12.3987 -12.3005
   -11.3511 -11.2128  -8.9363  -8.8773  -8.1893  -8.1378  -6.3901  -6.2725
    -5.3585  -5.2505  -4.9992  -4.7787  -4.3027  -4.2572  -4.0886  -4.0632
    -3.9342  -3.8418  -2.7304  -2.6526  -2.5890  -2.5363  -2.3347  -2.2573
    -1.1592  -1.1402  -1.1108  -1.0265  -0.8603  -0.7875  -0.1771  -0.0295
     0.7347   0.8581

     occupation numbers 
     1.0000   1.0000   1.0000   1.0000   1.0000   1.0000   1.0000   1.0000
     1.0000   1.0000   1.0000   1.0000   1.0000   1.0000   1.0000   1.0000
     1.0000   1.0000   1.0000   1.0000   1.0000   1.0000   1.0000   1.0000
     1.0000   1.0000   1.0000   1.0000   1.0000   1.0000   1.0000   1.0000
     1.0000   1.0000   1.0000   1.0000   1.0000   1.0000   1.0000   1.0000
     1.0000   1.0000

          k = 0.0169 0.0643-0.0265 ( 36489 PWs)   bands (ev):

   -16.4453 -16.0173 -15.2063 -15.1175 -13.8985 -13.8195 -12.4559 -12.3245
   -11.2966 -11.2015  -8.9278  -8.8469  -8.1571  -8.0854  -6.4049  -6.2901
    -5.3492  -5.2255  -5.0848  -4.8793  -4.3372  -4.2187  -4.1039  -4.0204
    -3.3501  -3.1788  -2.6023  -2.4946  -2.4172  -2.3457  -2.1451  -2.0751
    -1.0602  -1.0467  -0.9779  -0.8521  -0.8120  -0.6973   0.0120   0.1138
     0.5062   0.7645

     occupation numbers 
     1.0000   1.0000   1.0000   1.0000   1.0000   1.0000   1.0000   1.0000
     1.0000   1.0000   1.0000   1.0000   1.0000   1.0000   1.0000   1.0000
     1.0000   1.0000   1.0000   1.0000   1.0000   1.0000   1.0000   1.0000
     1.0000   1.0000   1.0000   1.0000   1.0000   1.0000   1.0000   1.0000
     1.0000   1.0000   1.0000   1.0000   1.0000   1.0000   1.0000   1.0000
     1.0000   1.0000

          k =-0.0169 0.0214-0.0407 ( 36525 PWs)   bands (ev):

   -16.4607 -16.0413 -15.2088 -15.1202 -13.8632 -13.7871 -12.3968 -12.2949
   -11.2750 -11.2004  -9.0357  -8.9274  -8.2648  -8.1592  -6.4059  -6.2442
    -5.3932  -5.2644  -4.9921  -4.7651  -4.2094  -4.1023  -4.0511  -3.8681
    -3.3104  -3.0982  -2.7107  -2.6018  -2.4884  -2.2719  -2.1824  -2.0948
    -1.2105  -1.0830  -1.0357  -0.9350  -0.8706  -0.7433   0.0004   0.0403
     0.4501   0.7282

     occupation numbers 
     1.0000   1.0000   1.0000   1.0000   1.0000   1.0000   1.0000   1.0000
     1.0000   1.0000   1.0000   1.0000   1.0000   1.0000   1.0000   1.0000
     1.0000   1.0000   1.0000   1.0000   1.0000   1.0000   1.0000   1.0000
     1.0000   1.0000   1.0000   1.0000   1.0000   1.0000   1.0000   1.0000
     1.0000   1.0000   1.0000   1.0000   1.0000   1.0000   1.0000   1.0000
     1.0000   1.0000

          k =-0.0169 0.0214-0.1078 ( 36561 PWs)   bands (ev):

   -16.3752 -15.9624 -15.1512 -15.0726 -13.8552 -13.7743 -12.3559 -12.2888
   -11.3176 -11.1971  -9.0009  -8.8913  -8.2097  -8.1531  -6.4396  -6.2713
    -5.3884  -5.2590  -5.0334  -4.8807  -4.2743  -4.1750  -4.1517  -3.9826
    -3.8981  -3.6596  -2.7116  -2.6803  -2.6123  -2.4706  -2.4090  -2.2882
    -1.2792  -1.1209  -1.0519  -0.9441  -0.8690  -0.8101  -0.3474  -0.1618
     0.7166   0.8310

     occupation numbers 
     1.0000   1.0000   1.0000   1.0000   1.0000   1.0000   1.0000   1.0000
     1.0000   1.0000   1.0000   1.0000   1.0000   1.0000   1.0000   1.0000
     1.0000   1.0000   1.0000   1.0000   1.0000   1.0000   1.0000   1.0000
     1.0000   1.0000   1.0000   1.0000   1.0000   1.0000   1.0000   1.0000
     1.0000   1.0000   1.0000   1.0000   1.0000   1.0000   1.0000   1.0000
     1.0000   1.0000

          k =-0.0169 0.0214 0.0936 ( 36547 PWs)   bands (ev):

   -16.3776 -15.9579 -15.1543 -15.0707 -13.8558 -13.7750 -12.3504 -12.2954
   -11.3235 -11.1913  -9.0277  -8.8596  -8.2504  -8.1070  -6.4234  -6.2782
    -5.3898  -5.2525  -5.0760  -4.8603  -4.2502  -4.2051  -4.1458  -4.0147
    -3.8466  -3.7008  -2.7110  -2.6313  -2.5822  -2.4963  -2.4237  -2.3586
    -1.2029  -1.1286  -1.0867  -0.9176  -0.8775  -0.7965  -0.3998  -0.1202
     0.7166   0.8287

     occupation numbers 
     1.0000   1.0000   1.0000   1.0000   1.0000   1.0000   1.0000   1.0000
     1.0000   1.0000   1.0000   1.0000   1.0000   1.0000   1.0000   1.0000
     1.0000   1.0000   1.0000   1.0000   1.0000   1.0000   1.0000   1.0000
     1.0000   1.0000   1.0000   1.0000   1.0000   1.0000   1.0000   1.0000
     1.0000   1.0000   1.0000   1.0000   1.0000   1.0000   1.0000   1.0000
     1.0000   1.0000

          k =-0.0169 0.0214 0.0265 ( 36551 PWs)   bands (ev):

   -16.4629 -16.0372 -15.2117 -15.1186 -13.8651 -13.7859 -12.3921 -12.3016
   -11.2809 -11.1940  -9.0623  -8.8969  -8.3014  -8.1147  -6.4040  -6.2372
    -5.3981  -5.2589  -5.0415  -4.7296  -4.2346  -4.1376  -3.9538  -3.8998
    -3.3019  -3.1277  -2.7588  -2.5908  -2.4273  -2.3364  -2.1653  -2.1121
    -1.1655  -1.0960  -1.0041  -0.9553  -0.8663  -0.7265  -0.0131   0.0315
     0.4620   0.7234

     occupation numbers 
     1.0000   1.0000   1.0000   1.0000   1.0000   1.0000   1.0000   1.0000
     1.0000   1.0000   1.0000   1.0000   1.0000   1.0000   1.0000   1.0000
     1.0000   1.0000   1.0000   1.0000   1.0000   1.0000   1.0000   1.0000
     1.0000   1.0000   1.0000   1.0000   1.0000   1.0000   1.0000   1.0000
     1.0000   1.0000   1.0000   1.0000   1.0000   1.0000   1.0000   1.0000
     1.0000   1.0000

          k =-0.0169 0.0643-0.0407 ( 36518 PWs)   bands (ev):

   -16.4452 -16.0174 -15.2051 -15.1187 -13.8978 -13.8200 -12.4556 -12.3255
   -11.2954 -11.2015  -8.9251  -8.8501  -8.1501  -8.0961  -6.3923  -6.2886
    -5.3485  -5.2270  -5.0889  -4.8990  -4.3063  -4.2850  -4.1260  -3.9335
    -3.3548  -3.1764  -2.5828  -2.5465  -2.4396  -2.3053  -2.1676  -2.0549
    -1.0662  -1.0355  -0.9156  -0.8773  -0.8389  -0.7109   0.0114   0.1137
     0.5073   0.7655

     occupation numbers 
     1.0000   1.0000   1.0000   1.0000   1.0000   1.0000   1.0000   1.0000
     1.0000   1.0000   1.0000   1.0000   1.0000   1.0000   1.0000   1.0000
     1.0000   1.0000   1.0000   1.0000   1.0000   1.0000   1.0000   1.0000
     1.0000   1.0000   1.0000   1.0000   1.0000   1.0000   1.0000   1.0000
     1.0000   1.0000   1.0000   1.0000   1.0000   1.0000   1.0000   1.0000
     1.0000   1.0000

          k =-0.0169 0.0643-0.1078 ( 36558 PWs)   bands (ev):

   -16.3658 -15.9478 -15.1457 -15.0655 -13.8661 -13.7965 -12.3989 -12.3007
   -11.3502 -11.2132  -8.9354  -8.8787  -8.1853  -8.1436  -6.3822  -6.2727
    -5.3526  -5.2512  -5.0023  -4.8098  -4.2725  -4.2430  -4.1302  -4.0501
    -3.9259  -3.8496  -2.6971  -2.6569  -2.5807  -2.4765  -2.4126  -2.2769
    -1.2054  -1.1305  -1.0579  -1.0260  -0.8850  -0.7734  -0.1758  -0.0250
     0.7323   0.8560

     occupation numbers 
     1.0000   1.0000   1.0000   1.0000   1.0000   1.0000   1.0000   1.0000
     1.0000   1.0000   1.0000   1.0000   1.0000   1.0000   1.0000   1.0000
     1.0000   1.0000   1.0000   1.0000   1.0000   1.0000   1.0000   1.0000
     1.0000   1.0000   1.0000   1.0000   1.0000   1.0000   1.0000   1.0000
     1.0000   1.0000   1.0000   1.0000   1.0000   1.0000   1.0000   1.0000
     1.0000   1.0000

          k =-0.0169 0.0643 0.0936 ( 36547 PWs)   bands (ev):

   -16.3682 -15.9434 -15.1484 -15.0640 -13.8715 -13.7924 -12.3937 -12.3069
   -11.3573 -11.2070  -8.9600  -8.8455  -8.2213  -8.1075  -6.3678  -6.2872
    -5.3564  -5.2444  -4.9396  -4.8494  -4.3070  -4.2169  -4.1528  -4.0384
    -3.9538  -3.8565  -2.7443  -2.6181  -2.5812  -2.5404  -2.3359  -2.2883
    -1.2024  -1.1361  -1.0443  -1.0032  -0.8720  -0.7772  -0.2258   0.0107
     0.7364   0.8541

     occupation numbers 
     1.0000   1.0000   1.0000   1.0000   1.0000   1.0000   1.0000   1.0000
     1.0000   1.0000   1.0000   1.0000   1.0000   1.0000   1.0000   1.0000
     1.0000   1.0000   1.0000   1.0000   1.0000   1.0000   1.0000   1.0000
     1.0000   1.0000   1.0000   1.0000   1.0000   1.0000   1.0000   1.0000
     1.0000   1.0000   1.0000   1.0000   1.0000   1.0000   1.0000   1.0000
     1.0000   1.0000

          k =-0.0169 0.0643 0.0265 ( 36489 PWs)   bands (ev):

   -16.4474 -16.0133 -15.2077 -15.1172 -13.9042 -13.8146 -12.4505 -12.3316
   -11.3026 -11.1957  -8.9472  -8.8193  -8.1876  -8.0566  -6.3914  -6.2928
    -5.3451  -5.2258  -5.0211  -4.9536  -4.3133  -4.2407  -4.1654  -3.9872
    -3.3248  -3.2073  -2.5856  -2.5023  -2.4195  -2.3709  -2.1503  -2.0644
    -1.1221  -0.9980  -0.9259  -0.8579  -0.7936  -0.7031   0.0405   0.0676
     0.5133   0.7625

     occupation numbers 
     1.0000   1.0000   1.0000   1.0000   1.0000   1.0000   1.0000   1.0000
     1.0000   1.0000   1.0000   1.0000   1.0000   1.0000   1.0000   1.0000
     1.0000   1.0000   1.0000   1.0000   1.0000   1.0000   1.0000   1.0000
     1.0000   1.0000   1.0000   1.0000   1.0000   1.0000   1.0000   1.0000
     1.0000   1.0000   1.0000   1.0000   1.0000   1.0000   1.0000   1.0000
     1.0000   1.0000

     highest occupied level (ev):     0.8603

!    total energy              =    -548.03730269 Ry
     Harris-Foulkes estimate   =    -548.03730272 Ry
     estimated scf accuracy    <       0.00000004 Ry

     total all-electron energy =     -4615.880790 Ry

     The total energy is the sum of the following terms:

     one-electron contribution =    -149.95658230 Ry
     hartree contribution      =     106.33259596 Ry
     xc contribution           =    -104.19583277 Ry
     ewald contribution        =    -144.43511608 Ry
     one-center paw contrib.   =    -255.78236751 Ry
      -> PAW hartree energy AE =      19.00968310 Ry
      -> PAW hartree energy PS =     -18.90531724 Ry
      -> PAW xc energy AE      =     -55.62679234 Ry
      -> PAW xc energy PS      =      10.08122062 Ry
      -> total E_H with PAW    =     106.43696182 Ry
      -> total E_XC with PAW   =    -149.74140449 Ry

     convergence has been achieved in  11 iterations
 writing file ./scratch/scf-1409.save/charge-density
 writing file ./scratch/scf-1409.save/charge-density
 writing file ./scratch/scf-1409.save/charge-density
 writing file ./scratch/scf-1409.save/charge-density
 writing file ./scratch/scf-1409.save/charge-density
 writing file ./scratch/scf-1409.save/charge-density
 writing file ./scratch/scf-1409.save/charge-density
 writing file ./scratch/scf-1409.save/charge-density
 writing file ./scratch/scf-1409.save/charge-density
 writing file ./scratch/scf-1409.save/charge-density
 writing file ./scratch/scf-1409.save/charge-density
 writing file ./scratch/scf-1409.save/charge-density
 writing file ./scratch/scf-1409.save/charge-density
 writing file ./scratch/scf-1409.save/charge-density
 writing file ./scratch/scf-1409.save/charge-density
 writing file ./scratch/scf-1409.save/charge-density
 writing file ./scratch/scf-1409.save/charge-density
 writing file ./scratch/scf-1409.save/charge-density
 writing file ./scratch/scf-1409.save/charge-density
 writing file ./scratch/scf-1409.save/charge-density
 writing file ./scratch/scf-1409.save/charge-density
 writing file ./scratch/scf-1409.save/charge-density
 writing file ./scratch/scf-1409.save/charge-density
 writing file ./scratch/scf-1409.save/charge-density
 writing file ./scratch/scf-1409.save/charge-density
 writing file ./scratch/scf-1409.save/charge-density
 writing file ./scratch/scf-1409.save/charge-density
 writing file ./scratch/scf-1409.save/charge-density
 writing file ./scratch/scf-1409.save/charge-density
 writing file ./scratch/scf-1409.save/charge-density
 writing file ./scratch/scf-1409.save/charge-density
 writing file ./scratch/scf-1409.save/charge-density

     Forces acting on atoms (cartesian axes, Ry/au):

     atom    1 type  2   force =    -0.02803979    0.03848807    0.00853179
     atom    2 type  1   force =     0.01235318   -0.02829362   -0.00595342
     atom    3 type  1   force =     0.02439462   -0.00571749   -0.00915092
     atom    4 type  3   force =    -0.00183350    0.00087993    0.00514340
     atom    5 type  1   force =    -0.01105137   -0.01188382    0.00865319
     atom    6 type  3   force =     0.00087111    0.00155389   -0.00310825
     atom    7 type  3   force =    -0.00145040   -0.00119916   -0.00359885
     atom    8 type  1   force =    -0.01566153   -0.01032884    0.00470109
     atom    9 type  3   force =    -0.00027938   -0.00149950    0.00041906
     atom   10 type  1   force =    -0.01973025   -0.01293494    0.00251758
     atom   11 type  1   force =    -0.02675011   -0.03920459    0.01541158
     atom   12 type  2   force =     0.05789252    0.05457671   -0.01823592
     atom   13 type  3   force =     0.00134271   -0.00007647    0.00019419
     atom   14 type  1   force =    -0.00673478    0.00540294    0.00764776
     atom   15 type  3   force =    -0.00039628   -0.00057737   -0.00019578
     atom   16 type  1   force =     0.00847735    0.00112299    0.00403725
     atom   17 type  1   force =     0.01588244   -0.01946437   -0.02469506
     atom   18 type  2   force =    -0.01819153    0.02352198    0.00828722
     atom   19 type  3   force =     0.00100032    0.00069504   -0.00000347
     atom   20 type  1   force =    -0.00683825   -0.00371023    0.00599633
     atom   21 type  3   force =     0.00180554   -0.00006961   -0.00144807
     atom   22 type  1   force =    -0.01103301   -0.00488190   -0.00016476
     atom   23 type  1   force =    -0.06332354   -0.03900438   -0.00166403
     atom   24 type  2   force =     0.08729390    0.05260474   -0.00332192
     The non-local contrib.  to forces
     atom    1 type  2   force =    -0.29249550    0.27851929    0.01006783
     atom    2 type  1   force =     0.38010718   -0.32695227   -0.00425921
     atom    3 type  1   force =    -0.00737227   -0.04754926   -0.06301417
     atom    4 type  3   force =    -0.06571053   -0.01804853   -0.03895777
     atom    5 type  1   force =    -0.04802263   -0.07289321   -0.02427795
     atom    6 type  3   force =    -0.00370620   -0.06471217   -0.04481010
     atom    7 type  3   force =     0.00221617   -0.07169682    0.03289925
     atom    8 type  1   force =    -0.00561927   -0.06051824    0.04333175
     atom    9 type  3   force =     0.06819999   -0.02994300    0.02655566
     atom   10 type  1   force =     0.02420872   -0.09354277    0.04372261
     atom   11 type  1   force =    -0.43812308   -0.31821457    0.06541652
     atom   12 type  2   force =     0.29767252    0.24107108   -0.05869885
     atom   13 type  3   force =     0.00324880    0.06478580    0.04449833
     atom   14 type  1   force =     0.02057644    0.03745845    0.04313076
     atom   15 type  3   force =     0.06404577    0.01657689    0.04235038
     atom   16 type  1   force =     0.02962751    0.03233730    0.04682295
     atom   17 type  1   force =    -0.38068896    0.28918967   -0.03968696
     atom   18 type  2   force =     0.31860292   -0.22849419    0.02718677
     atom   19 type  3   force =    -0.00139590    0.07049448   -0.03474285
     atom   20 type  1   force =    -0.03849191    0.03852240   -0.02729075
     atom   21 type  3   force =    -0.06726773    0.02936314   -0.02826619
     atom   22 type  1   force =    -0.04726305    0.03757604   -0.02054660
     atom   23 type  1   force =     0.36018791    0.22125360   -0.08138926
     atom   24 type  2   force =    -0.31531291   -0.19658760    0.09278582
     The ionic contribution  to forces
     atom    1 type  2   force =     4.72172866   -3.35797306    0.43442909
     atom    2 type  1   force =     2.66505581   -1.65528880    0.36967765
     atom    3 type  1   force =     4.21118447    1.46560432    2.82367754
     atom    4 type  3   force =     2.08040247    0.61133143    1.27939935
     atom    5 type  1   force =     1.05216550    4.14161505    2.25932953
     atom    6 type  3   force =     0.25024829    1.88031509    1.30901414
     atom    7 type  3   force =    -0.26842452    2.05084462   -1.06300964
     atom    8 type  1   force =    -1.18013861    4.24321292   -1.90443141
     atom    9 type  3   force =    -2.06801017    1.03243557   -0.88512686
     atom   10 type  1   force =    -4.53390519    2.24866639   -1.91108139
     atom   11 type  1   force =    -3.22084913   -1.75698803   -0.33996989
     atom   12 type  2   force =    -4.82837524   -3.67534622   -0.22430205
     atom   13 type  3   force =    -0.36519019   -1.91164906   -1.38574477
     atom   14 type  1   force =    -1.15157609   -3.99298695   -2.63751828
     atom   15 type  3   force =    -2.00380137   -0.69140386   -1.35591353
     atom   16 type  1   force =    -4.27486724   -1.84581016   -2.66679957
     atom   17 type  1   force =    -2.30585646    1.49809702   -0.04776548
     atom   18 type  2   force =    -6.16397918    4.42807939   -0.84479147
     atom   19 type  3   force =     0.29077541   -1.99323844    1.12210695
     atom   20 type  1   force =     0.99884453   -4.29436534    1.94946309
     atom   21 type  3   force =     2.17118733   -1.02301543    0.97181387
     atom   22 type  1   force =     4.59157510   -2.58988974    2.15494947
     atom   23 type  1   force =     2.14961615    1.12288996    0.68245168
     atom   24 type  2   force =     7.18218966    4.06486334   -0.08985806
     The local contribution  to forces
     atom    1 type  2   force =    -4.47039093    3.13086412   -0.43550310
     atom    2 type  1   force =    -3.02221954    1.94540075   -0.37144311
     atom    3 type  1   force =    -4.17801077   -1.42415849   -2.76942728
     atom    4 type  3   force =    -2.01653498   -0.59241333   -1.23530582
     atom    5 type  1   force =    -1.01549427   -4.07967127   -2.22578553
     atom    6 type  3   force =    -0.24566540   -1.81403666   -1.26730827
     atom    7 type  3   force =     0.26477053   -1.98035158    1.02651888
     atom    8 type  1   force =     1.16972179   -4.19207174    1.86561504
     atom    9 type  3   force =     1.99952118   -1.00397978    0.85898493
     atom   10 type  1   force =     4.48856417   -2.16859496    1.86984745
     atom   11 type  1   force =     3.61968689    2.02738050    0.29143206
     atom   12 type  2   force =     4.60340960    3.50104527    0.26165104
     atom   13 type  3   force =     0.36328719    1.84679180    1.34144504
     atom   14 type  1   force =     1.12452485    3.95966254    2.60135731
     atom   15 type  3   force =     1.93934860    0.67423643    1.31335843
     atom   16 type  1   force =     4.25247594    1.81446592    2.62374916
     atom   17 type  1   force =     2.69284766   -1.79971965    0.06246240
     atom   18 type  2   force =     5.83907216   -4.18435535    0.82718713
     atom   19 type  3   force =    -0.28836630    1.92343543   -1.08736256
     atom   20 type  1   force =    -0.96746213    4.25087221   -1.91569873
     atom   21 type  3   force =    -2.10213331    0.99359544   -0.94500474
     atom   22 type  1   force =    -4.55417151    2.54710139   -2.13399565
     atom   23 type  1   force =    -2.56472534   -1.37802932   -0.60399665
     atom   24 type  2   force =    -6.78858569   -3.82144505   -0.00298482
     The core correction contribution to forces
     atom    1 type  2   force =     0.01294288   -0.01280826   -0.00048952
     atom    2 type  1   force =    -0.01055933    0.00850095    0.00007109
     atom    3 type  1   force =    -0.00135368    0.00031473   -0.00039778
     atom    4 type  3   force =     0.00000000    0.00000000    0.00000000
     atom    5 type  1   force =     0.00039551   -0.00090067   -0.00056117
     atom    6 type  3   force =     0.00000000    0.00000000    0.00000000
     atom    7 type  3   force =     0.00000000    0.00000000    0.00000000
     atom    8 type  1   force =     0.00047238   -0.00091110    0.00020596
     atom    9 type  3   force =     0.00000000    0.00000000    0.00000000
     atom   10 type  1   force =     0.00145681    0.00058134    0.00004054
     atom   11 type  1   force =     0.01257822    0.00858704   -0.00143699
     atom   12 type  2   force =    -0.01478494   -0.01226120    0.00311457
     atom   13 type  3   force =     0.00000000    0.00000000    0.00000000
     atom   14 type  1   force =    -0.00020112    0.00121587    0.00069668
     atom   15 type  3   force =     0.00000000    0.00000000    0.00000000
     atom   16 type  1   force =     0.00121943    0.00000834    0.00020373
     atom   17 type  1   force =     0.00957169   -0.00702846    0.00028566
     atom   18 type  2   force =    -0.01206566    0.00840478   -0.00135944
     atom   19 type  3   force =     0.00000000    0.00000000    0.00000000
     atom   20 type  1   force =     0.00039413    0.00127408   -0.00044505
     atom   21 type  3   force =     0.00000000    0.00000000    0.00000000
     atom   22 type  1   force =    -0.00110094    0.00034702   -0.00055342
     atom   23 type  1   force =    -0.00835864   -0.00515440    0.00130293
     atom   24 type  2   force =     0.00893256    0.00568443   -0.00324756
     The Hubbard contrib.    to forces
     atom    1 type  2   force =     0.00000000    0.00000000    0.00000000
     atom    2 type  1   force =     0.00000000    0.00000000    0.00000000
     atom    3 type  1   force =     0.00000000    0.00000000    0.00000000
     atom    4 type  3   force =     0.00000000    0.00000000    0.00000000
     atom    5 type  1   force =     0.00000000    0.00000000    0.00000000
     atom    6 type  3   force =     0.00000000    0.00000000    0.00000000
     atom    7 type  3   force =     0.00000000    0.00000000    0.00000000
     atom    8 type  1   force =     0.00000000    0.00000000    0.00000000
     atom    9 type  3   force =     0.00000000    0.00000000    0.00000000
     atom   10 type  1   force =     0.00000000    0.00000000    0.00000000
     atom   11 type  1   force =     0.00000000    0.00000000    0.00000000
     atom   12 type  2   force =     0.00000000    0.00000000    0.00000000
     atom   13 type  3   force =     0.00000000    0.00000000    0.00000000
     atom   14 type  1   force =     0.00000000    0.00000000    0.00000000
     atom   15 type  3   force =     0.00000000    0.00000000    0.00000000
     atom   16 type  1   force =     0.00000000    0.00000000    0.00000000
     atom   17 type  1   force =     0.00000000    0.00000000    0.00000000
     atom   18 type  2   force =     0.00000000    0.00000000    0.00000000
     atom   19 type  3   force =     0.00000000    0.00000000    0.00000000
     atom   20 type  1   force =     0.00000000    0.00000000    0.00000000
     atom   21 type  3   force =     0.00000000    0.00000000    0.00000000
     atom   22 type  1   force =     0.00000000    0.00000000    0.00000000
     atom   23 type  1   force =     0.00000000    0.00000000    0.00000000
     atom   24 type  2   force =     0.00000000    0.00000000    0.00000000
     The SCF correction term to forces
     atom    1 type  2   force =     0.00017375   -0.00011395    0.00002656
     atom    2 type  1   force =    -0.00003229    0.00004583   -0.00000077
     atom    3 type  1   force =    -0.00005447    0.00007128    0.00000983
     atom    4 type  3   force =     0.00000820    0.00001043    0.00000671
     atom    5 type  1   force =    -0.00009684   -0.00003366   -0.00005261
     atom    6 type  3   force =    -0.00000693   -0.00001229   -0.00000494
     atom    7 type  3   force =    -0.00001393    0.00000470   -0.00000827
     atom    8 type  1   force =    -0.00009916   -0.00004061   -0.00002117
     atom    9 type  3   force =     0.00000827   -0.00001223    0.00000440
     atom   10 type  1   force =    -0.00005610   -0.00004486   -0.00001257
     atom   11 type  1   force =    -0.00004435    0.00003054   -0.00003104
     atom   12 type  2   force =    -0.00003076    0.00006786   -0.00000155
     atom   13 type  3   force =    -0.00000444   -0.00000494   -0.00000533
     atom   14 type  1   force =    -0.00006021    0.00005311   -0.00001964
     atom   15 type  3   force =     0.00000936    0.00001325    0.00000801
     atom   16 type  1   force =     0.00002037    0.00012167    0.00006005
     atom   17 type  1   force =     0.00000716   -0.00000288    0.00000838
     atom   18 type  2   force =     0.00017688   -0.00011258    0.00006330
     atom   19 type  3   force =    -0.00001423    0.00000365   -0.00000594
     atom   20 type  1   force =    -0.00012421   -0.00001351   -0.00003315
     atom   21 type  3   force =     0.00001791   -0.00001269    0.00000807
     atom   22 type  1   force =    -0.00007396   -0.00001653   -0.00001949
     atom   23 type  1   force =    -0.00004496    0.00003586   -0.00003366
     atom   24 type  2   force =     0.00006893    0.00008969   -0.00001822

     Total force =     0.182019     Total SCF correction =     0.000460

     Writing output data file scf-1409.save
 writing file ./scratch/scf-1409.save/charge-density
 writing file ./scratch/scf-1409.save/charge-density
 writing file ./scratch/scf-1409.save/charge-density
 writing file ./scratch/scf-1409.save/charge-density
 writing file ./scratch/scf-1409.save/charge-density
 writing file ./scratch/scf-1409.save/charge-density
 writing file ./scratch/scf-1409.save/charge-density
 writing file ./scratch/scf-1409.save/charge-density
 writing file ./scratch/scf-1409.save/charge-density
 writing file ./scratch/scf-1409.save/charge-density
 writing file ./scratch/scf-1409.save/charge-density
 writing file ./scratch/scf-1409.save/charge-density
 writing file ./scratch/scf-1409.save/charge-density
 writing file ./scratch/scf-1409.save/charge-density
 writing file ./scratch/scf-1409.save/charge-density
 writing file ./scratch/scf-1409.save/charge-density
 writing file ./scratch/scf-1409.save/charge-density
 writing file ./scratch/scf-1409.save/charge-density
 writing file ./scratch/scf-1409.save/charge-density
 writing file ./scratch/scf-1409.save/charge-density
 writing file ./scratch/scf-1409.save/charge-density
 writing file ./scratch/scf-1409.save/charge-density
 writing file ./scratch/scf-1409.save/charge-density
 writing file ./scratch/scf-1409.save/charge-density
 writing file ./scratch/scf-1409.save/charge-density
 writing file ./scratch/scf-1409.save/charge-density
 writing file ./scratch/scf-1409.save/charge-density
 writing file ./scratch/scf-1409.save/charge-density
 writing file ./scratch/scf-1409.save/charge-density
 writing file ./scratch/scf-1409.save/charge-density
 writing file ./scratch/scf-1409.save/charge-density
 writing file ./scratch/scf-1409.save/charge-density
 
     init_run     :      4.41s CPU      4.60s WALL (       1 calls)
     electrons    :     50.42s CPU     53.44s WALL (       1 calls)
     forces       :      2.34s CPU      2.47s WALL (       1 calls)

     Called by init_run:
     wfcinit      :      1.62s CPU      1.64s WALL (       1 calls)
     wfcinit:atom :      0.01s CPU      0.02s WALL (      16 calls)
     wfcinit:wfcr :      1.50s CPU      1.52s WALL (      16 calls)
     potinit      :      0.89s CPU      0.91s WALL (       1 calls)

     Called by electrons:
     c_bands      :     39.33s CPU     39.83s WALL (      11 calls)
     sum_band     :      6.98s CPU      8.14s WALL (      11 calls)
     v_of_rho     :      0.94s CPU      0.97s WALL (      12 calls)
     v_h          :      0.06s CPU      0.06s WALL (      12 calls)
     v_xc         :      0.96s CPU      0.99s WALL (      13 calls)
     newd         :      1.52s CPU      2.87s WALL (      12 calls)
     PAW_pot      :      1.63s CPU      1.70s WALL (      12 calls)
     mix_rho      :      0.14s CPU      0.14s WALL (      11 calls)

     Called by c_bands:
     init_us_2    :      0.80s CPU      0.87s WALL (     384 calls)
     cegterg      :     37.06s CPU     37.27s WALL (     176 calls)

     Called by sum_band:
     sum_band:bec :      0.02s CPU      0.02s WALL (     176 calls)
     addusdens    :      1.58s CPU      2.69s WALL (      11 calls)

     Called by *egterg:
     h_psi        :     27.70s CPU     27.83s WALL (     866 calls)
     s_psi        :      2.08s CPU      2.01s WALL (     866 calls)
     g_psi        :      0.12s CPU      0.16s WALL (     674 calls)
     cdiaghg      :      3.52s CPU      3.48s WALL (     850 calls)
     cegterg:over :      1.62s CPU      1.68s WALL (     674 calls)
     cegterg:upda :      1.15s CPU      1.27s WALL (     674 calls)
     cegterg:last :      0.47s CPU      0.43s WALL (     192 calls)

     Called by h_psi:
     h_psi:pot    :     27.42s CPU     27.57s WALL (     866 calls)
     h_psi:calbec :      2.16s CPU      2.27s WALL (     866 calls)
     vloc_psi     :     23.30s CPU     23.32s WALL (     866 calls)
     add_vuspsi   :      1.96s CPU      1.96s WALL (     866 calls)

     General routines
     calbec       :      2.88s CPU      3.02s WALL (    1106 calls)
     fft          :      0.79s CPU      0.80s WALL (     199 calls)
     ffts         :      0.02s CPU      0.03s WALL (      23 calls)
     fftw         :     22.38s CPU     22.59s WALL (   55578 calls)
     interpolate  :      0.14s CPU      0.15s WALL (      23 calls)
     davcio       :      0.00s CPU      0.01s WALL (      16 calls)
 
     Parallel routines
     fft_scatter  :      8.43s CPU      8.77s WALL (   55800 calls)

     PAW routines
     PAW_pot      :      1.63s CPU      1.70s WALL (      12 calls)
 
     PWSCF        :  0m57.85s CPU     1m 1.74s WALL

 
   This run was terminated on:  15:38:15  22May2017            

=------------------------------------------------------------------------------=
   JOB DONE.
=------------------------------------------------------------------------------=
