
     Program PWSCF v.6.1 starts on 20May2017 at 13: 0:38 

     This program is part of the open-source Quantum ESPRESSO suite
     for quantum simulation of materials; please cite
         "P. Giannozzi et al., J. Phys.:Condens. Matter 21 395502 (2009);
          URL http://www.quantum-espresso.org", 
     in publications or presentations arising from this work. More details at
     http://www.quantum-espresso.org/quote

     Parallel version (MPI & OpenMP), running on      32 processor cores
     Number of MPI processes:                32
     Threads/MPI process:                     1
     R & G space division:  proc/nbgrp/npool/nimage =      32
     Waiting for input...
     Reading input from standard input
Warning: card &IONS ignored
Warning: card     ION_TEMPERATURE   = 'INITIAL' ignored
Warning: card     TEMPW             = 586.D0 ignored
Warning: card     TOLP              = 100.D0 ignored
Warning: card     DELTA_T           = 1.D0 ignored
Warning: card     NRAISE            = 1 ignored
Warning: card / ignored
Warning: card &CELL ignored
Warning: card     CELL_DYNAMICS     = 'BFGS' ignored
Warning: card / ignored

     Current dimensions of program PWSCF are:
     Max number of different atomic species (ntypx) = 10
     Max number of k-points (npk) =  40000
     Max angular momentum in pseudopotentials (lmaxx) =  3
               file C.pbe-n-kjpaw_psl.1.0.0.UPF: wavefunction(s)  2S 2P renormalized
               file Cl.pbe-n-kjpaw_psl.1.0.0.UPF: wavefunction(s)  3S 3P renormalized
               file H.pbe-kjpaw_psl.1.0.0.UPF: wavefunction(s)  1S renormalized

     Subspace diagonalization in iterative solution of the eigenvalue problem:
     a serial algorithm will be used

 
     Parallelization info
     --------------------
     sticks:   dense  smooth     PW     G-vecs:    dense   smooth      PW
     Min         764     305     83                36108     9133    1292
     Max         765     306     84                36110     9135    1293
     Sum       24467    9791   2657              1155489   292295   41363
 


     bravais-lattice index     =            0
     lattice parameter (alat)  =       1.8897  a.u.
     unit-cell volume          =    2163.5316 (a.u.)^3
     number of atoms/cell      =           24
     number of atomic types    =            3
     number of electrons       =        84.00
     number of Kohn-Sham states=           42
     kinetic-energy cutoff     =     100.0000  Ry
     charge density cutoff     =    1000.0000  Ry
     convergence threshold     =      1.0E-07
     mixing beta               =       0.7000
     number of iterations used =            8  plain     mixing
     Exchange-correlation      =  SLA  PW   PBX  PBC ( 1  4  3  4 0 0)

     celldm(1)=   1.889726  celldm(2)=   0.000000  celldm(3)=   0.000000
     celldm(4)=   0.000000  celldm(5)=   0.000000  celldm(6)=   0.000000

     crystal axes: (cart. coord. in units of alat)
               a(1) = (  14.762000   0.000000   0.000000 )  
               a(2) = (   0.000000   5.832000   0.000000 )  
               a(3) = (  -1.563876   0.000000   3.723951 )  

     reciprocal axes: (cart. coord. in units 2 pi/alat)
               b(1) = (  0.067741  0.000000  0.028448 )  
               b(2) = (  0.000000  0.171468  0.000000 )  
               b(3) = (  0.000000  0.000000  0.268532 )  


     PseudoPot. # 1 for  C read from file:
     /global/cscratch1/sd/almno10/.data/PSEUDOPOTENTIALS/C.pbe-n-kjpaw_psl.1.0.0.UPF
     MD5 check sum: 2ba8448e293caca687844dde9a1b88a8
     Pseudo is Projector augmented-wave + core cor, Zval =  4.0
     Generated using "atomic" code by A. Dal Corso  v.5.3.0 svn rev. 11974
     Shape of augmentation charge: PSQ
     Using radial grid of 1073 points,  4 beta functions with: 
                l(1) =   0
                l(2) =   0
                l(3) =   1
                l(4) =   1
     Q(r) pseudized with 0 coefficients 


     PseudoPot. # 2 for Cl read from file:
     /global/cscratch1/sd/almno10/.data/PSEUDOPOTENTIALS/Cl.pbe-n-kjpaw_psl.1.0.0.UPF
     MD5 check sum: dca63699d6b897c5771335df08a09219
     Pseudo is Projector augmented-wave + core cor, Zval =  7.0
     Generated using "atomic" code by A. Dal Corso  v.5.3.0 svn rev. 11974
     Shape of augmentation charge: PSQ
     Using radial grid of 1157 points,  6 beta functions with: 
                l(1) =   0
                l(2) =   0
                l(3) =   1
                l(4) =   1
                l(5) =   2
                l(6) =   2
     Q(r) pseudized with 0 coefficients 


     PseudoPot. # 3 for  H read from file:
     /global/cscratch1/sd/almno10/.data/PSEUDOPOTENTIALS/H.pbe-kjpaw_psl.1.0.0.UPF
     MD5 check sum: bc0feb48a24907a0b97fa6ee2d589a29
     Pseudo is Projector augmented-wave, Zval =  1.0
     Generated using "atomic" code by A. Dal Corso  v.5.3.0 svn rev. 11974
     Shape of augmentation charge: PSQ
     Using radial grid of  929 points,  2 beta functions with: 
                l(1) =   0
                l(2) =   0
     Q(r) pseudized with 0 coefficients 


     atomic species   valence    mass     pseudopotential
        C              4.00    12.01100      C( 1.00)
        Cl             7.00    35.45270     Cl( 1.00)
        H              1.00     1.00790      H( 1.00)

     No symmetry found


                                    s                        frac. trans.

      isym =  1     identity                                     

 cryst.   s( 1) = (     1          0          0      )
                  (     0          1          0      )
                  (     0          0          1      )

 cart.    s( 1) = (  1.0000000  0.0000000 -0.0000000 )
                  (  0.0000000  1.0000000  0.0000000 )
                  (  0.0000000  0.0000000  1.0000000 )


   Cartesian axes

     site n.     atom                  positions (alat units)
         1           Cl  tau(   1) = (  16.5118164   1.1922109   2.1386353  )
         2           C   tau(   2) = (  15.1224769   2.1220518   1.9845967  )
         3           C   tau(   3) = (  15.1801107   3.3310010   2.6766862  )
         4           H   tau(   4) = (  16.0172108   3.4790963   3.3571216  )
         5           C   tau(   5) = (  14.1049695   4.2181691   2.6907977  )
         6           H   tau(   6) = (  14.1796875   5.1514998   3.2455856  )
         7           H   tau(   7) = (   6.1303718   2.0663755   0.7871954  )
         8           C   tau(   8) = (   6.2976624   1.0890468   1.2365551  )
         9           H   tau(   9) = (   4.2799018   0.4154785   0.8807516  )
        10           C   tau(  10) = (   5.2592065   0.1592581   1.2835634  )
        11           C   tau(  11) = (   5.4645276  -1.0981431   1.8501837  )
        12           Cl  tau(  12) = (   4.0219094  -2.0467404   2.0624428  )
        13           H   tau(  13) = (  13.9817296   0.8794948   0.6023173  )
        14           C   tau(  14) = (  14.0240739   1.7943622   1.1905942  )
        15           H   tau(  15) = (  12.1538412   2.5525653   0.4320710  )
        16           C   tau(  16) = (  13.0278026   2.7602342   1.0457838  )
        17           C   tau(  17) = (  13.0682870   3.9593343   1.7954299  )
        18           Cl  tau(  18) = (  11.6395575   5.0821272   1.7023761  )
        19           H   tau(  19) = (   6.8813178  -2.4502626   2.7961965  )
        20           C   tau(  20) = (   6.7086686  -1.4677142   2.3602873  )
        21           H   tau(  21) = (   8.7287924  -0.7984945   2.6993219  )
        22           C   tau(  22) = (   7.7479359  -0.5406670   2.3047665  )
        23           C   tau(  23) = (   7.5377884   0.7232751   1.7557806  )
        24           Cl  tau(  24) = (   8.9606355   1.7659009   1.6043044  )

   Crystallographic axes

     site n.     atom                  positions (cryst. coord.)
         1           Cl  tau(   1) = (  1.1793753  0.2044257  0.5742920  )
         2           C   tau(   2) = (  1.0808772  0.3638635  0.5329277  )
         3           C   tau(   3) = (  1.1044700  0.5711593  0.7187758  )
         4           H   tau(   4) = (  1.1805335  0.5965529  0.9014945  )
         5           C   tau(   5) = (  1.0320398  0.7232800  0.7225652  )
         6           H   tau(   6) = (  1.0528840  0.8833161  0.8715435  )
         7           H   tau(   7) = (  0.4376748  0.3543168  0.2113871  )
         8           C   tau(   8) = (  0.4617907  0.1867364  0.3320546  )
         9           H   tau(   9) = (  0.3149827  0.0712412  0.2365100  )
        10           C   tau(  10) = (  0.3927814  0.0273076  0.3446778  )
        11           C   tau(  11) = (  0.4228095 -0.1882961  0.4968335  )
        12           Cl  tau(  12) = (  0.3311227 -0.3509500  0.5538318  )
        13           H   tau(  13) = (  0.9642781  0.1508050  0.1617414  )
        14           C   tau(  14) = (  0.9838819  0.3076753  0.3197126  )
        15           H   tau(  15) = (  0.8356110  0.4376827  0.1160249  )
        16           C   tau(  16) = (  0.9122734  0.4732912  0.2808264  )
        17           C   tau(  17) = (  0.9363419  0.6788982  0.4821303  )
        18           Cl  tau(  18) = (  0.8369104  0.8714210  0.4571424  )
        19           H   tau(  19) = (  0.5456972 -0.4201410  0.7508681  )
        20           C   tau(  20) = (  0.5216009 -0.2516657  0.6338126  )
        21           H   tau(  21) = (  0.6680920 -0.1369161  0.7248542  )
        22           C   tau(  22) = (  0.5904230 -0.0927070  0.6189035  )
        23           C   tau(  23) = (  0.5605697  0.1240184  0.4714832  )
        24           Cl  tau(  24) = (  0.6526463  0.3027951  0.4308070  )

     number of k points=    16
                       cart. coord. in units 2pi/alat
        k(    1) = (   0.0169354   0.0214335   0.0406785), wk =   0.1250000
        k(    2) = (   0.0169354   0.0214335   0.1078115), wk =   0.1250000
        k(    3) = (   0.0169354   0.0214335  -0.0935875), wk =   0.1250000
        k(    4) = (   0.0169354   0.0214335  -0.0264545), wk =   0.1250000
        k(    5) = (   0.0169354   0.0643004   0.0406785), wk =   0.1250000
        k(    6) = (   0.0169354   0.0643004   0.1078115), wk =   0.1250000
        k(    7) = (   0.0169354   0.0643004  -0.0935875), wk =   0.1250000
        k(    8) = (   0.0169354   0.0643004  -0.0264545), wk =   0.1250000
        k(    9) = (  -0.0169354   0.0214335  -0.0406785), wk =   0.1250000
        k(   10) = (  -0.0169354   0.0214335  -0.1078115), wk =   0.1250000
        k(   11) = (  -0.0169354   0.0214335   0.0935875), wk =   0.1250000
        k(   12) = (  -0.0169354   0.0214335   0.0264545), wk =   0.1250000
        k(   13) = (  -0.0169354   0.0643004  -0.0406785), wk =   0.1250000
        k(   14) = (  -0.0169354   0.0643004  -0.1078115), wk =   0.1250000
        k(   15) = (  -0.0169354   0.0643004   0.0935875), wk =   0.1250000
        k(   16) = (  -0.0169354   0.0643004   0.0264545), wk =   0.1250000

                       cryst. coord.
        k(    1) = (   0.2500000   0.1250000   0.1250000), wk =   0.1250000
        k(    2) = (   0.2500000   0.1250000   0.3750000), wk =   0.1250000
        k(    3) = (   0.2500000   0.1250000  -0.3750000), wk =   0.1250000
        k(    4) = (   0.2500000   0.1250000  -0.1250000), wk =   0.1250000
        k(    5) = (   0.2500000   0.3750000   0.1250000), wk =   0.1250000
        k(    6) = (   0.2500000   0.3750000   0.3750000), wk =   0.1250000
        k(    7) = (   0.2500000   0.3750000  -0.3750000), wk =   0.1250000
        k(    8) = (   0.2500000   0.3750000  -0.1250000), wk =   0.1250000
        k(    9) = (  -0.2500000   0.1250000  -0.1250000), wk =   0.1250000
        k(   10) = (  -0.2500000   0.1250000  -0.3750000), wk =   0.1250000
        k(   11) = (  -0.2500000   0.1250000   0.3750000), wk =   0.1250000
        k(   12) = (  -0.2500000   0.1250000   0.1250000), wk =   0.1250000
        k(   13) = (  -0.2500000   0.3750000  -0.1250000), wk =   0.1250000
        k(   14) = (  -0.2500000   0.3750000  -0.3750000), wk =   0.1250000
        k(   15) = (  -0.2500000   0.3750000   0.3750000), wk =   0.1250000
        k(   16) = (  -0.2500000   0.3750000   0.1250000), wk =   0.1250000

     Dense  grid:  1155489 G-vectors     FFT dimensions: ( 288, 120,  80)

     Smooth grid:   292295 G-vectors     FFT dimensions: ( 180,  72,  50)

     Estimated max dynamical RAM per process >     147.21MB

     Estimated total allocated dynamical RAM >    4710.62MB

     Initial potential from superposition of free atoms

     starting charge   83.99939, renormalised to   84.00000
     Starting wfc are   72 randomized atomic wfcs
     Checking if some PAW data can be deallocated... 
       node    0, deallocated PAW data for type:  1
       node    0, deallocated PAW data for type:  3
       node    1, deallocated PAW data for type:  1
       node    1, deallocated PAW data for type:  3
       node    2, deallocated PAW data for type:  2
       node    2, deallocated PAW data for type:  3
       node    3, deallocated PAW data for type:  2
       node    3, deallocated PAW data for type:  3
       node    4, deallocated PAW data for type:  2
       node    4, deallocated PAW data for type:  3
       node    5, deallocated PAW data for type:  2
       node    5, deallocated PAW data for type:  3
       node    6, deallocated PAW data for type:  1
       node    6, deallocated PAW data for type:  2
       node    7, deallocated PAW data for type:  1
       node    7, deallocated PAW data for type:  2
       node    8, deallocated PAW data for type:  2
       node    8, deallocated PAW data for type:  3
       node    9, deallocated PAW data for type:  2
       node    9, deallocated PAW data for type:  3
       node   10, deallocated PAW data for type:  1
       node   10, deallocated PAW data for type:  2
       node   11, deallocated PAW data for type:  1
       node   11, deallocated PAW data for type:  2
       node   12, deallocated PAW data for type:  1
       node   12, deallocated PAW data for type:  2
       node   13, deallocated PAW data for type:  1
       node   13, deallocated PAW data for type:  2
       node   14, deallocated PAW data for type:  2
       node   14, deallocated PAW data for type:  3
       node   15, deallocated PAW data for type:  2
       node   15, deallocated PAW data for type:  3
       node   16, deallocated PAW data for type:  1
       node   16, deallocated PAW data for type:  2
       node   17, deallocated PAW data for type:  2
       node   17, deallocated PAW data for type:  3
       node   18, deallocated PAW data for type:  2
       node   18, deallocated PAW data for type:  3
       node   19, deallocated PAW data for type:  1
       node   19, deallocated PAW data for type:  3
       node   20, deallocated PAW data for type:  1
       node   20, deallocated PAW data for type:  2
       node   21, deallocated PAW data for type:  2
       node   21, deallocated PAW data for type:  3
       node   22, deallocated PAW data for type:  1
       node   22, deallocated PAW data for type:  2
       node   23, deallocated PAW data for type:  2
       node   23, deallocated PAW data for type:  3
       node   24, deallocated PAW data for type:  2
       node   24, deallocated PAW data for type:  3
       node   25, deallocated PAW data for type:  1
       node   25, deallocated PAW data for type:  3
       node   26, deallocated PAW data for type:  1
       node   26, deallocated PAW data for type:  2
       node   27, deallocated PAW data for type:  2
       node   27, deallocated PAW data for type:  3
       node   28, deallocated PAW data for type:  1
       node   28, deallocated PAW data for type:  2
       node   29, deallocated PAW data for type:  2
       node   29, deallocated PAW data for type:  3
       node   30, deallocated PAW data for type:  2
       node   30, deallocated PAW data for type:  3
       node   31, deallocated PAW data for type:  1
       node   31, deallocated PAW data for type:  3

     total cpu time spent up to now is        5.3 secs

     per-process dynamical memory:    20.7 Mb

     Self-consistent Calculation

     iteration #  1     ecut=   100.00 Ry     beta= 0.70
     Davidson diagonalization with overlap
     ethr =  1.00E-04,  avg # of iterations =  5.0

     total cpu time spent up to now is       12.0 secs

     total energy              =    -547.12899452 Ry
     Harris-Foulkes estimate   =    -548.98466803 Ry
     estimated scf accuracy    <       2.71654691 Ry

     iteration #  2     ecut=   100.00 Ry     beta= 0.70
     Davidson diagonalization with overlap
     ethr =  3.23E-03,  avg # of iterations =  3.0

     total cpu time spent up to now is       16.9 secs

     total energy              =    -547.53001294 Ry
     Harris-Foulkes estimate   =    -548.60151875 Ry
     estimated scf accuracy    <       1.93527612 Ry

     iteration #  3     ecut=   100.00 Ry     beta= 0.70
     Davidson diagonalization with overlap
     ethr =  2.30E-03,  avg # of iterations =  3.0

     total cpu time spent up to now is       21.3 secs

     total energy              =    -548.01068122 Ry
     Harris-Foulkes estimate   =    -548.05146341 Ry
     estimated scf accuracy    <       0.08195621 Ry

     iteration #  4     ecut=   100.00 Ry     beta= 0.70
     Davidson diagonalization with overlap
     ethr =  9.76E-05,  avg # of iterations =  3.9

     total cpu time spent up to now is       26.1 secs

     total energy              =    -548.03723755 Ry
     Harris-Foulkes estimate   =    -548.04835345 Ry
     estimated scf accuracy    <       0.02222107 Ry

     iteration #  5     ecut=   100.00 Ry     beta= 0.70
     Davidson diagonalization with overlap
     ethr =  2.65E-05,  avg # of iterations =  3.0

     total cpu time spent up to now is       30.5 secs

     total energy              =    -548.04173304 Ry
     Harris-Foulkes estimate   =    -548.04228767 Ry
     estimated scf accuracy    <       0.00111242 Ry

     iteration #  6     ecut=   100.00 Ry     beta= 0.70
     Davidson diagonalization with overlap
     ethr =  1.32E-06,  avg # of iterations =  4.0

     total cpu time spent up to now is       35.4 secs

     total energy              =    -548.04196664 Ry
     Harris-Foulkes estimate   =    -548.04225849 Ry
     estimated scf accuracy    <       0.00063896 Ry

     iteration #  7     ecut=   100.00 Ry     beta= 0.70
     Davidson diagonalization with overlap
     ethr =  7.61E-07,  avg # of iterations =  4.0

     total cpu time spent up to now is       39.9 secs

     total energy              =    -548.04210450 Ry
     Harris-Foulkes estimate   =    -548.04216524 Ry
     estimated scf accuracy    <       0.00015999 Ry

     iteration #  8     ecut=   100.00 Ry     beta= 0.70
     Davidson diagonalization with overlap
     ethr =  1.90E-07,  avg # of iterations =  4.0

     total cpu time spent up to now is       44.2 secs

     total energy              =    -548.04213432 Ry
     Harris-Foulkes estimate   =    -548.04214532 Ry
     estimated scf accuracy    <       0.00002604 Ry

     iteration #  9     ecut=   100.00 Ry     beta= 0.70
     Davidson diagonalization with overlap
     ethr =  3.10E-08,  avg # of iterations =  4.0

     total cpu time spent up to now is       48.7 secs

     total energy              =    -548.04213995 Ry
     Harris-Foulkes estimate   =    -548.04214101 Ry
     estimated scf accuracy    <       0.00000236 Ry

     iteration # 10     ecut=   100.00 Ry     beta= 0.70
     Davidson diagonalization with overlap
     ethr =  2.81E-09,  avg # of iterations =  4.0

     total cpu time spent up to now is       53.3 secs

     total energy              =    -548.04214055 Ry
     Harris-Foulkes estimate   =    -548.04214083 Ry
     estimated scf accuracy    <       0.00000060 Ry

     iteration # 11     ecut=   100.00 Ry     beta= 0.70
     Davidson diagonalization with overlap
     ethr =  7.17E-10,  avg # of iterations =  3.8

     total cpu time spent up to now is       57.8 secs

     End of self-consistent calculation

          k = 0.0169 0.0214 0.0407 ( 36525 PWs)   bands (ev):

   -16.2970 -16.0146 -15.3105 -15.2468 -13.9041 -13.8733 -12.3742 -12.2930
   -11.2360 -11.2159  -8.9943  -8.9849  -8.2509  -8.1399  -6.3853  -6.2671
    -5.3361  -5.3080  -5.0681  -4.7910  -4.2810  -4.1217  -3.9755  -3.8527
    -3.2951  -3.1267  -2.7336  -2.5980  -2.4229  -2.2540  -2.1745  -2.0894
    -1.2582  -1.1326  -1.0119  -0.9476  -0.8691  -0.7730  -0.1093   0.0950
     0.6034   0.7835

     occupation numbers 
     1.0000   1.0000   1.0000   1.0000   1.0000   1.0000   1.0000   1.0000
     1.0000   1.0000   1.0000   1.0000   1.0000   1.0000   1.0000   1.0000
     1.0000   1.0000   1.0000   1.0000   1.0000   1.0000   1.0000   1.0000
     1.0000   1.0000   1.0000   1.0000   1.0000   1.0000   1.0000   1.0000
     1.0000   1.0000   1.0000   1.0000   1.0000   1.0000   1.0000   1.0000
     1.0000   1.0000

          k = 0.0169 0.0214 0.1078 ( 36561 PWs)   bands (ev):

   -16.2322 -15.9368 -15.2584 -15.1933 -13.8925 -13.8480 -12.3803 -12.2566
   -11.2414 -11.1972  -8.9634  -8.9458  -8.1947  -8.1344  -6.3777  -6.3138
    -5.3265  -5.2940  -5.0812  -4.8993  -4.4001  -4.1882  -4.0518  -3.9255
    -3.7854  -3.6469  -2.8361  -2.7208  -2.6409  -2.4118  -2.3236  -2.2403
    -1.3377  -1.1807  -1.1400  -1.0025  -0.8964  -0.8215  -0.2854  -0.1665
     0.5900   0.7981

     occupation numbers 
     1.0000   1.0000   1.0000   1.0000   1.0000   1.0000   1.0000   1.0000
     1.0000   1.0000   1.0000   1.0000   1.0000   1.0000   1.0000   1.0000
     1.0000   1.0000   1.0000   1.0000   1.0000   1.0000   1.0000   1.0000
     1.0000   1.0000   1.0000   1.0000   1.0000   1.0000   1.0000   1.0000
     1.0000   1.0000   1.0000   1.0000   1.0000   1.0000   1.0000   1.0000
     1.0000   1.0000

          k = 0.0169 0.0214-0.0936 ( 36547 PWs)   bands (ev):

   -16.2340 -15.9319 -15.2649 -15.1905 -13.8897 -13.8539 -12.3731 -12.2600
   -11.2265 -11.2044  -8.9880  -8.9312  -8.2146  -8.1092  -6.4014  -6.3317
    -5.3366  -5.2869  -5.0684  -4.8845  -4.3374  -4.1716  -4.0845  -3.9521
    -3.7512  -3.6627  -2.7792  -2.7182  -2.6500  -2.4072  -2.3663  -2.3136
    -1.2925  -1.2065  -1.1274  -1.0224  -0.8961  -0.8062  -0.2369  -0.1890
     0.5989   0.7851

     occupation numbers 
     1.0000   1.0000   1.0000   1.0000   1.0000   1.0000   1.0000   1.0000
     1.0000   1.0000   1.0000   1.0000   1.0000   1.0000   1.0000   1.0000
     1.0000   1.0000   1.0000   1.0000   1.0000   1.0000   1.0000   1.0000
     1.0000   1.0000   1.0000   1.0000   1.0000   1.0000   1.0000   1.0000
     1.0000   1.0000   1.0000   1.0000   1.0000   1.0000   1.0000   1.0000
     1.0000   1.0000

          k = 0.0169 0.0214-0.0265 ( 36551 PWs)   bands (ev):

   -16.2988 -16.0099 -15.3176 -15.2433 -13.8955 -13.8846 -12.3676 -12.2963
   -11.2440 -11.1997  -9.0194  -8.9725  -8.2805  -8.0978  -6.4389  -6.2507
    -5.3483  -5.3038  -5.1174  -4.7183  -4.2360  -4.1389  -3.9305  -3.8337
    -3.2927  -3.1392  -2.8100  -2.6216  -2.3446  -2.3204  -2.1948  -2.0767
    -1.2251  -1.0987  -1.0488  -0.9656  -0.8858  -0.7436  -0.1224   0.1352
     0.6014   0.7786

     occupation numbers 
     1.0000   1.0000   1.0000   1.0000   1.0000   1.0000   1.0000   1.0000
     1.0000   1.0000   1.0000   1.0000   1.0000   1.0000   1.0000   1.0000
     1.0000   1.0000   1.0000   1.0000   1.0000   1.0000   1.0000   1.0000
     1.0000   1.0000   1.0000   1.0000   1.0000   1.0000   1.0000   1.0000
     1.0000   1.0000   1.0000   1.0000   1.0000   1.0000   1.0000   1.0000
     1.0000   1.0000

          k = 0.0169 0.0643 0.0407 ( 36518 PWs)   bands (ev):

   -16.2743 -15.9745 -15.3221 -15.2484 -13.9426 -13.9217 -12.4109 -12.3594
   -11.2454 -11.2254  -8.8879  -8.8293  -8.1562  -8.0886  -6.3680  -6.2582
    -5.2951  -5.2401  -5.1143  -4.9542  -4.4513  -4.3077  -3.9955  -3.9064
    -3.3679  -3.1706  -2.6930  -2.5602  -2.4423  -2.3951  -2.1611  -2.0326
    -1.0708  -1.0017  -0.9072  -0.8698  -0.8269  -0.7911  -0.0641   0.1583
     0.6419   0.8007

     occupation numbers 
     1.0000   1.0000   1.0000   1.0000   1.0000   1.0000   1.0000   1.0000
     1.0000   1.0000   1.0000   1.0000   1.0000   1.0000   1.0000   1.0000
     1.0000   1.0000   1.0000   1.0000   1.0000   1.0000   1.0000   1.0000
     1.0000   1.0000   1.0000   1.0000   1.0000   1.0000   1.0000   1.0000
     1.0000   1.0000   1.0000   1.0000   1.0000   1.0000   1.0000   1.0000
     1.0000   1.0000

          k = 0.0169 0.0643 0.1078 ( 36558 PWs)   bands (ev):

   -16.2163 -15.9064 -15.2643 -15.1910 -13.9114 -13.8872 -12.3976 -12.3114
   -11.2588 -11.2207  -8.9191  -8.8335  -8.1715  -8.1218  -6.3557  -6.2428
    -5.3150  -5.2501  -5.0042  -4.8730  -4.3766  -4.3135  -4.1071  -3.9806
    -3.9017  -3.7749  -2.7380  -2.7120  -2.5981  -2.5403  -2.4097  -2.2053
    -1.2919  -1.1444  -1.1006  -1.0302  -0.8971  -0.8367  -0.1090  -0.0338
     0.6105   0.8043

     occupation numbers 
     1.0000   1.0000   1.0000   1.0000   1.0000   1.0000   1.0000   1.0000
     1.0000   1.0000   1.0000   1.0000   1.0000   1.0000   1.0000   1.0000
     1.0000   1.0000   1.0000   1.0000   1.0000   1.0000   1.0000   1.0000
     1.0000   1.0000   1.0000   1.0000   1.0000   1.0000   1.0000   1.0000
     1.0000   1.0000   1.0000   1.0000   1.0000   1.0000   1.0000   1.0000
     1.0000   1.0000

          k = 0.0169 0.0643-0.0936 ( 36547 PWs)   bands (ev):

   -16.2181 -15.9014 -15.2689 -15.1903 -13.9158 -13.8857 -12.3906 -12.3142
   -11.2527 -11.2204  -8.9494  -8.8118  -8.1890  -8.0975  -6.3708  -6.2743
    -5.3269  -5.2604  -4.9694  -4.8749  -4.3269  -4.2623  -4.1299  -4.0164
    -3.8616  -3.7635  -2.8022  -2.7127  -2.6341  -2.5742  -2.2998  -2.2584
    -1.2348  -1.1476  -1.1068  -1.0717  -0.9011  -0.8323  -0.0752  -0.0523
     0.6217   0.7972

     occupation numbers 
     1.0000   1.0000   1.0000   1.0000   1.0000   1.0000   1.0000   1.0000
     1.0000   1.0000   1.0000   1.0000   1.0000   1.0000   1.0000   1.0000
     1.0000   1.0000   1.0000   1.0000   1.0000   1.0000   1.0000   1.0000
     1.0000   1.0000   1.0000   1.0000   1.0000   1.0000   1.0000   1.0000
     1.0000   1.0000   1.0000   1.0000   1.0000   1.0000   1.0000   1.0000
     1.0000   1.0000

          k = 0.0169 0.0643-0.0265 ( 36489 PWs)   bands (ev):

   -16.2760 -15.9699 -15.3263 -15.2477 -13.9426 -13.9248 -12.4037 -12.3614
   -11.2509 -11.2157  -8.9158  -8.8088  -8.1695  -8.0645  -6.4091  -6.2849
    -5.2957  -5.2606  -5.0554  -4.9335  -4.3975  -4.2335  -4.0602  -3.9639
    -3.3398  -3.2015  -2.6791  -2.5296  -2.4751  -2.3857  -2.1594  -2.0667
    -1.0971  -0.9937  -0.9101  -0.8797  -0.8226  -0.7588  -0.0720   0.1961
     0.6365   0.7956

     occupation numbers 
     1.0000   1.0000   1.0000   1.0000   1.0000   1.0000   1.0000   1.0000
     1.0000   1.0000   1.0000   1.0000   1.0000   1.0000   1.0000   1.0000
     1.0000   1.0000   1.0000   1.0000   1.0000   1.0000   1.0000   1.0000
     1.0000   1.0000   1.0000   1.0000   1.0000   1.0000   1.0000   1.0000
     1.0000   1.0000   1.0000   1.0000   1.0000   1.0000   1.0000   1.0000
     1.0000   1.0000

          k =-0.0169 0.0214-0.0407 ( 36525 PWs)   bands (ev):

   -16.2985 -16.0108 -15.3130 -15.2471 -13.9064 -13.8742 -12.3673 -12.2953
   -11.2417 -11.2041  -9.0197  -8.9684  -8.2460  -8.1410  -6.3990  -6.2959
    -5.3484  -5.2971  -5.0229  -4.8138  -4.2044  -4.1223  -3.9847  -3.8749
    -3.2692  -3.1362  -2.7298  -2.6445  -2.3717  -2.3387  -2.1604  -2.0766
    -1.2655  -1.1311  -1.0227  -0.9440  -0.8489  -0.7769  -0.1199   0.1377
     0.5934   0.7820

     occupation numbers 
     1.0000   1.0000   1.0000   1.0000   1.0000   1.0000   1.0000   1.0000
     1.0000   1.0000   1.0000   1.0000   1.0000   1.0000   1.0000   1.0000
     1.0000   1.0000   1.0000   1.0000   1.0000   1.0000   1.0000   1.0000
     1.0000   1.0000   1.0000   1.0000   1.0000   1.0000   1.0000   1.0000
     1.0000   1.0000   1.0000   1.0000   1.0000   1.0000   1.0000   1.0000
     1.0000   1.0000

          k =-0.0169 0.0214-0.1078 ( 36561 PWs)   bands (ev):

   -16.2339 -15.9322 -15.2618 -15.1934 -13.8961 -13.8474 -12.3731 -12.2599
   -11.2388 -11.1925  -8.9884  -8.9303  -8.2100  -8.1147  -6.4086  -6.3240
    -5.3395  -5.2815  -5.0088  -4.9564  -4.3622  -4.1801  -4.0156  -3.9468
    -3.7625  -3.6721  -2.8328  -2.7366  -2.6318  -2.4053  -2.3465  -2.2689
    -1.3550  -1.1980  -1.1326  -0.9894  -0.8894  -0.8053  -0.2405  -0.1885
     0.5926   0.7904

     occupation numbers 
     1.0000   1.0000   1.0000   1.0000   1.0000   1.0000   1.0000   1.0000
     1.0000   1.0000   1.0000   1.0000   1.0000   1.0000   1.0000   1.0000
     1.0000   1.0000   1.0000   1.0000   1.0000   1.0000   1.0000   1.0000
     1.0000   1.0000   1.0000   1.0000   1.0000   1.0000   1.0000   1.0000
     1.0000   1.0000   1.0000   1.0000   1.0000   1.0000   1.0000   1.0000
     1.0000   1.0000

          k =-0.0169 0.0214 0.0936 ( 36547 PWs)   bands (ev):

   -16.2323 -15.9364 -15.2612 -15.1908 -13.8831 -13.8575 -12.3802 -12.2570
   -11.2295 -11.2086  -8.9588  -8.9508  -8.2066  -8.1218  -6.3727  -6.3192
    -5.3282  -5.2907  -5.1123  -4.8603  -4.3862  -4.1762  -4.0667  -3.9807
    -3.7635  -3.6570  -2.7561  -2.7071  -2.6197  -2.4259  -2.3810  -2.2905
    -1.2871  -1.1648  -1.1510  -1.0230  -0.9099  -0.8133  -0.2845  -0.1666
     0.5920   0.7953

     occupation numbers 
     1.0000   1.0000   1.0000   1.0000   1.0000   1.0000   1.0000   1.0000
     1.0000   1.0000   1.0000   1.0000   1.0000   1.0000   1.0000   1.0000
     1.0000   1.0000   1.0000   1.0000   1.0000   1.0000   1.0000   1.0000
     1.0000   1.0000   1.0000   1.0000   1.0000   1.0000   1.0000   1.0000
     1.0000   1.0000   1.0000   1.0000   1.0000   1.0000   1.0000   1.0000
     1.0000   1.0000

          k =-0.0169 0.0214 0.0265 ( 36551 PWs)   bands (ev):

   -16.2973 -16.0139 -15.3145 -15.2433 -13.9003 -13.8767 -12.3750 -12.2929
   -11.2436 -11.2073  -8.9954  -8.9860  -8.2774  -8.1058  -6.4221  -6.2335
    -5.3443  -5.3091  -5.1116  -4.7272  -4.2767  -4.1732  -3.9246  -3.8386
    -3.2911  -3.1424  -2.7958  -2.5982  -2.3732  -2.2596  -2.1822  -2.0985
    -1.2235  -1.1030  -1.0498  -0.9595  -0.8829  -0.7590  -0.1090   0.0951
     0.6097   0.7787

     occupation numbers 
     1.0000   1.0000   1.0000   1.0000   1.0000   1.0000   1.0000   1.0000
     1.0000   1.0000   1.0000   1.0000   1.0000   1.0000   1.0000   1.0000
     1.0000   1.0000   1.0000   1.0000   1.0000   1.0000   1.0000   1.0000
     1.0000   1.0000   1.0000   1.0000   1.0000   1.0000   1.0000   1.0000
     1.0000   1.0000   1.0000   1.0000   1.0000   1.0000   1.0000   1.0000
     1.0000   1.0000

          k =-0.0169 0.0643-0.0407 ( 36518 PWs)   bands (ev):

   -16.2760 -15.9701 -15.3257 -15.2480 -13.9460 -13.9211 -12.4044 -12.3617
   -11.2506 -11.2143  -8.9177  -8.8081  -8.1614  -8.0776  -6.3847  -6.2876
    -5.2989  -5.2585  -5.0348  -4.9938  -4.3941  -4.2992  -3.9980  -3.9164
    -3.3358  -3.2008  -2.6815  -2.6014  -2.4764  -2.3756  -2.1301  -2.0561
    -1.1005  -0.9546  -0.9125  -0.8631  -0.8449  -0.7900  -0.0732   0.1942
     0.6387   0.7959

     occupation numbers 
     1.0000   1.0000   1.0000   1.0000   1.0000   1.0000   1.0000   1.0000
     1.0000   1.0000   1.0000   1.0000   1.0000   1.0000   1.0000   1.0000
     1.0000   1.0000   1.0000   1.0000   1.0000   1.0000   1.0000   1.0000
     1.0000   1.0000   1.0000   1.0000   1.0000   1.0000   1.0000   1.0000
     1.0000   1.0000   1.0000   1.0000   1.0000   1.0000   1.0000   1.0000
     1.0000   1.0000

          k =-0.0169 0.0643-0.1078 ( 36558 PWs)   bands (ev):

   -16.2181 -15.9014 -15.2683 -15.1909 -13.9162 -13.8852 -12.3905 -12.3143
   -11.2549 -11.2179  -8.9495  -8.8127  -8.1887  -8.0976  -6.3685  -6.2727
    -5.3251  -5.2552  -4.9477  -4.9179  -4.3271  -4.2899  -4.0573  -3.9950
    -3.9033  -3.7986  -2.7710  -2.6882  -2.6291  -2.5088  -2.3760  -2.2916
    -1.3014  -1.1457  -1.0757  -1.0256  -0.9265  -0.8115  -0.0749  -0.0455
     0.6137   0.7957

     occupation numbers 
     1.0000   1.0000   1.0000   1.0000   1.0000   1.0000   1.0000   1.0000
     1.0000   1.0000   1.0000   1.0000   1.0000   1.0000   1.0000   1.0000
     1.0000   1.0000   1.0000   1.0000   1.0000   1.0000   1.0000   1.0000
     1.0000   1.0000   1.0000   1.0000   1.0000   1.0000   1.0000   1.0000
     1.0000   1.0000   1.0000   1.0000   1.0000   1.0000   1.0000   1.0000
     1.0000   1.0000

          k =-0.0169 0.0643 0.0936 ( 36547 PWs)   bands (ev):

   -16.2163 -15.9063 -15.2645 -15.1908 -13.9086 -13.8899 -12.3975 -12.3115
   -11.2577 -11.2218  -8.9183  -8.8334  -8.1764  -8.1171  -6.3609  -6.2415
    -5.3198  -5.2518  -5.0050  -4.8536  -4.3688  -4.3012  -4.1196  -4.0342
    -3.8844  -3.7430  -2.7554  -2.7014  -2.6558  -2.5680  -2.3368  -2.1961
    -1.2410  -1.1623  -1.1120  -1.0488  -0.9071  -0.8323  -0.1116  -0.0380
     0.6164   0.8053

     occupation numbers 
     1.0000   1.0000   1.0000   1.0000   1.0000   1.0000   1.0000   1.0000
     1.0000   1.0000   1.0000   1.0000   1.0000   1.0000   1.0000   1.0000
     1.0000   1.0000   1.0000   1.0000   1.0000   1.0000   1.0000   1.0000
     1.0000   1.0000   1.0000   1.0000   1.0000   1.0000   1.0000   1.0000
     1.0000   1.0000   1.0000   1.0000   1.0000   1.0000   1.0000   1.0000
     1.0000   1.0000

          k =-0.0169 0.0643 0.0265 ( 36489 PWs)   bands (ev):

   -16.2743 -15.9744 -15.3224 -15.2479 -13.9448 -13.9199 -12.4109 -12.3577
   -11.2496 -11.2241  -8.8890  -8.8241  -8.1549  -8.0874  -6.3918  -6.2645
    -5.2964  -5.2418  -5.0844  -4.9219  -4.4063  -4.2838  -4.0768  -3.9704
    -3.3602  -3.1735  -2.6427  -2.5265  -2.4534  -2.4019  -2.1753  -2.0470
    -1.0805  -1.0155  -0.9122  -0.8606  -0.8191  -0.7808  -0.0628   0.1635
     0.6441   0.7939

     occupation numbers 
     1.0000   1.0000   1.0000   1.0000   1.0000   1.0000   1.0000   1.0000
     1.0000   1.0000   1.0000   1.0000   1.0000   1.0000   1.0000   1.0000
     1.0000   1.0000   1.0000   1.0000   1.0000   1.0000   1.0000   1.0000
     1.0000   1.0000   1.0000   1.0000   1.0000   1.0000   1.0000   1.0000
     1.0000   1.0000   1.0000   1.0000   1.0000   1.0000   1.0000   1.0000
     1.0000   1.0000

     highest occupied level (ev):     0.8053

!    total energy              =    -548.04214068 Ry
     Harris-Foulkes estimate   =    -548.04214071 Ry
     estimated scf accuracy    <       0.00000004 Ry

     total all-electron energy =     -4615.885628 Ry

     The total energy is the sum of the following terms:

     one-electron contribution =    -152.04115994 Ry
     hartree contribution      =     107.36487189 Ry
     xc contribution           =    -104.20727544 Ry
     ewald contribution        =    -143.37632374 Ry
     one-center paw contrib.   =    -255.78225344 Ry
      -> PAW hartree energy AE =      19.66843919 Ry
      -> PAW hartree energy PS =     -19.56305071 Ry
      -> PAW xc energy AE      =     -55.74982736 Ry
      -> PAW xc energy PS      =      10.20028670 Ry
      -> total E_H with PAW    =     107.47026037 Ry
      -> total E_XC with PAW   =    -149.75681611 Ry

     convergence has been achieved in  11 iterations
 writing file ./scratch/scf-371.save/charge-density
 writing file ./scratch/scf-371.save/charge-density
 writing file ./scratch/scf-371.save/charge-density
 writing file ./scratch/scf-371.save/charge-density
 writing file ./scratch/scf-371.save/charge-density
 writing file ./scratch/scf-371.save/charge-density
 writing file ./scratch/scf-371.save/charge-density
 writing file ./scratch/scf-371.save/charge-density
 writing file ./scratch/scf-371.save/charge-density
 writing file ./scratch/scf-371.save/charge-density
 writing file ./scratch/scf-371.save/charge-density
 writing file ./scratch/scf-371.save/charge-density
 writing file ./scratch/scf-371.save/charge-density
 writing file ./scratch/scf-371.save/charge-density
 writing file ./scratch/scf-371.save/charge-density
 writing file ./scratch/scf-371.save/charge-density
 writing file ./scratch/scf-371.save/charge-density
 writing file ./scratch/scf-371.save/charge-density
 writing file ./scratch/scf-371.save/charge-density
 writing file ./scratch/scf-371.save/charge-density
 writing file ./scratch/scf-371.save/charge-density
 writing file ./scratch/scf-371.save/charge-density
 writing file ./scratch/scf-371.save/charge-density
 writing file ./scratch/scf-371.save/charge-density
 writing file ./scratch/scf-371.save/charge-density
 writing file ./scratch/scf-371.save/charge-density
 writing file ./scratch/scf-371.save/charge-density
 writing file ./scratch/scf-371.save/charge-density
 writing file ./scratch/scf-371.save/charge-density
 writing file ./scratch/scf-371.save/charge-density
 writing file ./scratch/scf-371.save/charge-density
 writing file ./scratch/scf-371.save/charge-density

     Forces acting on atoms (cartesian axes, Ry/au):

     atom    1 type  2   force =     0.04248359   -0.05838305   -0.00749659
     atom    2 type  1   force =    -0.02866407    0.04637826   -0.00004937
     atom    3 type  1   force =    -0.01901656   -0.00219192    0.03247718
     atom    4 type  3   force =     0.00221393    0.00928847   -0.00471488
     atom    5 type  1   force =     0.00974049    0.01093257   -0.03630930
     atom    6 type  3   force =    -0.00626249   -0.00322138    0.00522542
     atom    7 type  3   force =     0.00246836   -0.00185025   -0.00144858
     atom    8 type  1   force =     0.00386208   -0.00050604   -0.00564250
     atom    9 type  3   force =     0.00224914    0.00182390    0.00266936
     atom   10 type  1   force =     0.00632571    0.00769528   -0.00008459
     atom   11 type  1   force =    -0.00918710    0.02319984    0.00884213
     atom   12 type  2   force =     0.00672244   -0.01928977   -0.00084634
     atom   13 type  3   force =    -0.00073163   -0.00150483    0.00398373
     atom   14 type  1   force =     0.00950547    0.01808908   -0.01380689
     atom   15 type  3   force =     0.00124827    0.00017463   -0.00522894
     atom   16 type  1   force =    -0.01920183    0.01908749    0.02486347
     atom   17 type  1   force =    -0.03986640   -0.00911148   -0.00424021
     atom   18 type  2   force =     0.04158080   -0.03121839    0.00163549
     atom   19 type  3   force =    -0.00301886    0.00313309    0.00315635
     atom   20 type  1   force =    -0.00672079   -0.00004228    0.00109469
     atom   21 type  3   force =     0.00045007   -0.00217628   -0.00085798
     atom   22 type  1   force =     0.00245239   -0.00126181    0.00111710
     atom   23 type  1   force =     0.02000256   -0.00629038   -0.00814728
     atom   24 type  2   force =    -0.01863555   -0.00275475    0.00380852
     The non-local contrib.  to forces
     atom    1 type  2   force =    -0.33609234    0.19183279   -0.04779569
     atom    2 type  1   force =     0.37341404   -0.25949314    0.03093173
     atom    3 type  1   force =    -0.07651792   -0.03788223    0.00393502
     atom    4 type  3   force =    -0.06010375   -0.01038213   -0.04985736
     atom    5 type  1   force =    -0.01697856    0.00225207   -0.10017169
     atom    6 type  3   force =    -0.00625324   -0.06732357   -0.03978352
     atom    7 type  3   force =     0.01258425   -0.07051494    0.03271476
     atom    8 type  1   force =     0.05350716   -0.04112828    0.04283168
     atom    9 type  3   force =     0.07037502   -0.01864268    0.02939616
     atom   10 type  1   force =     0.05747977   -0.02769807    0.01371600
     atom   11 type  1   force =    -0.40194973   -0.27802767    0.05957501
     atom   12 type  2   force =     0.33936039    0.19873174   -0.05752502
     atom   13 type  3   force =     0.00381903    0.06577929    0.04297113
     atom   14 type  1   force =     0.05007035    0.06382878    0.03218777
     atom   15 type  3   force =     0.06343511    0.01527103    0.04426728
     atom   16 type  1   force =     0.01972961    0.06917398    0.07196668
     atom   17 type  1   force =    -0.42150695    0.28438283   -0.03066597
     atom   18 type  2   force =     0.31343744   -0.24669206    0.01797032
     atom   19 type  3   force =    -0.01313666    0.07098766   -0.03161188
     atom   20 type  1   force =    -0.05697795    0.04605278   -0.05210022
     atom   21 type  3   force =    -0.07108955    0.01868787   -0.02887721
     atom   22 type  1   force =    -0.05483905    0.04222499   -0.01834207
     atom   23 type  1   force =     0.40586422    0.30888710   -0.04634629
     atom   24 type  2   force =    -0.32558581   -0.22185014    0.04260281
     The ionic contribution  to forces
     atom    1 type  2   force =     5.13083245   -4.53546430    0.46403637
     atom    2 type  1   force =     0.81361126   -1.86034766    0.01700374
     atom    3 type  1   force =     3.24740929    2.10181897    2.12747592
     atom    4 type  3   force =     1.70687823    0.59056477    1.40871327
     atom    5 type  1   force =    -0.13042874    3.82738449    2.65156302
     atom    6 type  3   force =     0.14180729    1.93122340    1.22691468
     atom    7 type  3   force =    -0.34529225    1.88205205   -1.02848012
     atom    8 type  1   force =    -0.75601142    4.02808731   -1.65388448
     atom    9 type  3   force =    -2.10233653    0.63286992   -0.90068788
     atom   10 type  1   force =    -3.85949355    1.75508188   -1.87285468
     atom   11 type  1   force =    -1.35093687   -1.93913987   -0.21356687
     atom   12 type  2   force =    -5.19235018   -3.30745219    0.34730322
     atom   13 type  3   force =    -0.43225686   -1.88154526   -1.40768606
     atom   14 type  1   force =    -2.00375699   -4.21550752   -2.52387102
     atom   15 type  3   force =    -2.15128195   -0.58738070   -1.47565581
     atom   16 type  1   force =    -4.67010942   -1.23810248   -3.41742340
     atom   17 type  1   force =    -3.11535469    2.01300132   -1.12497924
     atom   18 type  2   force =    -5.87899530    3.37969379   -1.05640112
     atom   19 type  3   force =     0.73444596   -1.87895141    1.18757179
     atom   20 type  1   force =     2.27148043   -4.04306137    2.32775682
     atom   21 type  3   force =     2.36334382   -0.74536679    1.01670657
     atom   22 type  1   force =     5.28475457   -1.82633636    2.38340188
     atom   23 type  1   force =     2.98605035    1.95247217    0.76899718
     atom   24 type  2   force =     7.30799107    3.96440581    0.74804621
     The local contribution  to forces
     atom    1 type  2   force =    -4.76394388    4.29082309   -0.42577917
     atom    2 type  1   force =    -1.20716367    2.15939326   -0.04733753
     atom    3 type  1   force =    -3.18939201   -2.06558310   -2.09831299
     atom    4 type  3   force =    -1.64457185   -0.57089197   -1.36357621
     atom    5 type  1   force =     0.15665355   -3.81705379   -2.58724071
     atom    6 type  3   force =    -0.14181207   -1.86713299   -1.18191267
     atom    7 type  3   force =     0.33518573   -1.81340452    0.99432452
     atom    8 type  1   force =     0.70682905   -3.98604715    1.60527999
     atom    9 type  3   force =     2.03420204   -0.61239364    0.87395496
     atom   10 type  1   force =     3.80749042   -1.71928142    1.85831372
     atom   11 type  1   force =     1.73385414    2.23261252    0.16388141
     atom   12 type  2   force =     4.87336347    3.09690794   -0.29306399
     atom   13 type  3   force =     0.42771087    1.81424392    1.36869462
     atom   14 type  1   force =     1.96355951    4.16850909    2.47768562
     atom   15 type  3   force =     2.08907937    0.57228167    1.42614944
     atom   16 type  1   force =     4.63029161    1.18925101    3.37006012
     atom   17 type  1   force =     3.48602403   -2.29842197    1.15000402
     atom   18 type  2   force =     5.62148676   -3.17555473    1.04079890
     atom   19 type  3   force =    -0.72430892    1.81107280   -1.15279369
     atom   20 type  1   force =    -2.22157519    3.99567406   -2.27448122
     atom   21 type  3   force =    -2.29179981    0.72451894   -0.98868907
     atom   22 type  1   force =    -5.22642955    1.78291524   -2.36341104
     atom   23 type  1   force =    -3.36148406   -2.25910548   -0.73158508
     atom   24 type  2   force =    -7.01509140   -3.75474108   -0.78481813
     The core correction contribution to forces
     atom    1 type  2   force =     0.01158774   -0.00556754    0.00203426
     atom    2 type  1   force =    -0.00849440    0.00683496   -0.00061550
     atom    3 type  1   force =    -0.00053015   -0.00051339   -0.00061827
     atom    4 type  3   force =     0.00000000    0.00000000    0.00000000
     atom    5 type  1   force =     0.00055618   -0.00162612   -0.00042997
     atom    6 type  3   force =     0.00000000    0.00000000    0.00000000
     atom    7 type  3   force =     0.00000000    0.00000000    0.00000000
     atom    8 type  1   force =    -0.00037450   -0.00137358    0.00015286
     atom    9 type  3   force =     0.00000000    0.00000000    0.00000000
     atom   10 type  1   force =     0.00083730   -0.00027871    0.00070113
     atom   11 type  1   force =     0.00981326    0.00777032   -0.00106642
     atom   12 type  2   force =    -0.01382504   -0.00754827    0.00235240
     atom   13 type  3   force =     0.00000000    0.00000000    0.00000000
     atom   14 type  1   force =    -0.00030333    0.00122051    0.00021565
     atom   15 type  3   force =     0.00000000    0.00000000    0.00000000
     atom   16 type  1   force =     0.00086379   -0.00122913    0.00024248
     atom   17 type  1   force =     0.01101451   -0.00801358    0.00144104
     atom   18 type  2   force =    -0.01446898    0.01140231   -0.00077198
     atom   19 type  3   force =     0.00000000    0.00000000    0.00000000
     atom   20 type  1   force =     0.00048437    0.00128315   -0.00003480
     atom   21 type  3   force =     0.00000000    0.00000000    0.00000000
     atom   22 type  1   force =    -0.00091011    0.00005411   -0.00052256
     atom   23 type  1   force =    -0.01035935   -0.00850211    0.00081189
     atom   24 type  2   force =     0.01398550    0.00927988   -0.00195043
     The Hubbard contrib.    to forces
     atom    1 type  2   force =     0.00000000    0.00000000    0.00000000
     atom    2 type  1   force =     0.00000000    0.00000000    0.00000000
     atom    3 type  1   force =     0.00000000    0.00000000    0.00000000
     atom    4 type  3   force =     0.00000000    0.00000000    0.00000000
     atom    5 type  1   force =     0.00000000    0.00000000    0.00000000
     atom    6 type  3   force =     0.00000000    0.00000000    0.00000000
     atom    7 type  3   force =     0.00000000    0.00000000    0.00000000
     atom    8 type  1   force =     0.00000000    0.00000000    0.00000000
     atom    9 type  3   force =     0.00000000    0.00000000    0.00000000
     atom   10 type  1   force =     0.00000000    0.00000000    0.00000000
     atom   11 type  1   force =     0.00000000    0.00000000    0.00000000
     atom   12 type  2   force =     0.00000000    0.00000000    0.00000000
     atom   13 type  3   force =     0.00000000    0.00000000    0.00000000
     atom   14 type  1   force =     0.00000000    0.00000000    0.00000000
     atom   15 type  3   force =     0.00000000    0.00000000    0.00000000
     atom   16 type  1   force =     0.00000000    0.00000000    0.00000000
     atom   17 type  1   force =     0.00000000    0.00000000    0.00000000
     atom   18 type  2   force =     0.00000000    0.00000000    0.00000000
     atom   19 type  3   force =     0.00000000    0.00000000    0.00000000
     atom   20 type  1   force =     0.00000000    0.00000000    0.00000000
     atom   21 type  3   force =     0.00000000    0.00000000    0.00000000
     atom   22 type  1   force =     0.00000000    0.00000000    0.00000000
     atom   23 type  1   force =     0.00000000    0.00000000    0.00000000
     atom   24 type  2   force =     0.00000000    0.00000000    0.00000000
     The SCF correction term to forces
     atom    1 type  2   force =     0.00009965   -0.00000675    0.00000717
     atom    2 type  1   force =    -0.00003128   -0.00000882   -0.00003230
     atom    3 type  1   force =     0.00001425   -0.00003183   -0.00000299
     atom    4 type  3   force =     0.00001133   -0.00000186    0.00000494
     atom    5 type  1   force =    -0.00006192   -0.00002374   -0.00003043
     atom    6 type  3   force =    -0.00000445    0.00001211    0.00000645
     atom    7 type  3   force =    -0.00000934    0.00001750   -0.00000822
     atom    8 type  1   force =    -0.00008819   -0.00004400   -0.00002305
     atom    9 type  3   force =     0.00000864   -0.00000937    0.00000563
     atom   10 type  1   force =     0.00001181   -0.00012806    0.00003877
     atom   11 type  1   force =     0.00003213   -0.00001513    0.00001852
     atom   12 type  2   force =     0.00017382    0.00007134    0.00008657
     atom   13 type  3   force =    -0.00000464    0.00001755    0.00000356
     atom   14 type  1   force =    -0.00006404    0.00003856   -0.00002538
     atom   15 type  3   force =     0.00001576    0.00000297    0.00000969
     atom   16 type  1   force =     0.00002260   -0.00000556    0.00001711
     atom   17 type  1   force =    -0.00004327   -0.00005973   -0.00004053
     atom   18 type  2   force =     0.00012090   -0.00006737    0.00003890
     atom   19 type  3   force =    -0.00001921    0.00002438   -0.00001036
     atom   20 type  1   force =    -0.00013242    0.00000943   -0.00004636
     atom   21 type  3   force =    -0.00000437   -0.00001596    0.00000124
     atom   22 type  1   force =    -0.00012345   -0.00011945   -0.00000959
     atom   23 type  1   force =    -0.00006857   -0.00004171   -0.00002546
     atom   24 type  2   force =     0.00006512    0.00015112   -0.00007242

     Total force =     0.141589     Total SCF correction =     0.000467

     Writing output data file scf-371.save
 writing file ./scratch/scf-371.save/charge-density
 writing file ./scratch/scf-371.save/charge-density
 writing file ./scratch/scf-371.save/charge-density
 writing file ./scratch/scf-371.save/charge-density
 writing file ./scratch/scf-371.save/charge-density
 writing file ./scratch/scf-371.save/charge-density
 writing file ./scratch/scf-371.save/charge-density
 writing file ./scratch/scf-371.save/charge-density
 writing file ./scratch/scf-371.save/charge-density
 writing file ./scratch/scf-371.save/charge-density
 writing file ./scratch/scf-371.save/charge-density
 writing file ./scratch/scf-371.save/charge-density
 writing file ./scratch/scf-371.save/charge-density
 writing file ./scratch/scf-371.save/charge-density
 writing file ./scratch/scf-371.save/charge-density
 writing file ./scratch/scf-371.save/charge-density
 writing file ./scratch/scf-371.save/charge-density
 writing file ./scratch/scf-371.save/charge-density
 writing file ./scratch/scf-371.save/charge-density
 writing file ./scratch/scf-371.save/charge-density
 writing file ./scratch/scf-371.save/charge-density
 writing file ./scratch/scf-371.save/charge-density
 writing file ./scratch/scf-371.save/charge-density
 writing file ./scratch/scf-371.save/charge-density
 writing file ./scratch/scf-371.save/charge-density
 writing file ./scratch/scf-371.save/charge-density
 writing file ./scratch/scf-371.save/charge-density
 writing file ./scratch/scf-371.save/charge-density
 writing file ./scratch/scf-371.save/charge-density
 writing file ./scratch/scf-371.save/charge-density
 writing file ./scratch/scf-371.save/charge-density
 writing file ./scratch/scf-371.save/charge-density
 
     init_run     :      4.37s CPU      4.61s WALL (       1 calls)
     electrons    :     49.82s CPU     52.61s WALL (       1 calls)
     forces       :      2.33s CPU      2.47s WALL (       1 calls)

     Called by init_run:
     wfcinit      :      1.59s CPU      1.63s WALL (       1 calls)
     wfcinit:atom :      0.02s CPU      0.02s WALL (      16 calls)
     wfcinit:wfcr :      1.48s CPU      1.50s WALL (      16 calls)
     potinit      :      0.90s CPU      0.91s WALL (       1 calls)

     Called by electrons:
     c_bands      :     38.84s CPU     39.10s WALL (      11 calls)
     sum_band     :      6.89s CPU      8.05s WALL (      11 calls)
     v_of_rho     :      0.92s CPU      0.97s WALL (      12 calls)
     v_h          :      0.06s CPU      0.06s WALL (      12 calls)
     v_xc         :      0.92s CPU      0.98s WALL (      13 calls)
     newd         :      1.49s CPU      2.87s WALL (      12 calls)
     PAW_pot      :      1.65s CPU      1.69s WALL (      12 calls)
     mix_rho      :      0.14s CPU      0.14s WALL (      11 calls)

     Called by c_bands:
     init_us_2    :      0.82s CPU      0.87s WALL (     384 calls)
     cegterg      :     36.59s CPU     36.71s WALL (     176 calls)

     Called by sum_band:
     sum_band:bec :      0.03s CPU      0.02s WALL (     176 calls)
     addusdens    :      1.56s CPU      2.69s WALL (      11 calls)

     Called by *egterg:
     h_psi        :     27.30s CPU     27.42s WALL (     860 calls)
     s_psi        :      2.00s CPU      2.03s WALL (     860 calls)
     g_psi        :      0.16s CPU      0.16s WALL (     668 calls)
     cdiaghg      :      3.33s CPU      3.38s WALL (     844 calls)
     cegterg:over :      1.64s CPU      1.62s WALL (     668 calls)
     cegterg:upda :      1.20s CPU      1.26s WALL (     668 calls)
     cegterg:last :      0.44s CPU      0.43s WALL (     192 calls)

     Called by h_psi:
     h_psi:pot    :     27.00s CPU     27.14s WALL (     860 calls)
     h_psi:calbec :      2.28s CPU      2.26s WALL (     860 calls)
     vloc_psi     :     22.77s CPU     22.90s WALL (     860 calls)
     add_vuspsi   :      1.96s CPU      1.98s WALL (     860 calls)

     General routines
     calbec       :      3.09s CPU      3.01s WALL (    1100 calls)
     fft          :      0.77s CPU      0.79s WALL (     199 calls)
     ffts         :      0.04s CPU      0.03s WALL (      23 calls)
     fftw         :     21.00s CPU     21.15s WALL (   55380 calls)
     interpolate  :      0.15s CPU      0.15s WALL (      23 calls)
     davcio       :      0.00s CPU      0.01s WALL (      16 calls)
 
     Parallel routines
     fft_scatter  :      7.42s CPU      7.40s WALL (   55602 calls)

     PAW routines
     PAW_pot      :      1.65s CPU      1.69s WALL (      12 calls)
 
     PWSCF        :  0m57.18s CPU     1m 0.87s WALL

 
   This run was terminated on:  13: 1:39  20May2017            

=------------------------------------------------------------------------------=
   JOB DONE.
=------------------------------------------------------------------------------=
