
     Program PWSCF v.6.1 starts on 22May2017 at 15:29:46 

     This program is part of the open-source Quantum ESPRESSO suite
     for quantum simulation of materials; please cite
         "P. Giannozzi et al., J. Phys.:Condens. Matter 21 395502 (2009);
          URL http://www.quantum-espresso.org", 
     in publications or presentations arising from this work. More details at
     http://www.quantum-espresso.org/quote

     Parallel version (MPI & OpenMP), running on      32 processor cores
     Number of MPI processes:                32
     Threads/MPI process:                     1
     R & G space division:  proc/nbgrp/npool/nimage =      32
     Waiting for input...
     Reading input from standard input
Warning: card &IONS ignored
Warning: card     ION_TEMPERATURE   = 'INITIAL' ignored
Warning: card     TEMPW             = 586.D0 ignored
Warning: card     TOLP              = 100.D0 ignored
Warning: card     DELTA_T           = 1.D0 ignored
Warning: card     NRAISE            = 1 ignored
Warning: card / ignored
Warning: card &CELL ignored
Warning: card     CELL_DYNAMICS     = 'BFGS' ignored
Warning: card / ignored

     Current dimensions of program PWSCF are:
     Max number of different atomic species (ntypx) = 10
     Max number of k-points (npk) =  40000
     Max angular momentum in pseudopotentials (lmaxx) =  3
               file C.pbe-n-kjpaw_psl.1.0.0.UPF: wavefunction(s)  2S 2P renormalized
               file Cl.pbe-n-kjpaw_psl.1.0.0.UPF: wavefunction(s)  3S 3P renormalized
               file H.pbe-kjpaw_psl.1.0.0.UPF: wavefunction(s)  1S renormalized

     Subspace diagonalization in iterative solution of the eigenvalue problem:
     a serial algorithm will be used

 
     Parallelization info
     --------------------
     sticks:   dense  smooth     PW     G-vecs:    dense   smooth      PW
     Min         764     305     83                36108     9133    1292
     Max         765     306     84                36110     9135    1293
     Sum       24467    9791   2657              1155489   292295   41363
 


     bravais-lattice index     =            0
     lattice parameter (alat)  =       1.8897  a.u.
     unit-cell volume          =    2163.5316 (a.u.)^3
     number of atoms/cell      =           24
     number of atomic types    =            3
     number of electrons       =        84.00
     number of Kohn-Sham states=           42
     kinetic-energy cutoff     =     100.0000  Ry
     charge density cutoff     =    1000.0000  Ry
     convergence threshold     =      1.0E-07
     mixing beta               =       0.7000
     number of iterations used =            8  plain     mixing
     Exchange-correlation      =  SLA  PW   PBX  PBC ( 1  4  3  4 0 0)

     celldm(1)=   1.889726  celldm(2)=   0.000000  celldm(3)=   0.000000
     celldm(4)=   0.000000  celldm(5)=   0.000000  celldm(6)=   0.000000

     crystal axes: (cart. coord. in units of alat)
               a(1) = (  14.762000   0.000000   0.000000 )  
               a(2) = (   0.000000   5.832000   0.000000 )  
               a(3) = (  -1.563876   0.000000   3.723951 )  

     reciprocal axes: (cart. coord. in units 2 pi/alat)
               b(1) = (  0.067741  0.000000  0.028448 )  
               b(2) = (  0.000000  0.171468  0.000000 )  
               b(3) = (  0.000000  0.000000  0.268532 )  


     PseudoPot. # 1 for  C read from file:
     /global/cscratch1/sd/almno10/.data/PSEUDOPOTENTIALS/C.pbe-n-kjpaw_psl.1.0.0.UPF
     MD5 check sum: 2ba8448e293caca687844dde9a1b88a8
     Pseudo is Projector augmented-wave + core cor, Zval =  4.0
     Generated using "atomic" code by A. Dal Corso  v.5.3.0 svn rev. 11974
     Shape of augmentation charge: PSQ
     Using radial grid of 1073 points,  4 beta functions with: 
                l(1) =   0
                l(2) =   0
                l(3) =   1
                l(4) =   1
     Q(r) pseudized with 0 coefficients 


     PseudoPot. # 2 for Cl read from file:
     /global/cscratch1/sd/almno10/.data/PSEUDOPOTENTIALS/Cl.pbe-n-kjpaw_psl.1.0.0.UPF
     MD5 check sum: dca63699d6b897c5771335df08a09219
     Pseudo is Projector augmented-wave + core cor, Zval =  7.0
     Generated using "atomic" code by A. Dal Corso  v.5.3.0 svn rev. 11974
     Shape of augmentation charge: PSQ
     Using radial grid of 1157 points,  6 beta functions with: 
                l(1) =   0
                l(2) =   0
                l(3) =   1
                l(4) =   1
                l(5) =   2
                l(6) =   2
     Q(r) pseudized with 0 coefficients 


     PseudoPot. # 3 for  H read from file:
     /global/cscratch1/sd/almno10/.data/PSEUDOPOTENTIALS/H.pbe-kjpaw_psl.1.0.0.UPF
     MD5 check sum: bc0feb48a24907a0b97fa6ee2d589a29
     Pseudo is Projector augmented-wave, Zval =  1.0
     Generated using "atomic" code by A. Dal Corso  v.5.3.0 svn rev. 11974
     Shape of augmentation charge: PSQ
     Using radial grid of  929 points,  2 beta functions with: 
                l(1) =   0
                l(2) =   0
     Q(r) pseudized with 0 coefficients 


     atomic species   valence    mass     pseudopotential
        C              4.00    12.01100      C( 1.00)
        Cl             7.00    35.45270     Cl( 1.00)
        H              1.00     1.00790      H( 1.00)

     No symmetry found


                                    s                        frac. trans.

      isym =  1     identity                                     

 cryst.   s( 1) = (     1          0          0      )
                  (     0          1          0      )
                  (     0          0          1      )

 cart.    s( 1) = (  1.0000000  0.0000000 -0.0000000 )
                  (  0.0000000  1.0000000  0.0000000 )
                  (  0.0000000  0.0000000  1.0000000 )


   Cartesian axes

     site n.     atom                  positions (alat units)
         1           Cl  tau(   1) = (  16.5019322   0.6541608   1.9472645  )
         2           C   tau(   2) = (  15.1425107   1.7675822   1.8862620  )
         3           C   tau(   3) = (  15.2027930   2.9774352   2.5762585  )
         4           H   tau(   4) = (  16.0800684   3.2017539   3.1808915  )
         5           C   tau(   5) = (  14.1025921   3.8325511   2.6003587  )
         6           H   tau(   6) = (  14.1582640   4.7721744   3.1469018  )
         7           H   tau(   7) = (   6.3356510   2.4783262   0.6989878  )
         8           C   tau(   8) = (   6.4363140   1.5175263   1.1986109  )
         9           H   tau(   9) = (   4.3174210   1.1195958   1.1985439  )
        10           C   tau(  10) = (   5.2967281   0.7889725   1.5392553  )
        11           C   tau(  11) = (   5.3992950  -0.4484341   2.1735565  )
        12           Cl  tau(  12) = (   3.8717389  -1.3510545   2.1905559  )
        13           H   tau(  13) = (  13.9761923   0.4842065   0.5790657  )
        14           C   tau(  14) = (  14.0139268   1.4100461   1.1497443  )
        15           H   tau(  15) = (  12.0579440   2.0566493   0.5166082  )
        16           C   tau(  16) = (  12.9484569   2.3079435   1.0879841  )
        17           C   tau(  17) = (  12.9966253   3.5062333   1.8166101  )
        18           Cl  tau(  18) = (  11.6343124   4.5338783   1.8461325  )
        19           H   tau(  19) = (   6.7392300  -1.9194065   3.0711147  )
        20           C   tau(  20) = (   6.6349183  -0.9556340   2.5756615  )
        21           H   tau(  21) = (   8.7519787  -0.5538656   2.5849294  )
        22           C   tau(  22) = (   7.7683973  -0.1981633   2.2851891  )
        23           C   tau(  23) = (   7.6627124   1.0417833   1.6583360  )
        24           Cl  tau(  24) = (   9.1031950   1.9781502   1.3924871  )

   Crystallographic axes

     site n.     atom                  positions (cryst. coord.)
         1           Cl  tau(   1) = (  1.1732616  0.1121675  0.5229028  )
         2           C   tau(   2) = (  1.0794369  0.3030834  0.5065216  )
         3           C   tau(   3) = (  1.1031496  0.5105342  0.6918078  )
         4           H   tau(   4) = (  1.1797782  0.5489976  0.8541711  )
         5           C   tau(   5) = (  1.0293059  0.6571590  0.6982794  )
         6           H   tau(   6) = (  1.0486253  0.8182741  0.8450437  )
         7           H   tau(   7) = (  0.4490714  0.4249531  0.1877006  )
         8           C   tau(   8) = (  0.4701037  0.2602068  0.3218654  )
         9           H   tau(   9) = (  0.3265648  0.1919746  0.3218474  )
        10           C   tau(  10) = (  0.4025972  0.1352833  0.4133393  )
        11           C   tau(  11) = (  0.4275899 -0.0768920  0.5836694  )
        12           Cl  tau(  12) = (  0.3245945 -0.2316623  0.5882343  )
        13           H   tau(  13) = (  0.9632415  0.0830258  0.1554977  )
        14           C   tau(  14) = (  0.9820324  0.2417775  0.3087431  )
        15           H   tau(  15) = (  0.8315197  0.3526491  0.1387258  )
        16           C   tau(  16) = (  0.9080989  0.3957379  0.2921585  )
        17           C   tau(  17) = (  0.9320900  0.6012060  0.4878179  )
        18           Cl  tau(  18) = (  0.8406447  0.7774140  0.4957456  )
        19           H   tau(  19) = (  0.5438929 -0.3291163  0.8246925  )
        20           C   tau(  20) = (  0.5227319 -0.1638604  0.6916474  )
        21           H   tau(  21) = (  0.6664084 -0.0949701  0.6941362  )
        22           C   tau(  22) = (  0.5912521 -0.0339786  0.6136463  )
        23           C   tau(  23) = (  0.5662601  0.1786323  0.4453162  )
        24           Cl  tau(  24) = (  0.6562777  0.3391890  0.3739273  )

     number of k points=    16
                       cart. coord. in units 2pi/alat
        k(    1) = (   0.0169354   0.0214335   0.0406785), wk =   0.1250000
        k(    2) = (   0.0169354   0.0214335   0.1078115), wk =   0.1250000
        k(    3) = (   0.0169354   0.0214335  -0.0935875), wk =   0.1250000
        k(    4) = (   0.0169354   0.0214335  -0.0264545), wk =   0.1250000
        k(    5) = (   0.0169354   0.0643004   0.0406785), wk =   0.1250000
        k(    6) = (   0.0169354   0.0643004   0.1078115), wk =   0.1250000
        k(    7) = (   0.0169354   0.0643004  -0.0935875), wk =   0.1250000
        k(    8) = (   0.0169354   0.0643004  -0.0264545), wk =   0.1250000
        k(    9) = (  -0.0169354   0.0214335  -0.0406785), wk =   0.1250000
        k(   10) = (  -0.0169354   0.0214335  -0.1078115), wk =   0.1250000
        k(   11) = (  -0.0169354   0.0214335   0.0935875), wk =   0.1250000
        k(   12) = (  -0.0169354   0.0214335   0.0264545), wk =   0.1250000
        k(   13) = (  -0.0169354   0.0643004  -0.0406785), wk =   0.1250000
        k(   14) = (  -0.0169354   0.0643004  -0.1078115), wk =   0.1250000
        k(   15) = (  -0.0169354   0.0643004   0.0935875), wk =   0.1250000
        k(   16) = (  -0.0169354   0.0643004   0.0264545), wk =   0.1250000

                       cryst. coord.
        k(    1) = (   0.2500000   0.1250000   0.1250000), wk =   0.1250000
        k(    2) = (   0.2500000   0.1250000   0.3750000), wk =   0.1250000
        k(    3) = (   0.2500000   0.1250000  -0.3750000), wk =   0.1250000
        k(    4) = (   0.2500000   0.1250000  -0.1250000), wk =   0.1250000
        k(    5) = (   0.2500000   0.3750000   0.1250000), wk =   0.1250000
        k(    6) = (   0.2500000   0.3750000   0.3750000), wk =   0.1250000
        k(    7) = (   0.2500000   0.3750000  -0.3750000), wk =   0.1250000
        k(    8) = (   0.2500000   0.3750000  -0.1250000), wk =   0.1250000
        k(    9) = (  -0.2500000   0.1250000  -0.1250000), wk =   0.1250000
        k(   10) = (  -0.2500000   0.1250000  -0.3750000), wk =   0.1250000
        k(   11) = (  -0.2500000   0.1250000   0.3750000), wk =   0.1250000
        k(   12) = (  -0.2500000   0.1250000   0.1250000), wk =   0.1250000
        k(   13) = (  -0.2500000   0.3750000  -0.1250000), wk =   0.1250000
        k(   14) = (  -0.2500000   0.3750000  -0.3750000), wk =   0.1250000
        k(   15) = (  -0.2500000   0.3750000   0.3750000), wk =   0.1250000
        k(   16) = (  -0.2500000   0.3750000   0.1250000), wk =   0.1250000

     Dense  grid:  1155489 G-vectors     FFT dimensions: ( 288, 120,  80)

     Smooth grid:   292295 G-vectors     FFT dimensions: ( 180,  72,  50)

     Estimated max dynamical RAM per process >     147.21MB

     Estimated total allocated dynamical RAM >    4710.62MB

     Initial potential from superposition of free atoms

     starting charge   83.99939, renormalised to   84.00000
     Starting wfc are   72 randomized atomic wfcs
     Checking if some PAW data can be deallocated... 
       node    0, deallocated PAW data for type:  1
       node    0, deallocated PAW data for type:  3
       node    1, deallocated PAW data for type:  1
       node    1, deallocated PAW data for type:  3
       node    2, deallocated PAW data for type:  2
       node    2, deallocated PAW data for type:  3
       node    3, deallocated PAW data for type:  2
       node    3, deallocated PAW data for type:  3
       node    4, deallocated PAW data for type:  2
       node    4, deallocated PAW data for type:  3
       node    5, deallocated PAW data for type:  2
       node    5, deallocated PAW data for type:  3
       node    6, deallocated PAW data for type:  1
       node    6, deallocated PAW data for type:  2
       node    7, deallocated PAW data for type:  1
       node    7, deallocated PAW data for type:  2
       node    8, deallocated PAW data for type:  2
       node    8, deallocated PAW data for type:  3
       node    9, deallocated PAW data for type:  2
       node    9, deallocated PAW data for type:  3
       node   10, deallocated PAW data for type:  1
       node   10, deallocated PAW data for type:  2
       node   11, deallocated PAW data for type:  1
       node   11, deallocated PAW data for type:  2
       node   12, deallocated PAW data for type:  1
       node   12, deallocated PAW data for type:  2
       node   13, deallocated PAW data for type:  1
       node   13, deallocated PAW data for type:  2
       node   14, deallocated PAW data for type:  2
       node   14, deallocated PAW data for type:  3
       node   15, deallocated PAW data for type:  2
       node   15, deallocated PAW data for type:  3
       node   16, deallocated PAW data for type:  1
       node   16, deallocated PAW data for type:  2
       node   17, deallocated PAW data for type:  2
       node   17, deallocated PAW data for type:  3
       node   18, deallocated PAW data for type:  2
       node   18, deallocated PAW data for type:  3
       node   19, deallocated PAW data for type:  1
       node   19, deallocated PAW data for type:  3
       node   20, deallocated PAW data for type:  1
       node   20, deallocated PAW data for type:  2
       node   21, deallocated PAW data for type:  2
       node   21, deallocated PAW data for type:  3
       node   22, deallocated PAW data for type:  1
       node   22, deallocated PAW data for type:  2
       node   23, deallocated PAW data for type:  2
       node   23, deallocated PAW data for type:  3
       node   24, deallocated PAW data for type:  2
       node   24, deallocated PAW data for type:  3
       node   25, deallocated PAW data for type:  1
       node   25, deallocated PAW data for type:  3
       node   26, deallocated PAW data for type:  1
       node   26, deallocated PAW data for type:  2
       node   27, deallocated PAW data for type:  2
       node   27, deallocated PAW data for type:  3
       node   28, deallocated PAW data for type:  1
       node   28, deallocated PAW data for type:  2
       node   29, deallocated PAW data for type:  2
       node   29, deallocated PAW data for type:  3
       node   30, deallocated PAW data for type:  2
       node   30, deallocated PAW data for type:  3
       node   31, deallocated PAW data for type:  1
       node   31, deallocated PAW data for type:  3

     total cpu time spent up to now is        5.4 secs

     per-process dynamical memory:    20.7 Mb

     Self-consistent Calculation

     iteration #  1     ecut=   100.00 Ry     beta= 0.70
     Davidson diagonalization with overlap
     ethr =  1.00E-04,  avg # of iterations =  4.8

     total cpu time spent up to now is       12.1 secs

     total energy              =    -547.13121796 Ry
     Harris-Foulkes estimate   =    -548.99839906 Ry
     estimated scf accuracy    <       2.73222885 Ry

     iteration #  2     ecut=   100.00 Ry     beta= 0.70
     Davidson diagonalization with overlap
     ethr =  3.25E-03,  avg # of iterations =  3.0

     total cpu time spent up to now is       16.9 secs

     total energy              =    -547.53117601 Ry
     Harris-Foulkes estimate   =    -548.61298717 Ry
     estimated scf accuracy    <       1.95355578 Ry

     iteration #  3     ecut=   100.00 Ry     beta= 0.70
     Davidson diagonalization with overlap
     ethr =  2.33E-03,  avg # of iterations =  2.9

     total cpu time spent up to now is       21.3 secs

     total energy              =    -548.01684047 Ry
     Harris-Foulkes estimate   =    -548.05915491 Ry
     estimated scf accuracy    <       0.08498190 Ry

     iteration #  4     ecut=   100.00 Ry     beta= 0.70
     Davidson diagonalization with overlap
     ethr =  1.01E-04,  avg # of iterations =  4.0

     total cpu time spent up to now is       26.0 secs

     total energy              =    -548.04461494 Ry
     Harris-Foulkes estimate   =    -548.05522251 Ry
     estimated scf accuracy    <       0.02097896 Ry

     iteration #  5     ecut=   100.00 Ry     beta= 0.70
     Davidson diagonalization with overlap
     ethr =  2.50E-05,  avg # of iterations =  3.0

     total cpu time spent up to now is       30.4 secs

     total energy              =    -548.04888599 Ry
     Harris-Foulkes estimate   =    -548.04940460 Ry
     estimated scf accuracy    <       0.00102959 Ry

     iteration #  6     ecut=   100.00 Ry     beta= 0.70
     Davidson diagonalization with overlap
     ethr =  1.23E-06,  avg # of iterations =  4.0

     total cpu time spent up to now is       35.2 secs

     total energy              =    -548.04908088 Ry
     Harris-Foulkes estimate   =    -548.04941105 Ry
     estimated scf accuracy    <       0.00075555 Ry

     iteration #  7     ecut=   100.00 Ry     beta= 0.70
     Davidson diagonalization with overlap
     ethr =  8.99E-07,  avg # of iterations =  4.0

     total cpu time spent up to now is       39.5 secs

     total energy              =    -548.04924771 Ry
     Harris-Foulkes estimate   =    -548.04929739 Ry
     estimated scf accuracy    <       0.00013759 Ry

     iteration #  8     ecut=   100.00 Ry     beta= 0.70
     Davidson diagonalization with overlap
     ethr =  1.64E-07,  avg # of iterations =  4.0

     total cpu time spent up to now is       43.9 secs

     total energy              =    -548.04927410 Ry
     Harris-Foulkes estimate   =    -548.04927664 Ry
     estimated scf accuracy    <       0.00000635 Ry

     iteration #  9     ecut=   100.00 Ry     beta= 0.70
     Davidson diagonalization with overlap
     ethr =  7.56E-09,  avg # of iterations =  4.0

     total cpu time spent up to now is       48.6 secs

     total energy              =    -548.04927566 Ry
     Harris-Foulkes estimate   =    -548.04927631 Ry
     estimated scf accuracy    <       0.00000144 Ry

     iteration # 10     ecut=   100.00 Ry     beta= 0.70
     Davidson diagonalization with overlap
     ethr =  1.71E-09,  avg # of iterations =  4.0

     total cpu time spent up to now is       53.1 secs

     total energy              =    -548.04927598 Ry
     Harris-Foulkes estimate   =    -548.04927606 Ry
     estimated scf accuracy    <       0.00000018 Ry

     iteration # 11     ecut=   100.00 Ry     beta= 0.70
     Davidson diagonalization with overlap
     ethr =  2.19E-10,  avg # of iterations =  4.0

     total cpu time spent up to now is       57.8 secs

     End of self-consistent calculation

          k = 0.0169 0.0214 0.0407 ( 36525 PWs)   bands (ev):

   -16.0919 -16.0591 -15.4208 -15.2974 -13.9761 -13.8506 -12.3815 -12.2784
   -11.2627 -11.1385  -9.0028  -8.9090  -8.2727  -8.1056  -6.3397  -6.2912
    -5.3621  -5.2726  -5.0806  -4.7525  -4.2065  -4.1540  -3.9966  -3.9189
    -3.1760  -3.1553  -2.7943  -2.5493  -2.3873  -2.3493  -2.2248  -2.1298
    -1.2134  -1.1065  -1.0285  -0.9452  -0.8990  -0.7381   0.0214   0.0409
     0.4645   0.8073

     occupation numbers 
     1.0000   1.0000   1.0000   1.0000   1.0000   1.0000   1.0000   1.0000
     1.0000   1.0000   1.0000   1.0000   1.0000   1.0000   1.0000   1.0000
     1.0000   1.0000   1.0000   1.0000   1.0000   1.0000   1.0000   1.0000
     1.0000   1.0000   1.0000   1.0000   1.0000   1.0000   1.0000   1.0000
     1.0000   1.0000   1.0000   1.0000   1.0000   1.0000   1.0000   1.0000
     1.0000   1.0000

          k = 0.0169 0.0214 0.1078 ( 36561 PWs)   bands (ev):

   -16.0030 -15.9639 -15.3721 -15.2618 -13.9784 -13.8287 -12.3306 -12.2703
   -11.3169 -11.1280  -8.9962  -8.8699  -8.2077  -8.0959  -6.3732  -6.2958
    -5.3615  -5.2604  -5.1323  -4.8930  -4.2739  -4.2266  -4.1254  -3.9456
    -3.7988  -3.6963  -2.8277  -2.7342  -2.5888  -2.4438  -2.4108  -2.2793
    -1.3068  -1.1029  -1.0462  -0.9776  -0.8743  -0.8039  -0.4158  -0.1261
     0.7304   0.8770

     occupation numbers 
     1.0000   1.0000   1.0000   1.0000   1.0000   1.0000   1.0000   1.0000
     1.0000   1.0000   1.0000   1.0000   1.0000   1.0000   1.0000   1.0000
     1.0000   1.0000   1.0000   1.0000   1.0000   1.0000   1.0000   1.0000
     1.0000   1.0000   1.0000   1.0000   1.0000   1.0000   1.0000   1.0000
     1.0000   1.0000   1.0000   1.0000   1.0000   1.0000   1.0000   1.0000
     1.0000   1.0000

          k = 0.0169 0.0214-0.0936 ( 36547 PWs)   bands (ev):

   -16.0098 -15.9546 -15.3786 -15.2577 -13.9815 -13.8278 -12.3360 -12.2637
   -11.3075 -11.1341  -8.9629  -8.9008  -8.2125  -8.0920  -6.3949  -6.2913
    -5.3499  -5.2708  -5.1671  -4.8565  -4.2793  -4.1576  -4.1093  -4.0240
    -3.8062  -3.6644  -2.8148  -2.6949  -2.6442  -2.4547  -2.3936  -2.3273
    -1.2623  -1.1431  -1.0275  -0.9756  -0.8995  -0.7998  -0.3537  -0.1615
     0.7431   0.8696

     occupation numbers 
     1.0000   1.0000   1.0000   1.0000   1.0000   1.0000   1.0000   1.0000
     1.0000   1.0000   1.0000   1.0000   1.0000   1.0000   1.0000   1.0000
     1.0000   1.0000   1.0000   1.0000   1.0000   1.0000   1.0000   1.0000
     1.0000   1.0000   1.0000   1.0000   1.0000   1.0000   1.0000   1.0000
     1.0000   1.0000   1.0000   1.0000   1.0000   1.0000   1.0000   1.0000
     1.0000   1.0000

          k = 0.0169 0.0214-0.0265 ( 36551 PWs)   bands (ev):

   -16.0978 -16.0511 -15.4271 -15.2931 -13.9779 -13.8509 -12.3872 -12.2718
   -11.2530 -11.1446  -8.9742  -8.9373  -8.2788  -8.0966  -6.3753  -6.2713
    -5.3492  -5.2868  -5.1180  -4.7131  -4.2256  -4.1601  -3.9578  -3.8839
    -3.1829  -3.1515  -2.8284  -2.5460  -2.4315  -2.3112  -2.2169  -2.1727
    -1.1334  -1.1111  -1.0301  -0.9967  -0.8874  -0.7545   0.0115   0.0672
     0.4747   0.8098

     occupation numbers 
     1.0000   1.0000   1.0000   1.0000   1.0000   1.0000   1.0000   1.0000
     1.0000   1.0000   1.0000   1.0000   1.0000   1.0000   1.0000   1.0000
     1.0000   1.0000   1.0000   1.0000   1.0000   1.0000   1.0000   1.0000
     1.0000   1.0000   1.0000   1.0000   1.0000   1.0000   1.0000   1.0000
     1.0000   1.0000   1.0000   1.0000   1.0000   1.0000   1.0000   1.0000
     1.0000   1.0000

          k = 0.0169 0.0643 0.0407 ( 36518 PWs)   bands (ev):

   -16.0617 -16.0339 -15.4225 -15.3118 -14.0049 -13.8835 -12.4314 -12.3170
   -11.2768 -11.1408  -8.9110  -8.8130  -8.1952  -8.0307  -6.3778  -6.2821
    -5.3077  -5.2380  -5.1111  -4.9240  -4.3948  -4.2646  -4.0152  -3.9640
    -3.2443  -3.1982  -2.7335  -2.5191  -2.4620  -2.3256  -2.1811  -2.1089
    -1.0857  -1.0372  -0.8973  -0.8800  -0.7874  -0.7498   0.0780   0.0934
     0.5191   0.8437

     occupation numbers 
     1.0000   1.0000   1.0000   1.0000   1.0000   1.0000   1.0000   1.0000
     1.0000   1.0000   1.0000   1.0000   1.0000   1.0000   1.0000   1.0000
     1.0000   1.0000   1.0000   1.0000   1.0000   1.0000   1.0000   1.0000
     1.0000   1.0000   1.0000   1.0000   1.0000   1.0000   1.0000   1.0000
     1.0000   1.0000   1.0000   1.0000   1.0000   1.0000   1.0000   1.0000
     1.0000   1.0000

          k = 0.0169 0.0643 0.1078 ( 36558 PWs)   bands (ev):

   -15.9824 -15.9503 -15.3695 -15.2661 -13.9859 -13.8520 -12.3653 -12.2901
   -11.3413 -11.1426  -8.9655  -8.8344  -8.1998  -8.0752  -6.3544  -6.2743
    -5.3341  -5.2467  -5.0293  -4.8493  -4.3821  -4.2182  -4.0374  -3.9827
    -3.9249  -3.8506  -2.8593  -2.6996  -2.5411  -2.4563  -2.3696  -2.3078
    -1.2291  -1.1595  -1.0263  -0.9917  -0.8670  -0.8152  -0.2612   0.0161
     0.7436   0.9109

     occupation numbers 
     1.0000   1.0000   1.0000   1.0000   1.0000   1.0000   1.0000   1.0000
     1.0000   1.0000   1.0000   1.0000   1.0000   1.0000   1.0000   1.0000
     1.0000   1.0000   1.0000   1.0000   1.0000   1.0000   1.0000   1.0000
     1.0000   1.0000   1.0000   1.0000   1.0000   1.0000   1.0000   1.0000
     1.0000   1.0000   1.0000   1.0000   1.0000   1.0000   1.0000   1.0000
     1.0000   1.0000

          k = 0.0169 0.0643-0.0936 ( 36547 PWs)   bands (ev):

   -15.9870 -15.9438 -15.3730 -15.2644 -13.9906 -13.8497 -12.3699 -12.2832
   -11.3347 -11.1474  -8.9327  -8.8642  -8.1846  -8.0916  -6.3709  -6.2822
    -5.3208  -5.2545  -5.0500  -4.8082  -4.3892  -4.2111  -4.0447  -4.0088
    -3.9107  -3.8046  -2.8701  -2.7132  -2.5887  -2.5043  -2.3538  -2.2460
    -1.1971  -1.1478  -1.0635  -1.0143  -0.8499  -0.8266  -0.2101  -0.0173
     0.7615   0.9030

     occupation numbers 
     1.0000   1.0000   1.0000   1.0000   1.0000   1.0000   1.0000   1.0000
     1.0000   1.0000   1.0000   1.0000   1.0000   1.0000   1.0000   1.0000
     1.0000   1.0000   1.0000   1.0000   1.0000   1.0000   1.0000   1.0000
     1.0000   1.0000   1.0000   1.0000   1.0000   1.0000   1.0000   1.0000
     1.0000   1.0000   1.0000   1.0000   1.0000   1.0000   1.0000   1.0000
     1.0000   1.0000

          k = 0.0169 0.0643-0.0265 ( 36489 PWs)   bands (ev):

   -16.0632 -16.0310 -15.4255 -15.3100 -14.0085 -13.8822 -12.4361 -12.3098
   -11.2709 -11.1453  -8.8847  -8.8369  -8.1740  -8.0507  -6.3993  -6.2919
    -5.3015  -5.2388  -5.1078  -4.9000  -4.3869  -4.2183  -4.0694  -3.9778
    -3.2220  -3.2037  -2.7568  -2.4939  -2.4415  -2.3642  -2.1690  -2.1238
    -1.0712  -1.0304  -0.9625  -0.8504  -0.7958  -0.7397   0.0593   0.1396
     0.5267   0.8421

     occupation numbers 
     1.0000   1.0000   1.0000   1.0000   1.0000   1.0000   1.0000   1.0000
     1.0000   1.0000   1.0000   1.0000   1.0000   1.0000   1.0000   1.0000
     1.0000   1.0000   1.0000   1.0000   1.0000   1.0000   1.0000   1.0000
     1.0000   1.0000   1.0000   1.0000   1.0000   1.0000   1.0000   1.0000
     1.0000   1.0000   1.0000   1.0000   1.0000   1.0000   1.0000   1.0000
     1.0000   1.0000

          k =-0.0169 0.0214-0.0407 ( 36525 PWs)   bands (ev):

   -16.0892 -16.0610 -15.4192 -15.2998 -13.9797 -13.8488 -12.3862 -12.2722
   -11.2574 -11.1413  -8.9695  -8.9398  -8.2492  -8.1332  -6.3790  -6.2668
    -5.3393  -5.2814  -5.0656  -4.7774  -4.2429  -4.1268  -4.0284  -3.8578
    -3.1685  -3.1379  -2.8140  -2.5675  -2.4344  -2.2900  -2.2420  -2.1382
    -1.1982  -1.0734  -1.0641  -0.9453  -0.8904  -0.7634   0.0141   0.0678
     0.4720   0.8109

     occupation numbers 
     1.0000   1.0000   1.0000   1.0000   1.0000   1.0000   1.0000   1.0000
     1.0000   1.0000   1.0000   1.0000   1.0000   1.0000   1.0000   1.0000
     1.0000   1.0000   1.0000   1.0000   1.0000   1.0000   1.0000   1.0000
     1.0000   1.0000   1.0000   1.0000   1.0000   1.0000   1.0000   1.0000
     1.0000   1.0000   1.0000   1.0000   1.0000   1.0000   1.0000   1.0000
     1.0000   1.0000

          k =-0.0169 0.0214-0.1078 ( 36561 PWs)   bands (ev):

   -16.0056 -15.9599 -15.3714 -15.2640 -13.9815 -13.8276 -12.3359 -12.2635
   -11.3097 -11.1325  -8.9623  -8.9003  -8.1873  -8.1206  -6.3949  -6.2916
    -5.3424  -5.2741  -5.1294  -4.8943  -4.2725  -4.2020  -4.1240  -3.9467
    -3.8451  -3.6555  -2.8214  -2.7187  -2.6261  -2.4427  -2.4187  -2.2825
    -1.3113  -1.1055  -1.0394  -0.9596  -0.8886  -0.8180  -0.3607  -0.1559
     0.7353   0.8783

     occupation numbers 
     1.0000   1.0000   1.0000   1.0000   1.0000   1.0000   1.0000   1.0000
     1.0000   1.0000   1.0000   1.0000   1.0000   1.0000   1.0000   1.0000
     1.0000   1.0000   1.0000   1.0000   1.0000   1.0000   1.0000   1.0000
     1.0000   1.0000   1.0000   1.0000   1.0000   1.0000   1.0000   1.0000
     1.0000   1.0000   1.0000   1.0000   1.0000   1.0000   1.0000   1.0000
     1.0000   1.0000

          k =-0.0169 0.0214 0.0936 ( 36547 PWs)   bands (ev):

   -16.0065 -15.9597 -15.3750 -15.2597 -13.9752 -13.8319 -12.3306 -12.2705
   -11.3149 -11.1295  -8.9958  -8.8712  -8.2186  -8.0820  -6.3844  -6.2910
    -5.3511  -5.2665  -5.1410  -4.8783  -4.2829  -4.2011  -4.1077  -3.9972
    -3.8110  -3.6886  -2.8062  -2.6580  -2.5974  -2.4741  -2.4129  -2.3398
    -1.2415  -1.1514  -1.0529  -0.9553  -0.9032  -0.7921  -0.4139  -0.1234
     0.7362   0.8711

     occupation numbers 
     1.0000   1.0000   1.0000   1.0000   1.0000   1.0000   1.0000   1.0000
     1.0000   1.0000   1.0000   1.0000   1.0000   1.0000   1.0000   1.0000
     1.0000   1.0000   1.0000   1.0000   1.0000   1.0000   1.0000   1.0000
     1.0000   1.0000   1.0000   1.0000   1.0000   1.0000   1.0000   1.0000
     1.0000   1.0000   1.0000   1.0000   1.0000   1.0000   1.0000   1.0000
     1.0000   1.0000

          k =-0.0169 0.0214 0.0265 ( 36551 PWs)   bands (ev):

   -16.0965 -16.0537 -15.4237 -15.2953 -13.9742 -13.8523 -12.3814 -12.2790
   -11.2620 -11.1386  -9.0019  -8.9116  -8.2809  -8.0922  -6.3885  -6.2464
    -5.3540  -5.2786  -5.0960  -4.7290  -4.2373  -4.1701  -3.9665  -3.8971
    -3.1790  -3.1544  -2.8066  -2.5715  -2.3594  -2.3330  -2.2073  -2.1862
    -1.1783  -1.0954  -1.0344  -0.9610  -0.9027  -0.7439   0.0204   0.0409
     0.4726   0.8026

     occupation numbers 
     1.0000   1.0000   1.0000   1.0000   1.0000   1.0000   1.0000   1.0000
     1.0000   1.0000   1.0000   1.0000   1.0000   1.0000   1.0000   1.0000
     1.0000   1.0000   1.0000   1.0000   1.0000   1.0000   1.0000   1.0000
     1.0000   1.0000   1.0000   1.0000   1.0000   1.0000   1.0000   1.0000
     1.0000   1.0000   1.0000   1.0000   1.0000   1.0000   1.0000   1.0000
     1.0000   1.0000

          k =-0.0169 0.0643-0.0407 ( 36518 PWs)   bands (ev):

   -16.0572 -16.0378 -15.4205 -15.3145 -14.0078 -13.8825 -12.4357 -12.3109
   -11.2717 -11.1435  -8.8805  -8.8415  -8.1593  -8.0699  -6.4000  -6.2780
    -5.2940  -5.2390  -5.0917  -4.9379  -4.4043  -4.2399  -4.0808  -3.9190
    -3.2201  -3.2028  -2.7315  -2.5135  -2.4448  -2.3784  -2.2088  -2.0799
    -1.0894  -1.0084  -0.9197  -0.8571  -0.8210  -0.7528   0.0565   0.1383
     0.5284   0.8446

     occupation numbers 
     1.0000   1.0000   1.0000   1.0000   1.0000   1.0000   1.0000   1.0000
     1.0000   1.0000   1.0000   1.0000   1.0000   1.0000   1.0000   1.0000
     1.0000   1.0000   1.0000   1.0000   1.0000   1.0000   1.0000   1.0000
     1.0000   1.0000   1.0000   1.0000   1.0000   1.0000   1.0000   1.0000
     1.0000   1.0000   1.0000   1.0000   1.0000   1.0000   1.0000   1.0000
     1.0000   1.0000

          k =-0.0169 0.0643-0.1078 ( 36558 PWs)   bands (ev):

   -15.9847 -15.9467 -15.3685 -15.2687 -13.9883 -13.8517 -12.3700 -12.2834
   -11.3345 -11.1470  -8.9325  -8.8647  -8.1769  -8.1016  -6.3687  -6.2783
    -5.3116  -5.2557  -5.0288  -4.8544  -4.3903  -4.1998  -4.0547  -3.9791
    -3.9226  -3.8295  -2.8369  -2.7060  -2.5634  -2.4677  -2.3795  -2.3048
    -1.2472  -1.1154  -1.0502  -1.0121  -0.8620  -0.8106  -0.2082  -0.0136
     0.7483   0.9117

     occupation numbers 
     1.0000   1.0000   1.0000   1.0000   1.0000   1.0000   1.0000   1.0000
     1.0000   1.0000   1.0000   1.0000   1.0000   1.0000   1.0000   1.0000
     1.0000   1.0000   1.0000   1.0000   1.0000   1.0000   1.0000   1.0000
     1.0000   1.0000   1.0000   1.0000   1.0000   1.0000   1.0000   1.0000
     1.0000   1.0000   1.0000   1.0000   1.0000   1.0000   1.0000   1.0000
     1.0000   1.0000

          k =-0.0169 0.0643 0.0936 ( 36547 PWs)   bands (ev):

   -15.9830 -15.9496 -15.3692 -15.2666 -13.9848 -13.8531 -12.3651 -12.2900
   -11.3415 -11.1431  -8.9644  -8.8348  -8.1965  -8.0767  -6.3732  -6.2681
    -5.3269  -5.2509  -5.0072  -4.8399  -4.3878  -4.2202  -4.0425  -4.0228
    -3.9195  -3.8307  -2.8529  -2.6806  -2.5710  -2.5165  -2.3248  -2.2812
    -1.1983  -1.1689  -1.0395  -0.9996  -0.8738  -0.8141  -0.2636   0.0162
     0.7591   0.9004

     occupation numbers 
     1.0000   1.0000   1.0000   1.0000   1.0000   1.0000   1.0000   1.0000
     1.0000   1.0000   1.0000   1.0000   1.0000   1.0000   1.0000   1.0000
     1.0000   1.0000   1.0000   1.0000   1.0000   1.0000   1.0000   1.0000
     1.0000   1.0000   1.0000   1.0000   1.0000   1.0000   1.0000   1.0000
     1.0000   1.0000   1.0000   1.0000   1.0000   1.0000   1.0000   1.0000
     1.0000   1.0000

          k =-0.0169 0.0643 0.0265 ( 36489 PWs)   bands (ev):

   -16.0615 -16.0342 -15.4216 -15.3126 -14.0057 -13.8827 -12.4305 -12.3170
   -11.2787 -11.1405  -8.9086  -8.8141  -8.1854  -8.0380  -6.4115  -6.2663
    -5.2972  -5.2369  -5.0861  -4.9191  -4.3851  -4.2355  -4.1111  -3.9581
    -3.2361  -3.1999  -2.7147  -2.5025  -2.4440  -2.3555  -2.1528  -2.1393
    -1.1154  -1.0084  -0.9151  -0.8419  -0.8258  -0.7361   0.0781   0.0965
     0.5259   0.8362

     occupation numbers 
     1.0000   1.0000   1.0000   1.0000   1.0000   1.0000   1.0000   1.0000
     1.0000   1.0000   1.0000   1.0000   1.0000   1.0000   1.0000   1.0000
     1.0000   1.0000   1.0000   1.0000   1.0000   1.0000   1.0000   1.0000
     1.0000   1.0000   1.0000   1.0000   1.0000   1.0000   1.0000   1.0000
     1.0000   1.0000   1.0000   1.0000   1.0000   1.0000   1.0000   1.0000
     1.0000   1.0000

     highest occupied level (ev):     0.9117

!    total energy              =    -548.04927602 Ry
     Harris-Foulkes estimate   =    -548.04927605 Ry
     estimated scf accuracy    <       0.00000003 Ry

     total all-electron energy =     -4615.892764 Ry

     The total energy is the sum of the following terms:

     one-electron contribution =    -154.13142106 Ry
     hartree contribution      =     108.45047202 Ry
     xc contribution           =    -104.24710795 Ry
     ewald contribution        =    -142.33824919 Ry
     one-center paw contrib.   =    -255.78296984 Ry
      -> PAW hartree energy AE =      19.23905421 Ry
      -> PAW hartree energy PS =     -19.13435427 Ry
      -> PAW xc energy AE      =     -55.66948793 Ry
      -> PAW xc energy PS      =      10.12242062 Ry
      -> total E_H with PAW    =     108.55517196 Ry
      -> total E_XC with PAW   =    -149.79417526 Ry

     convergence has been achieved in  11 iterations
 writing file ./scratch/scf-1403.save/charge-density
 writing file ./scratch/scf-1403.save/charge-density
 writing file ./scratch/scf-1403.save/charge-density
 writing file ./scratch/scf-1403.save/charge-density
 writing file ./scratch/scf-1403.save/charge-density
 writing file ./scratch/scf-1403.save/charge-density
 writing file ./scratch/scf-1403.save/charge-density
 writing file ./scratch/scf-1403.save/charge-density
 writing file ./scratch/scf-1403.save/charge-density
 writing file ./scratch/scf-1403.save/charge-density
 writing file ./scratch/scf-1403.save/charge-density
 writing file ./scratch/scf-1403.save/charge-density
 writing file ./scratch/scf-1403.save/charge-density
 writing file ./scratch/scf-1403.save/charge-density
 writing file ./scratch/scf-1403.save/charge-density
 writing file ./scratch/scf-1403.save/charge-density
 writing file ./scratch/scf-1403.save/charge-density
 writing file ./scratch/scf-1403.save/charge-density
 writing file ./scratch/scf-1403.save/charge-density
 writing file ./scratch/scf-1403.save/charge-density
 writing file ./scratch/scf-1403.save/charge-density
 writing file ./scratch/scf-1403.save/charge-density
 writing file ./scratch/scf-1403.save/charge-density
 writing file ./scratch/scf-1403.save/charge-density
 writing file ./scratch/scf-1403.save/charge-density
 writing file ./scratch/scf-1403.save/charge-density
 writing file ./scratch/scf-1403.save/charge-density
 writing file ./scratch/scf-1403.save/charge-density
 writing file ./scratch/scf-1403.save/charge-density
 writing file ./scratch/scf-1403.save/charge-density
 writing file ./scratch/scf-1403.save/charge-density
 writing file ./scratch/scf-1403.save/charge-density

     Forces acting on atoms (cartesian axes, Ry/au):

     atom    1 type  2   force =    -0.01906005    0.01916301   -0.00016465
     atom    2 type  1   force =     0.00470854   -0.00715478   -0.00276743
     atom    3 type  1   force =     0.00311579   -0.01091805    0.01753705
     atom    4 type  3   force =     0.00166506    0.00393057   -0.00160611
     atom    5 type  1   force =     0.01299562   -0.00088890   -0.02094966
     atom    6 type  3   force =    -0.00328633   -0.00241332    0.00304363
     atom    7 type  3   force =     0.00294283   -0.00075310   -0.00371214
     atom    8 type  1   force =    -0.00754622    0.00425981    0.03390532
     atom    9 type  3   force =     0.00144230    0.00376683    0.00120069
     atom   10 type  1   force =     0.00212539   -0.00214242   -0.02338417
     atom   11 type  1   force =    -0.01779491    0.00311109   -0.02025052
     atom   12 type  2   force =     0.03614153   -0.01546133    0.01869127
     atom   13 type  3   force =     0.00002213   -0.00134969    0.00276818
     atom   14 type  1   force =     0.00042310    0.01502725   -0.00747580
     atom   15 type  3   force =    -0.00080503    0.00080621   -0.00294231
     atom   16 type  1   force =    -0.00208769    0.00272064    0.01076536
     atom   17 type  1   force =     0.01596702   -0.02908033    0.00561720
     atom   18 type  2   force =    -0.02874477    0.02259426   -0.00551125
     atom   19 type  3   force =    -0.00214243   -0.00026263   -0.00128982
     atom   20 type  1   force =    -0.01247343   -0.00504918   -0.00749433
     atom   21 type  3   force =     0.00011383   -0.00300029    0.00262085
     atom   22 type  1   force =     0.00846008    0.00632875    0.01361125
     atom   23 type  1   force =    -0.00006006   -0.00631138   -0.01401318
     atom   24 type  2   force =     0.00387767    0.00307698    0.00180059
     The non-local contrib.  to forces
     atom    1 type  2   force =    -0.31095900    0.26694750   -0.01868429
     atom    2 type  1   force =     0.36275814   -0.29191229    0.01153428
     atom    3 type  1   force =    -0.02307553   -0.05482957   -0.01145516
     atom    4 type  3   force =    -0.06275356   -0.01611289   -0.04383682
     atom    5 type  1   force =    -0.00689427   -0.03149644   -0.07226132
     atom    6 type  3   force =    -0.00492416   -0.06788394   -0.03943164
     atom    7 type  3   force =     0.00799506   -0.06959135    0.03614684
     atom    8 type  1   force =     0.03064920   -0.02711359    0.07591439
     atom    9 type  3   force =     0.07117035   -0.02381237    0.02492964
     atom   10 type  1   force =     0.05481552   -0.04400671    0.01574097
     atom   11 type  1   force =    -0.43534746   -0.26674198    0.03988821
     atom   12 type  2   force =     0.35821632    0.17476593    0.02180082
     atom   13 type  3   force =     0.00316654    0.06660190    0.04156855
     atom   14 type  1   force =     0.02874664    0.05143615    0.02399537
     atom   15 type  3   force =     0.06433937    0.01848711    0.04147361
     atom   16 type  1   force =     0.02703341    0.05044450    0.04841778
     atom   17 type  1   force =    -0.38592229    0.27098159    0.00590607
     atom   18 type  2   force =     0.31226875   -0.23659550   -0.01392717
     atom   19 type  3   force =    -0.00805325    0.06950301   -0.03607753
     atom   20 type  1   force =    -0.06129581    0.05485636   -0.03223904
     atom   21 type  3   force =    -0.07094632    0.02580559   -0.02167483
     atom   22 type  1   force =    -0.03606927    0.04779969   -0.00370099
     atom   23 type  1   force =     0.41442892    0.24473399   -0.10817090
     atom   24 type  2   force =    -0.32808307   -0.21568951    0.05639966
     The ionic contribution  to forces
     atom    1 type  2   force =     4.03268087   -3.04154898    0.36484906
     atom    2 type  1   force =     1.98559455   -1.54031348    0.22549521
     atom    3 type  1   force =     3.97983767    1.80444684    2.34669161
     atom    4 type  3   force =     1.97634060    0.58088133    1.38553245
     atom    5 type  1   force =     0.48470942    3.79712671    2.51018727
     atom    6 type  3   force =     0.17130187    1.92459926    1.21544078
     atom    7 type  3   force =    -0.36296212    2.05588466   -1.10862744
     atom    8 type  1   force =    -0.83710886    4.29401774   -2.32017790
     atom    9 type  3   force =    -2.03657302    1.06750987   -0.82954093
     atom   10 type  1   force =    -3.91985816    2.68595556   -1.25135395
     atom   11 type  1   force =    -1.91383173   -1.90570666    0.69969451
     atom   12 type  2   force =    -4.98549040   -4.73584995   -0.34186485
     atom   13 type  3   force =    -0.42700582   -1.90672572   -1.36329333
     atom   14 type  1   force =    -1.63220748   -4.12166320   -2.48238890
     atom   15 type  3   force =    -2.09274093   -0.74099989   -1.37338288
     atom   16 type  1   force =    -4.54658513   -1.74085552   -3.07258751
     atom   17 type  1   force =    -2.51573271    1.53659557   -0.87088561
     atom   18 type  2   force =    -6.92170681    4.50755645   -0.90949579
     atom   19 type  3   force =     0.52296796   -1.98140359    1.14397754
     atom   20 type  1   force =     1.65127726   -4.46686068    2.40580830
     atom   21 type  3   force =     2.38443457   -0.94704822    0.85067391
     atom   22 type  1   force =     5.13900458   -2.47221621    1.90971097
     atom   23 type  1   force =     2.94046962    1.58705545    0.43221402
     atom   24 type  2   force =     6.92318420    3.75956267    0.43332347
     The local contribution  to forces
     atom    1 type  2   force =    -3.75365105    2.80506505   -0.34711505
     atom    2 type  1   force =    -2.33397370    1.81745055   -0.23942137
     atom    3 type  1   force =    -3.95223486   -1.76039345   -2.31708513
     atom    4 type  3   force =    -1.91191042   -0.56082555   -1.34329307
     atom    5 type  1   force =    -0.46493326   -3.76525296   -2.45840663
     atom    6 type  3   force =    -0.16966729   -1.85914899   -1.17297579
     atom    7 type  3   force =     0.35790798   -1.98704656    1.06876906
     atom    8 type  1   force =     0.79912079   -4.26134733    2.27764203
     atom    9 type  3   force =     1.96685616   -1.03993646    0.80581714
     atom   10 type  1   force =     3.86632838   -2.64358283    1.21242035
     atom   11 type  1   force =     2.32018191    2.16832020   -0.75796708
     atom   12 type  2   force =     4.67950514    4.55247795    0.34029868
     atom   13 type  3   force =     0.42384886    1.83874576    1.32447497
     atom   14 type  1   force =     1.60391837    4.08401791    2.45032308
     atom   15 type  3   force =     2.02759515    0.72332961    1.32896902
     atom   16 type  1   force =     4.51631222    1.69370715    3.03439676
     atom   17 type  1   force =     2.90821525   -1.82982604    0.87024582
     atom   18 type  2   force =     6.59204242   -4.25704310    0.91716311
     atom   19 type  3   force =    -0.51706420    1.91164905   -1.10919722
     atom   20 type  1   force =    -1.60327033    4.40590860   -2.38033996
     atom   21 type  3   force =    -2.31338424    0.91823831   -0.82638150
     atom   22 type  1   force =    -5.09337948    2.43042799   -1.89198456
     atom   23 type  1   force =    -3.34447568   -1.83158245   -0.34039859
     atom   24 type  2   force =    -6.60421870   -3.54942485   -0.48578105
     The core correction contribution to forces
     atom    1 type  2   force =     0.01302045   -0.01138659    0.00083964
     atom    2 type  1   force =    -0.00960415    0.00763244   -0.00034383
     atom    3 type  1   force =    -0.00142560   -0.00001990   -0.00057454
     atom    4 type  3   force =     0.00000000    0.00000000    0.00000000
     atom    5 type  1   force =     0.00008391   -0.00120049   -0.00045671
     atom    6 type  3   force =     0.00000000    0.00000000    0.00000000
     atom    7 type  3   force =     0.00000000    0.00000000    0.00000000
     atom    8 type  1   force =    -0.00024899   -0.00129394    0.00050855
     atom    9 type  3   force =     0.00000000    0.00000000    0.00000000
     atom   10 type  1   force =     0.00085077   -0.00054418   -0.00017561
     atom   11 type  1   force =     0.01120822    0.00722443   -0.00185782
     atom   12 type  2   force =    -0.01596557   -0.00680921   -0.00151138
     atom   13 type  3   force =     0.00000000    0.00000000    0.00000000
     atom   14 type  1   force =    -0.00012782    0.00124127    0.00055053
     atom   15 type  3   force =     0.00000000    0.00000000    0.00000000
     atom   16 type  1   force =     0.00103746   -0.00049898    0.00050556
     atom   17 type  1   force =     0.00939626   -0.00680172    0.00034947
     atom   18 type  2   force =    -0.01140501    0.00866009    0.00071730
     atom   19 type  3   force =     0.00000000    0.00000000    0.00000000
     atom   20 type  1   force =     0.00078434    0.00104756   -0.00074005
     atom   21 type  3   force =     0.00000000    0.00000000    0.00000000
     atom   22 type  1   force =    -0.00112923    0.00025630   -0.00040984
     atom   23 type  1   force =    -0.01052368   -0.00654574    0.00232774
     atom   24 type  2   force =     0.01297035    0.00865203   -0.00215870
     The Hubbard contrib.    to forces
     atom    1 type  2   force =     0.00000000    0.00000000    0.00000000
     atom    2 type  1   force =     0.00000000    0.00000000    0.00000000
     atom    3 type  1   force =     0.00000000    0.00000000    0.00000000
     atom    4 type  3   force =     0.00000000    0.00000000    0.00000000
     atom    5 type  1   force =     0.00000000    0.00000000    0.00000000
     atom    6 type  3   force =     0.00000000    0.00000000    0.00000000
     atom    7 type  3   force =     0.00000000    0.00000000    0.00000000
     atom    8 type  1   force =     0.00000000    0.00000000    0.00000000
     atom    9 type  3   force =     0.00000000    0.00000000    0.00000000
     atom   10 type  1   force =     0.00000000    0.00000000    0.00000000
     atom   11 type  1   force =     0.00000000    0.00000000    0.00000000
     atom   12 type  2   force =     0.00000000    0.00000000    0.00000000
     atom   13 type  3   force =     0.00000000    0.00000000    0.00000000
     atom   14 type  1   force =     0.00000000    0.00000000    0.00000000
     atom   15 type  3   force =     0.00000000    0.00000000    0.00000000
     atom   16 type  1   force =     0.00000000    0.00000000    0.00000000
     atom   17 type  1   force =     0.00000000    0.00000000    0.00000000
     atom   18 type  2   force =     0.00000000    0.00000000    0.00000000
     atom   19 type  3   force =     0.00000000    0.00000000    0.00000000
     atom   20 type  1   force =     0.00000000    0.00000000    0.00000000
     atom   21 type  3   force =     0.00000000    0.00000000    0.00000000
     atom   22 type  1   force =     0.00000000    0.00000000    0.00000000
     atom   23 type  1   force =     0.00000000    0.00000000    0.00000000
     atom   24 type  2   force =     0.00000000    0.00000000    0.00000000
     The SCF correction term to forces
     atom    1 type  2   force =    -0.00015184    0.00008636   -0.00005477
     atom    2 type  1   force =    -0.00006683   -0.00001166   -0.00003248
     atom    3 type  1   force =     0.00001358   -0.00012164   -0.00004048
     atom    4 type  3   force =    -0.00001210   -0.00001199   -0.00000942
     atom    5 type  1   force =     0.00002928   -0.00006538   -0.00001304
     atom    6 type  3   force =     0.00000271    0.00002069    0.00000954
     atom    7 type  3   force =     0.00000137    0.00000049   -0.00000137
     atom    8 type  1   force =     0.00004110   -0.00000273    0.00001749
     atom    9 type  3   force =    -0.00001172    0.00000612   -0.00000591
     atom   10 type  1   force =    -0.00001167    0.00003607   -0.00001670
     atom   11 type  1   force =    -0.00000639    0.00001544   -0.00000910
     atom   12 type  2   force =    -0.00012450   -0.00004571   -0.00003276
     atom   13 type  3   force =     0.00001201    0.00002870    0.00001724
     atom   14 type  1   force =     0.00009284   -0.00000454    0.00004338
     atom   15 type  3   force =     0.00000084   -0.00001028   -0.00000281
     atom   16 type  1   force =     0.00011382   -0.00007617    0.00003203
     atom   17 type  1   force =     0.00000999   -0.00002940    0.00000069
     atom   18 type  2   force =     0.00005533    0.00001667    0.00003054
     atom   19 type  3   force =     0.00000654   -0.00001076    0.00000664
     atom   20 type  1   force =     0.00003057   -0.00000069    0.00001566
     atom   21 type  3   force =     0.00000928    0.00000437    0.00000251
     atom   22 type  1   force =     0.00003295    0.00006132   -0.00000509
     atom   23 type  1   force =     0.00004023    0.00002771    0.00001379
     atom   24 type  2   force =     0.00002436   -0.00002303    0.00001646

     Total force =     0.100520     Total SCF correction =     0.000364

     Writing output data file scf-1403.save
 writing file ./scratch/scf-1403.save/charge-density
 writing file ./scratch/scf-1403.save/charge-density
 writing file ./scratch/scf-1403.save/charge-density
 writing file ./scratch/scf-1403.save/charge-density
 writing file ./scratch/scf-1403.save/charge-density
 writing file ./scratch/scf-1403.save/charge-density
 writing file ./scratch/scf-1403.save/charge-density
 writing file ./scratch/scf-1403.save/charge-density
 writing file ./scratch/scf-1403.save/charge-density
 writing file ./scratch/scf-1403.save/charge-density
 writing file ./scratch/scf-1403.save/charge-density
 writing file ./scratch/scf-1403.save/charge-density
 writing file ./scratch/scf-1403.save/charge-density
 writing file ./scratch/scf-1403.save/charge-density
 writing file ./scratch/scf-1403.save/charge-density
 writing file ./scratch/scf-1403.save/charge-density
 writing file ./scratch/scf-1403.save/charge-density
 writing file ./scratch/scf-1403.save/charge-density
 writing file ./scratch/scf-1403.save/charge-density
 writing file ./scratch/scf-1403.save/charge-density
 writing file ./scratch/scf-1403.save/charge-density
 writing file ./scratch/scf-1403.save/charge-density
 writing file ./scratch/scf-1403.save/charge-density
 writing file ./scratch/scf-1403.save/charge-density
 writing file ./scratch/scf-1403.save/charge-density
 writing file ./scratch/scf-1403.save/charge-density
 writing file ./scratch/scf-1403.save/charge-density
 writing file ./scratch/scf-1403.save/charge-density
 writing file ./scratch/scf-1403.save/charge-density
 writing file ./scratch/scf-1403.save/charge-density
 writing file ./scratch/scf-1403.save/charge-density
 writing file ./scratch/scf-1403.save/charge-density
 
     init_run     :      4.41s CPU      4.78s WALL (       1 calls)
     electrons    :     49.57s CPU     52.47s WALL (       1 calls)
     forces       :      2.35s CPU      2.49s WALL (       1 calls)

     Called by init_run:
     wfcinit      :      1.61s CPU      1.81s WALL (       1 calls)
     wfcinit:atom :      0.01s CPU      0.02s WALL (      16 calls)
     wfcinit:wfcr :      1.48s CPU      1.69s WALL (      16 calls)
     potinit      :      0.88s CPU      0.91s WALL (       1 calls)

     Called by electrons:
     c_bands      :     38.84s CPU     39.12s WALL (      11 calls)
     sum_band     :      6.63s CPU      7.90s WALL (      11 calls)
     v_of_rho     :      0.92s CPU      0.97s WALL (      12 calls)
     v_h          :      0.05s CPU      0.06s WALL (      12 calls)
     v_xc         :      0.94s CPU      0.99s WALL (      13 calls)
     newd         :      1.55s CPU      2.85s WALL (      12 calls)
     PAW_pot      :      1.64s CPU      1.69s WALL (      12 calls)
     mix_rho      :      0.13s CPU      0.14s WALL (      11 calls)

     Called by c_bands:
     init_us_2    :      0.79s CPU      0.86s WALL (     384 calls)
     cegterg      :     36.59s CPU     36.76s WALL (     176 calls)

     Called by sum_band:
     sum_band:bec :      0.03s CPU      0.02s WALL (     176 calls)
     addusdens    :      1.47s CPU      2.69s WALL (      11 calls)

     Called by *egterg:
     h_psi        :     27.28s CPU     27.51s WALL (     859 calls)
     s_psi        :      2.09s CPU      2.05s WALL (     859 calls)
     g_psi        :      0.16s CPU      0.16s WALL (     667 calls)
     cdiaghg      :      3.48s CPU      3.48s WALL (     843 calls)
     cegterg:over :      1.62s CPU      1.63s WALL (     667 calls)
     cegterg:upda :      1.20s CPU      1.28s WALL (     667 calls)
     cegterg:last :      0.48s CPU      0.44s WALL (     192 calls)

     Called by h_psi:
     h_psi:pot    :     27.01s CPU     27.23s WALL (     859 calls)
     h_psi:calbec :      2.28s CPU      2.41s WALL (     859 calls)
     vloc_psi     :     22.70s CPU     22.81s WALL (     859 calls)
     add_vuspsi   :      2.00s CPU      2.00s WALL (     859 calls)

     General routines
     calbec       :      3.06s CPU      3.17s WALL (    1099 calls)
     fft          :      0.74s CPU      0.78s WALL (     199 calls)
     ffts         :      0.02s CPU      0.03s WALL (      23 calls)
     fftw         :     21.66s CPU     21.70s WALL (   55576 calls)
     interpolate  :      0.13s CPU      0.15s WALL (      23 calls)
     davcio       :      0.00s CPU      0.01s WALL (      16 calls)
 
     Parallel routines
     fft_scatter  :      8.01s CPU      7.92s WALL (   55798 calls)

     PAW routines
     PAW_pot      :      1.64s CPU      1.69s WALL (      12 calls)
 
     PWSCF        :  0m57.02s CPU     1m 0.86s WALL

 
   This run was terminated on:  15:30:46  22May2017            

=------------------------------------------------------------------------------=
   JOB DONE.
=------------------------------------------------------------------------------=
