
     Program PWSCF v.6.1 starts on 20May2017 at 13:17:10 

     This program is part of the open-source Quantum ESPRESSO suite
     for quantum simulation of materials; please cite
         "P. Giannozzi et al., J. Phys.:Condens. Matter 21 395502 (2009);
          URL http://www.quantum-espresso.org", 
     in publications or presentations arising from this work. More details at
     http://www.quantum-espresso.org/quote

     Parallel version (MPI & OpenMP), running on      32 processor cores
     Number of MPI processes:                32
     Threads/MPI process:                     1
     R & G space division:  proc/nbgrp/npool/nimage =      32
     Waiting for input...
     Reading input from standard input
Warning: card &IONS ignored
Warning: card     ION_TEMPERATURE   = 'INITIAL' ignored
Warning: card     TEMPW             = 586.D0 ignored
Warning: card     TOLP              = 100.D0 ignored
Warning: card     DELTA_T           = 1.D0 ignored
Warning: card     NRAISE            = 1 ignored
Warning: card / ignored
Warning: card &CELL ignored
Warning: card     CELL_DYNAMICS     = 'BFGS' ignored
Warning: card / ignored

     Current dimensions of program PWSCF are:
     Max number of different atomic species (ntypx) = 10
     Max number of k-points (npk) =  40000
     Max angular momentum in pseudopotentials (lmaxx) =  3
               file C.pbe-n-kjpaw_psl.1.0.0.UPF: wavefunction(s)  2S 2P renormalized
               file Cl.pbe-n-kjpaw_psl.1.0.0.UPF: wavefunction(s)  3S 3P renormalized
               file H.pbe-kjpaw_psl.1.0.0.UPF: wavefunction(s)  1S renormalized

     Subspace diagonalization in iterative solution of the eigenvalue problem:
     a serial algorithm will be used

 
     Parallelization info
     --------------------
     sticks:   dense  smooth     PW     G-vecs:    dense   smooth      PW
     Min         764     305     83                36108     9133    1292
     Max         765     306     84                36110     9135    1293
     Sum       24467    9791   2657              1155489   292295   41363
 


     bravais-lattice index     =            0
     lattice parameter (alat)  =       1.8897  a.u.
     unit-cell volume          =    2163.5316 (a.u.)^3
     number of atoms/cell      =           24
     number of atomic types    =            3
     number of electrons       =        84.00
     number of Kohn-Sham states=           42
     kinetic-energy cutoff     =     100.0000  Ry
     charge density cutoff     =    1000.0000  Ry
     convergence threshold     =      1.0E-07
     mixing beta               =       0.7000
     number of iterations used =            8  plain     mixing
     Exchange-correlation      =  SLA  PW   PBX  PBC ( 1  4  3  4 0 0)

     celldm(1)=   1.889726  celldm(2)=   0.000000  celldm(3)=   0.000000
     celldm(4)=   0.000000  celldm(5)=   0.000000  celldm(6)=   0.000000

     crystal axes: (cart. coord. in units of alat)
               a(1) = (  14.762000   0.000000   0.000000 )  
               a(2) = (   0.000000   5.832000   0.000000 )  
               a(3) = (  -1.563876   0.000000   3.723951 )  

     reciprocal axes: (cart. coord. in units 2 pi/alat)
               b(1) = (  0.067741  0.000000  0.028448 )  
               b(2) = (  0.000000  0.171468  0.000000 )  
               b(3) = (  0.000000  0.000000  0.268532 )  


     PseudoPot. # 1 for  C read from file:
     /global/cscratch1/sd/almno10/.data/PSEUDOPOTENTIALS/C.pbe-n-kjpaw_psl.1.0.0.UPF
     MD5 check sum: 2ba8448e293caca687844dde9a1b88a8
     Pseudo is Projector augmented-wave + core cor, Zval =  4.0
     Generated using "atomic" code by A. Dal Corso  v.5.3.0 svn rev. 11974
     Shape of augmentation charge: PSQ
     Using radial grid of 1073 points,  4 beta functions with: 
                l(1) =   0
                l(2) =   0
                l(3) =   1
                l(4) =   1
     Q(r) pseudized with 0 coefficients 


     PseudoPot. # 2 for Cl read from file:
     /global/cscratch1/sd/almno10/.data/PSEUDOPOTENTIALS/Cl.pbe-n-kjpaw_psl.1.0.0.UPF
     MD5 check sum: dca63699d6b897c5771335df08a09219
     Pseudo is Projector augmented-wave + core cor, Zval =  7.0
     Generated using "atomic" code by A. Dal Corso  v.5.3.0 svn rev. 11974
     Shape of augmentation charge: PSQ
     Using radial grid of 1157 points,  6 beta functions with: 
                l(1) =   0
                l(2) =   0
                l(3) =   1
                l(4) =   1
                l(5) =   2
                l(6) =   2
     Q(r) pseudized with 0 coefficients 


     PseudoPot. # 3 for  H read from file:
     /global/cscratch1/sd/almno10/.data/PSEUDOPOTENTIALS/H.pbe-kjpaw_psl.1.0.0.UPF
     MD5 check sum: bc0feb48a24907a0b97fa6ee2d589a29
     Pseudo is Projector augmented-wave, Zval =  1.0
     Generated using "atomic" code by A. Dal Corso  v.5.3.0 svn rev. 11974
     Shape of augmentation charge: PSQ
     Using radial grid of  929 points,  2 beta functions with: 
                l(1) =   0
                l(2) =   0
     Q(r) pseudized with 0 coefficients 


     atomic species   valence    mass     pseudopotential
        C              4.00    12.01100      C( 1.00)
        Cl             7.00    35.45270     Cl( 1.00)
        H              1.00     1.00790      H( 1.00)

     No symmetry found


                                    s                        frac. trans.

      isym =  1     identity                                     

 cryst.   s( 1) = (     1          0          0      )
                  (     0          1          0      )
                  (     0          0          1      )

 cart.    s( 1) = (  1.0000000  0.0000000 -0.0000000 )
                  (  0.0000000  1.0000000  0.0000000 )
                  (  0.0000000  0.0000000  1.0000000 )


   Cartesian axes

     site n.     atom                  positions (alat units)
         1           Cl  tau(   1) = (  16.4240983   1.2315416   2.2108767  )
         2           C   tau(   2) = (  15.1420252   2.3040115   1.9650443  )
         3           C   tau(   3) = (  15.1881287   3.5093872   2.6640945  )
         4           H   tau(   4) = (  15.9694471   3.7103100   3.3954929  )
         5           C   tau(   5) = (  14.0923702   4.3645012   2.5621629  )
         6           H   tau(   6) = (  14.0918595   5.3112540   3.0991238  )
         7           H   tau(   7) = (   6.1419438   1.8375771   0.5704336  )
         8           C   tau(   8) = (   6.2994669   0.9398829   1.1655239  )
         9           H   tau(   9) = (   4.2582411   0.2712242   0.9716007  )
        10           C   tau(  10) = (   5.2500617   0.0415403   1.3587348  )
        11           C   tau(  11) = (   5.4338487  -1.1175715   2.1116055  )
        12           Cl  tau(  12) = (   4.0612051  -2.1379701   2.3817443  )
        13           H   tau(  13) = (  14.1331706   1.1063926   0.4913606  )
        14           C   tau(  14) = (  14.0956758   2.0144909   1.0897805  )
        15           H   tau(  15) = (  12.2852675   2.7342948   0.1679146  )
        16           C   tau(  16) = (  13.0983362   2.9601292   0.8549330  )
        17           C   tau(  17) = (  13.0857607   4.1090217   1.6318911  )
        18           Cl  tau(  18) = (  11.5643845   5.1830792   1.5624705  )
        19           H   tau(  19) = (   6.8323500  -2.3317514   3.2564634  )
        20           C   tau(  20) = (   6.6825425  -1.4487715   2.6374704  )
        21           H   tau(  21) = (   8.7132412  -0.7629915   2.8570663  )
        22           C   tau(  22) = (   7.7257557  -0.5424601   2.4571753  )
        23           C   tau(  23) = (   7.5505982   0.5973153   1.6742844  )
        24           Cl  tau(  24) = (   9.0479265   1.4695363   1.3532018  )

   Crystallographic axes

     site n.     atom                  positions (cryst. coord.)
         1           Cl  tau(   1) = (  1.1754882  0.2111697  0.5936911  )
         2           C   tau(   2) = (  1.0816452  0.3950637  0.5276772  )
         3           C   tau(   3) = (  1.1046550  0.6017468  0.7153945  )
         4           H   tau(   4) = (  1.1783895  0.6361986  0.9117984  )
         5           C   tau(   5) = (  1.0275269  0.7483713  0.6880226  )
         6           H   tau(   6) = (  1.0427678  0.9107088  0.8322138  )
         7           H   tau(   7) = (  0.4322922  0.3150852  0.1531797  )
         8           C   tau(   8) = (  0.4598922  0.1611596  0.3129804  )
         9           H   tau(   9) = (  0.3160998  0.0465062  0.2609059  )
        10           C   tau(  10) = (  0.3943004  0.0071228  0.3648637  )
        11           C   tau(  11) = (  0.4281682 -0.1916275  0.5670336  )
        12           Cl  tau(  12) = (  0.3428682 -0.3665930  0.6395745  )
        13           H   tau(  13) = (  0.9713804  0.1897107  0.1319460  )
        14           C   tau(  14) = (  0.9858644  0.3454203  0.2926409  )
        15           H   tau(  15) = (  0.8369993  0.4688434  0.0450904  )
        16           C   tau(  16) = (  0.9116221  0.5075667  0.2295768  )
        17           C   tau(  17) = (  0.9328732  0.7045648  0.4382149  )
        18           Cl  tau(  18) = (  0.8278380  0.8887310  0.4195733  )
        19           H   tau(  19) = (  0.5554738 -0.3998202  0.8744645  )
        20           C   tau(  20) = (  0.5277164 -0.2484176  0.7082451  )
        21           H   tau(  21) = (  0.6715261 -0.1308284  0.7672136  )
        22           C   tau(  22) = (  0.5932562 -0.0930144  0.6598301  )
        23           C   tau(  23) = (  0.5591190  0.1024203  0.4495989  )
        24           Cl  tau(  24) = (  0.6514161  0.2519781  0.3633779  )

     number of k points=    16
                       cart. coord. in units 2pi/alat
        k(    1) = (   0.0169354   0.0214335   0.0406785), wk =   0.1250000
        k(    2) = (   0.0169354   0.0214335   0.1078115), wk =   0.1250000
        k(    3) = (   0.0169354   0.0214335  -0.0935875), wk =   0.1250000
        k(    4) = (   0.0169354   0.0214335  -0.0264545), wk =   0.1250000
        k(    5) = (   0.0169354   0.0643004   0.0406785), wk =   0.1250000
        k(    6) = (   0.0169354   0.0643004   0.1078115), wk =   0.1250000
        k(    7) = (   0.0169354   0.0643004  -0.0935875), wk =   0.1250000
        k(    8) = (   0.0169354   0.0643004  -0.0264545), wk =   0.1250000
        k(    9) = (  -0.0169354   0.0214335  -0.0406785), wk =   0.1250000
        k(   10) = (  -0.0169354   0.0214335  -0.1078115), wk =   0.1250000
        k(   11) = (  -0.0169354   0.0214335   0.0935875), wk =   0.1250000
        k(   12) = (  -0.0169354   0.0214335   0.0264545), wk =   0.1250000
        k(   13) = (  -0.0169354   0.0643004  -0.0406785), wk =   0.1250000
        k(   14) = (  -0.0169354   0.0643004  -0.1078115), wk =   0.1250000
        k(   15) = (  -0.0169354   0.0643004   0.0935875), wk =   0.1250000
        k(   16) = (  -0.0169354   0.0643004   0.0264545), wk =   0.1250000

                       cryst. coord.
        k(    1) = (   0.2500000   0.1250000   0.1250000), wk =   0.1250000
        k(    2) = (   0.2500000   0.1250000   0.3750000), wk =   0.1250000
        k(    3) = (   0.2500000   0.1250000  -0.3750000), wk =   0.1250000
        k(    4) = (   0.2500000   0.1250000  -0.1250000), wk =   0.1250000
        k(    5) = (   0.2500000   0.3750000   0.1250000), wk =   0.1250000
        k(    6) = (   0.2500000   0.3750000   0.3750000), wk =   0.1250000
        k(    7) = (   0.2500000   0.3750000  -0.3750000), wk =   0.1250000
        k(    8) = (   0.2500000   0.3750000  -0.1250000), wk =   0.1250000
        k(    9) = (  -0.2500000   0.1250000  -0.1250000), wk =   0.1250000
        k(   10) = (  -0.2500000   0.1250000  -0.3750000), wk =   0.1250000
        k(   11) = (  -0.2500000   0.1250000   0.3750000), wk =   0.1250000
        k(   12) = (  -0.2500000   0.1250000   0.1250000), wk =   0.1250000
        k(   13) = (  -0.2500000   0.3750000  -0.1250000), wk =   0.1250000
        k(   14) = (  -0.2500000   0.3750000  -0.3750000), wk =   0.1250000
        k(   15) = (  -0.2500000   0.3750000   0.3750000), wk =   0.1250000
        k(   16) = (  -0.2500000   0.3750000   0.1250000), wk =   0.1250000

     Dense  grid:  1155489 G-vectors     FFT dimensions: ( 288, 120,  80)

     Smooth grid:   292295 G-vectors     FFT dimensions: ( 180,  72,  50)

     Estimated max dynamical RAM per process >     147.21MB

     Estimated total allocated dynamical RAM >    4710.62MB

     Initial potential from superposition of free atoms

     starting charge   83.99939, renormalised to   84.00000
     Starting wfc are   72 randomized atomic wfcs
     Checking if some PAW data can be deallocated... 
       node    0, deallocated PAW data for type:  1
       node    0, deallocated PAW data for type:  3
       node    1, deallocated PAW data for type:  1
       node    1, deallocated PAW data for type:  3
       node    2, deallocated PAW data for type:  2
       node    2, deallocated PAW data for type:  3
       node    3, deallocated PAW data for type:  2
       node    3, deallocated PAW data for type:  3
       node    4, deallocated PAW data for type:  2
       node    4, deallocated PAW data for type:  3
       node    5, deallocated PAW data for type:  2
       node    5, deallocated PAW data for type:  3
       node    6, deallocated PAW data for type:  1
       node    6, deallocated PAW data for type:  2
       node    7, deallocated PAW data for type:  1
       node    7, deallocated PAW data for type:  2
       node    8, deallocated PAW data for type:  2
       node    8, deallocated PAW data for type:  3
       node    9, deallocated PAW data for type:  2
       node    9, deallocated PAW data for type:  3
       node   10, deallocated PAW data for type:  1
       node   10, deallocated PAW data for type:  2
       node   11, deallocated PAW data for type:  1
       node   11, deallocated PAW data for type:  2
       node   12, deallocated PAW data for type:  1
       node   12, deallocated PAW data for type:  2
       node   13, deallocated PAW data for type:  1
       node   13, deallocated PAW data for type:  2
       node   14, deallocated PAW data for type:  2
       node   14, deallocated PAW data for type:  3
       node   15, deallocated PAW data for type:  2
       node   15, deallocated PAW data for type:  3
       node   16, deallocated PAW data for type:  1
       node   16, deallocated PAW data for type:  2
       node   17, deallocated PAW data for type:  2
       node   17, deallocated PAW data for type:  3
       node   18, deallocated PAW data for type:  2
       node   18, deallocated PAW data for type:  3
       node   19, deallocated PAW data for type:  1
       node   19, deallocated PAW data for type:  3
       node   20, deallocated PAW data for type:  1
       node   20, deallocated PAW data for type:  2
       node   21, deallocated PAW data for type:  2
       node   21, deallocated PAW data for type:  3
       node   22, deallocated PAW data for type:  1
       node   22, deallocated PAW data for type:  2
       node   23, deallocated PAW data for type:  2
       node   23, deallocated PAW data for type:  3
       node   24, deallocated PAW data for type:  2
       node   24, deallocated PAW data for type:  3
       node   25, deallocated PAW data for type:  1
       node   25, deallocated PAW data for type:  3
       node   26, deallocated PAW data for type:  1
       node   26, deallocated PAW data for type:  2
       node   27, deallocated PAW data for type:  2
       node   27, deallocated PAW data for type:  3
       node   28, deallocated PAW data for type:  1
       node   28, deallocated PAW data for type:  2
       node   29, deallocated PAW data for type:  2
       node   29, deallocated PAW data for type:  3
       node   30, deallocated PAW data for type:  2
       node   30, deallocated PAW data for type:  3
       node   31, deallocated PAW data for type:  1
       node   31, deallocated PAW data for type:  3

     total cpu time spent up to now is        5.2 secs

     per-process dynamical memory:    20.7 Mb

     Self-consistent Calculation

     iteration #  1     ecut=   100.00 Ry     beta= 0.70
     Davidson diagonalization with overlap
     ethr =  1.00E-04,  avg # of iterations =  5.0

     total cpu time spent up to now is       11.9 secs

     total energy              =    -547.11213316 Ry
     Harris-Foulkes estimate   =    -548.98906356 Ry
     estimated scf accuracy    <       2.74326383 Ry

     iteration #  2     ecut=   100.00 Ry     beta= 0.70
     Davidson diagonalization with overlap
     ethr =  3.27E-03,  avg # of iterations =  3.0

     total cpu time spent up to now is       16.8 secs

     total energy              =    -547.50836530 Ry
     Harris-Foulkes estimate   =    -548.61336097 Ry
     estimated scf accuracy    <       2.00212620 Ry

     iteration #  3     ecut=   100.00 Ry     beta= 0.70
     Davidson diagonalization with overlap
     ethr =  2.38E-03,  avg # of iterations =  3.0

     total cpu time spent up to now is       21.1 secs

     total energy              =    -548.00480116 Ry
     Harris-Foulkes estimate   =    -548.04943948 Ry
     estimated scf accuracy    <       0.08924587 Ry

     iteration #  4     ecut=   100.00 Ry     beta= 0.70
     Davidson diagonalization with overlap
     ethr =  1.06E-04,  avg # of iterations =  4.0

     total cpu time spent up to now is       25.9 secs

     total energy              =    -548.03330262 Ry
     Harris-Foulkes estimate   =    -548.04496717 Ry
     estimated scf accuracy    <       0.02326839 Ry

     iteration #  5     ecut=   100.00 Ry     beta= 0.70
     Davidson diagonalization with overlap
     ethr =  2.77E-05,  avg # of iterations =  3.0

     total cpu time spent up to now is       30.3 secs

     total energy              =    -548.03807230 Ry
     Harris-Foulkes estimate   =    -548.03863063 Ry
     estimated scf accuracy    <       0.00114437 Ry

     iteration #  6     ecut=   100.00 Ry     beta= 0.70
     Davidson diagonalization with overlap
     ethr =  1.36E-06,  avg # of iterations =  4.0

     total cpu time spent up to now is       35.2 secs

     total energy              =    -548.03837610 Ry
     Harris-Foulkes estimate   =    -548.03856557 Ry
     estimated scf accuracy    <       0.00039023 Ry

     iteration #  7     ecut=   100.00 Ry     beta= 0.70
     Davidson diagonalization with overlap
     ethr =  4.65E-07,  avg # of iterations =  4.0

     total cpu time spent up to now is       39.8 secs

     total energy              =    -548.03846139 Ry
     Harris-Foulkes estimate   =    -548.03849727 Ry
     estimated scf accuracy    <       0.00008145 Ry

     iteration #  8     ecut=   100.00 Ry     beta= 0.70
     Davidson diagonalization with overlap
     ethr =  9.70E-08,  avg # of iterations =  4.0

     total cpu time spent up to now is       44.4 secs

     total energy              =    -548.03847672 Ry
     Harris-Foulkes estimate   =    -548.03849140 Ry
     estimated scf accuracy    <       0.00003761 Ry

     iteration #  9     ecut=   100.00 Ry     beta= 0.70
     Davidson diagonalization with overlap
     ethr =  4.48E-08,  avg # of iterations =  4.0

     total cpu time spent up to now is       48.6 secs

     total energy              =    -548.03848413 Ry
     Harris-Foulkes estimate   =    -548.03848560 Ry
     estimated scf accuracy    <       0.00000364 Ry

     iteration # 10     ecut=   100.00 Ry     beta= 0.70
     Davidson diagonalization with overlap
     ethr =  4.34E-09,  avg # of iterations =  4.0

     total cpu time spent up to now is       53.1 secs

     total energy              =    -548.03848493 Ry
     Harris-Foulkes estimate   =    -548.03848518 Ry
     estimated scf accuracy    <       0.00000055 Ry

     iteration # 11     ecut=   100.00 Ry     beta= 0.70
     Davidson diagonalization with overlap
     ethr =  6.58E-10,  avg # of iterations =  4.0

     total cpu time spent up to now is       57.7 secs

     End of self-consistent calculation

          k = 0.0169 0.0214 0.0407 ( 36525 PWs)   bands (ev):

   -16.2872 -16.0050 -15.3229 -15.1675 -13.8810 -13.8209 -12.4236 -12.2430
   -11.3833 -11.1325  -9.0490  -8.8779  -8.2704  -8.1150  -6.4149  -6.1603
    -5.3762  -5.2296  -5.0409  -4.7471  -4.2057  -4.1594  -4.1047  -3.8163
    -3.3369  -3.0268  -2.7360  -2.6078  -2.4665  -2.1915  -2.1006  -2.0704
    -1.2349  -1.1520  -1.0342  -1.0061  -0.8553  -0.7546  -0.2108   0.1389
     0.5236   0.7032

     occupation numbers 
     1.0000   1.0000   1.0000   1.0000   1.0000   1.0000   1.0000   1.0000
     1.0000   1.0000   1.0000   1.0000   1.0000   1.0000   1.0000   1.0000
     1.0000   1.0000   1.0000   1.0000   1.0000   1.0000   1.0000   1.0000
     1.0000   1.0000   1.0000   1.0000   1.0000   1.0000   1.0000   1.0000
     1.0000   1.0000   1.0000   1.0000   1.0000   1.0000   1.0000   1.0000
     1.0000   1.0000

          k = 0.0169 0.0214 0.1078 ( 36561 PWs)   bands (ev):

   -16.2245 -15.8877 -15.2620 -15.1060 -13.8906 -13.8065 -12.4438 -12.2093
   -11.3568 -11.1846  -9.0263  -8.8510  -8.2465  -8.0757  -6.4046  -6.2598
    -5.3836  -5.2305  -5.0391  -4.8796  -4.3303  -4.2284  -4.1561  -3.9292
    -3.8134  -3.6959  -2.8482  -2.6792  -2.6340  -2.3660  -2.3036  -2.2593
    -1.3255  -1.1390  -1.0310  -0.9797  -0.9302  -0.7422  -0.2270  -0.1725
     0.4744   1.0115

     occupation numbers 
     1.0000   1.0000   1.0000   1.0000   1.0000   1.0000   1.0000   1.0000
     1.0000   1.0000   1.0000   1.0000   1.0000   1.0000   1.0000   1.0000
     1.0000   1.0000   1.0000   1.0000   1.0000   1.0000   1.0000   1.0000
     1.0000   1.0000   1.0000   1.0000   1.0000   1.0000   1.0000   1.0000
     1.0000   1.0000   1.0000   1.0000   1.0000   1.0000   1.0000   1.0000
     1.0000   1.0000

          k = 0.0169 0.0214-0.0936 ( 36547 PWs)   bands (ev):

   -16.2261 -15.8782 -15.2718 -15.1043 -13.8958 -13.8116 -12.4356 -12.2145
   -11.3543 -11.1699  -9.0529  -8.8140  -8.2723  -8.0246  -6.3996  -6.3490
    -5.3929  -5.2290  -5.0745  -4.8752  -4.2515  -4.2089  -4.1212  -3.9975
    -3.7737  -3.7245  -2.7632  -2.7276  -2.6073  -2.4530  -2.3801  -2.2840
    -1.2802  -1.1811  -1.0368  -0.9790  -0.8527  -0.7013  -0.1902  -0.1478
     0.4837   1.0028

     occupation numbers 
     1.0000   1.0000   1.0000   1.0000   1.0000   1.0000   1.0000   1.0000
     1.0000   1.0000   1.0000   1.0000   1.0000   1.0000   1.0000   1.0000
     1.0000   1.0000   1.0000   1.0000   1.0000   1.0000   1.0000   1.0000
     1.0000   1.0000   1.0000   1.0000   1.0000   1.0000   1.0000   1.0000
     1.0000   1.0000   1.0000   1.0000   1.0000   1.0000   1.0000   1.0000
     1.0000   1.0000

          k = 0.0169 0.0214-0.0265 ( 36551 PWs)   bands (ev):

   -16.2889 -15.9970 -15.3312 -15.1655 -13.8773 -13.8347 -12.4155 -12.2482
   -11.3816 -11.1167  -9.0770  -8.8461  -8.2998  -8.0536  -6.4372  -6.2172
    -5.3885  -5.2200  -5.1029  -4.7159  -4.2510  -4.1265  -3.9854  -3.8107
    -3.3259  -3.0670  -2.8191  -2.5711  -2.4429  -2.2898  -2.1489  -2.0464
    -1.2018  -1.0948  -1.0675  -0.9901  -0.8603  -0.7015  -0.2172   0.2053
     0.5371   0.6931

     occupation numbers 
     1.0000   1.0000   1.0000   1.0000   1.0000   1.0000   1.0000   1.0000
     1.0000   1.0000   1.0000   1.0000   1.0000   1.0000   1.0000   1.0000
     1.0000   1.0000   1.0000   1.0000   1.0000   1.0000   1.0000   1.0000
     1.0000   1.0000   1.0000   1.0000   1.0000   1.0000   1.0000   1.0000
     1.0000   1.0000   1.0000   1.0000   1.0000   1.0000   1.0000   1.0000
     1.0000   1.0000

          k = 0.0169 0.0643 0.0407 ( 36518 PWs)   bands (ev):

   -16.2621 -15.9769 -15.3343 -15.1765 -13.9096 -13.8583 -12.4631 -12.2766
   -11.3882 -11.1270  -8.9595  -8.7953  -8.1956  -8.0501  -6.4085  -6.2272
    -5.3574  -5.1831  -5.0663  -4.8884  -4.3259  -4.2919  -4.1128  -3.8467
    -3.4079  -3.1016  -2.6956  -2.5633  -2.4234  -2.3047  -2.1263  -2.0305
    -1.0665  -1.0591  -0.9263  -0.8956  -0.7850  -0.7548  -0.1494   0.1701
     0.5945   0.7137

     occupation numbers 
     1.0000   1.0000   1.0000   1.0000   1.0000   1.0000   1.0000   1.0000
     1.0000   1.0000   1.0000   1.0000   1.0000   1.0000   1.0000   1.0000
     1.0000   1.0000   1.0000   1.0000   1.0000   1.0000   1.0000   1.0000
     1.0000   1.0000   1.0000   1.0000   1.0000   1.0000   1.0000   1.0000
     1.0000   1.0000   1.0000   1.0000   1.0000   1.0000   1.0000   1.0000
     1.0000   1.0000

          k = 0.0169 0.0643 0.1078 ( 36558 PWs)   bands (ev):

   -16.2051 -15.8773 -15.2601 -15.1123 -13.8945 -13.8311 -12.4621 -12.2266
   -11.3631 -11.2139  -8.9920  -8.8417  -8.2248  -8.0985  -6.4046  -6.1974
    -5.3779  -5.2209  -4.9605  -4.7705  -4.2909  -4.2301  -4.1491  -4.0122
    -3.9071  -3.8538  -2.7411  -2.6746  -2.5855  -2.4797  -2.4372  -2.1754
    -1.2725  -1.1282  -1.0914  -0.9485  -0.8711  -0.8297  -0.0564  -0.0178
     0.4692   1.0319

     occupation numbers 
     1.0000   1.0000   1.0000   1.0000   1.0000   1.0000   1.0000   1.0000
     1.0000   1.0000   1.0000   1.0000   1.0000   1.0000   1.0000   1.0000
     1.0000   1.0000   1.0000   1.0000   1.0000   1.0000   1.0000   1.0000
     1.0000   1.0000   1.0000   1.0000   1.0000   1.0000   1.0000   1.0000
     1.0000   1.0000   1.0000   1.0000   1.0000   1.0000   1.0000   1.0000
     1.0000   1.0000

          k = 0.0169 0.0643-0.0936 ( 36547 PWs)   bands (ev):

   -16.2067 -15.8680 -15.2690 -15.1113 -13.9048 -13.8310 -12.4540 -12.2314
   -11.3638 -11.1976  -9.0181  -8.8018  -8.2490  -8.0547  -6.4247  -6.2664
    -5.3850  -5.2155  -4.9342  -4.8149  -4.2931  -4.1941  -4.0757  -4.0269
    -3.9024  -3.8640  -2.7479  -2.7087  -2.6643  -2.4622  -2.3966  -2.2521
    -1.2351  -1.1411  -1.0573  -0.9231  -0.8902  -0.7860  -0.0411   0.0249
     0.4779   1.0270

     occupation numbers 
     1.0000   1.0000   1.0000   1.0000   1.0000   1.0000   1.0000   1.0000
     1.0000   1.0000   1.0000   1.0000   1.0000   1.0000   1.0000   1.0000
     1.0000   1.0000   1.0000   1.0000   1.0000   1.0000   1.0000   1.0000
     1.0000   1.0000   1.0000   1.0000   1.0000   1.0000   1.0000   1.0000
     1.0000   1.0000   1.0000   1.0000   1.0000   1.0000   1.0000   1.0000
     1.0000   1.0000

          k = 0.0169 0.0643-0.0265 ( 36489 PWs)   bands (ev):

   -16.2635 -15.9690 -15.3416 -15.1754 -13.9137 -13.8643 -12.4550 -12.2798
   -11.3907 -11.1107  -8.9846  -8.7612  -8.2127  -8.0008  -6.4437  -6.2948
    -5.3567  -5.1977  -5.0582  -4.8761  -4.3221  -4.2090  -4.0824  -3.9298
    -3.3849  -3.1370  -2.6898  -2.4895  -2.4396  -2.4262  -2.1397  -2.0357
    -1.1356  -0.9822  -0.9572  -0.8523  -0.7829  -0.6838  -0.1512   0.2425
     0.5994   0.7052

     occupation numbers 
     1.0000   1.0000   1.0000   1.0000   1.0000   1.0000   1.0000   1.0000
     1.0000   1.0000   1.0000   1.0000   1.0000   1.0000   1.0000   1.0000
     1.0000   1.0000   1.0000   1.0000   1.0000   1.0000   1.0000   1.0000
     1.0000   1.0000   1.0000   1.0000   1.0000   1.0000   1.0000   1.0000
     1.0000   1.0000   1.0000   1.0000   1.0000   1.0000   1.0000   1.0000
     1.0000   1.0000

          k =-0.0169 0.0214-0.0407 ( 36525 PWs)   bands (ev):

   -16.2885 -15.9981 -15.3280 -15.1678 -13.8874 -13.8248 -12.4155 -12.2464
   -11.3860 -11.1150  -9.0767  -8.8414  -8.2812  -8.0814  -6.4357  -6.2228
    -5.3880  -5.2116  -4.9993  -4.8226  -4.2179  -4.1187  -3.9845  -3.9104
    -3.3038  -3.0611  -2.7424  -2.5893  -2.4497  -2.3025  -2.1208  -2.0628
    -1.2513  -1.1091  -1.0270  -0.9884  -0.8388  -0.7193  -0.2146   0.2068
     0.5227   0.7026

     occupation numbers 
     1.0000   1.0000   1.0000   1.0000   1.0000   1.0000   1.0000   1.0000
     1.0000   1.0000   1.0000   1.0000   1.0000   1.0000   1.0000   1.0000
     1.0000   1.0000   1.0000   1.0000   1.0000   1.0000   1.0000   1.0000
     1.0000   1.0000   1.0000   1.0000   1.0000   1.0000   1.0000   1.0000
     1.0000   1.0000   1.0000   1.0000   1.0000   1.0000   1.0000   1.0000
     1.0000   1.0000

          k =-0.0169 0.0214-0.1078 ( 36561 PWs)   bands (ev):

   -16.2260 -15.8786 -15.2696 -15.1063 -13.8981 -13.8088 -12.4355 -12.2149
   -11.3563 -11.1676  -9.0532  -8.8139  -8.2709  -8.0270  -6.4247  -6.3182
    -5.3930  -5.2263  -5.0160  -4.9573  -4.2705  -4.2241  -4.1120  -3.9251
    -3.7940  -3.7208  -2.8646  -2.6733  -2.6130  -2.3958  -2.3613  -2.3010
    -1.3462  -1.1686  -1.0273  -0.9532  -0.8519  -0.7003  -0.1980  -0.1437
     0.4786   1.0075

     occupation numbers 
     1.0000   1.0000   1.0000   1.0000   1.0000   1.0000   1.0000   1.0000
     1.0000   1.0000   1.0000   1.0000   1.0000   1.0000   1.0000   1.0000
     1.0000   1.0000   1.0000   1.0000   1.0000   1.0000   1.0000   1.0000
     1.0000   1.0000   1.0000   1.0000   1.0000   1.0000   1.0000   1.0000
     1.0000   1.0000   1.0000   1.0000   1.0000   1.0000   1.0000   1.0000
     1.0000   1.0000

          k =-0.0169 0.0214 0.0936 ( 36547 PWs)   bands (ev):

   -16.2246 -15.8872 -15.2638 -15.1048 -13.8828 -13.8145 -12.4437 -12.2096
   -11.3533 -11.1874  -9.0259  -8.8520  -8.2529  -8.0680  -6.3944  -6.2728
    -5.3843  -5.2249  -5.0792  -4.8283  -4.3031  -4.2406  -4.1708  -3.9700
    -3.7963  -3.7054  -2.7805  -2.6995  -2.5818  -2.4091  -2.3472  -2.2778
    -1.2693  -1.1508  -1.0591  -0.9721  -0.9284  -0.7451  -0.2273  -0.1699
     0.4779   1.0073

     occupation numbers 
     1.0000   1.0000   1.0000   1.0000   1.0000   1.0000   1.0000   1.0000
     1.0000   1.0000   1.0000   1.0000   1.0000   1.0000   1.0000   1.0000
     1.0000   1.0000   1.0000   1.0000   1.0000   1.0000   1.0000   1.0000
     1.0000   1.0000   1.0000   1.0000   1.0000   1.0000   1.0000   1.0000
     1.0000   1.0000   1.0000   1.0000   1.0000   1.0000   1.0000   1.0000
     1.0000   1.0000

          k =-0.0169 0.0214 0.0265 ( 36551 PWs)   bands (ev):

   -16.2875 -16.0043 -15.3251 -15.1657 -13.8795 -13.8222 -12.4239 -12.2434
   -11.3834 -11.1314  -9.0510  -8.8778  -8.2877  -8.0909  -6.4390  -6.1378
    -5.3781  -5.2303  -5.0945  -4.6684  -4.2809  -4.1480  -4.0605  -3.7984
    -3.3290  -3.0396  -2.8059  -2.5761  -2.4616  -2.1508  -2.1402  -2.0711
    -1.1998  -1.1405  -1.0467  -1.0185  -0.8712  -0.7505  -0.2104   0.1411
     0.5402   0.6877

     occupation numbers 
     1.0000   1.0000   1.0000   1.0000   1.0000   1.0000   1.0000   1.0000
     1.0000   1.0000   1.0000   1.0000   1.0000   1.0000   1.0000   1.0000
     1.0000   1.0000   1.0000   1.0000   1.0000   1.0000   1.0000   1.0000
     1.0000   1.0000   1.0000   1.0000   1.0000   1.0000   1.0000   1.0000
     1.0000   1.0000   1.0000   1.0000   1.0000   1.0000   1.0000   1.0000
     1.0000   1.0000

          k =-0.0169 0.0643-0.0407 ( 36518 PWs)   bands (ev):

   -16.2634 -15.9693 -15.3404 -15.1765 -13.9162 -13.8615 -12.4554 -12.2806
   -11.3910 -11.1089  -8.9851  -8.7613  -8.2100  -8.0089  -6.4373  -6.2815
    -5.3565  -5.1970  -5.0407  -4.9365  -4.3199  -4.2394  -4.0412  -3.9050
    -3.3762  -3.1356  -2.6921  -2.5621  -2.4355  -2.3967  -2.1112  -2.0436
    -1.1197  -1.0238  -0.9019  -0.8270  -0.8049  -0.7189  -0.1504   0.2417
     0.6002   0.7058

     occupation numbers 
     1.0000   1.0000   1.0000   1.0000   1.0000   1.0000   1.0000   1.0000
     1.0000   1.0000   1.0000   1.0000   1.0000   1.0000   1.0000   1.0000
     1.0000   1.0000   1.0000   1.0000   1.0000   1.0000   1.0000   1.0000
     1.0000   1.0000   1.0000   1.0000   1.0000   1.0000   1.0000   1.0000
     1.0000   1.0000   1.0000   1.0000   1.0000   1.0000   1.0000   1.0000
     1.0000   1.0000

          k =-0.0169 0.0643-0.1078 ( 36558 PWs)   bands (ev):

   -16.2067 -15.8681 -15.2679 -15.1126 -13.9005 -13.8351 -12.4540 -12.2314
   -11.3630 -11.1979  -9.0185  -8.8025  -8.2491  -8.0550  -6.4161  -6.2699
    -5.3825  -5.2061  -4.9141  -4.8690  -4.2722  -4.2122  -4.0845  -3.9579
    -3.9359  -3.8906  -2.7504  -2.6902  -2.5763  -2.4743  -2.4133  -2.3112
    -1.2742  -1.1451  -1.0363  -0.9444  -0.8654  -0.7641  -0.0455   0.0311
     0.4724   1.0271

     occupation numbers 
     1.0000   1.0000   1.0000   1.0000   1.0000   1.0000   1.0000   1.0000
     1.0000   1.0000   1.0000   1.0000   1.0000   1.0000   1.0000   1.0000
     1.0000   1.0000   1.0000   1.0000   1.0000   1.0000   1.0000   1.0000
     1.0000   1.0000   1.0000   1.0000   1.0000   1.0000   1.0000   1.0000
     1.0000   1.0000   1.0000   1.0000   1.0000   1.0000   1.0000   1.0000
     1.0000   1.0000

          k =-0.0169 0.0643 0.0936 ( 36547 PWs)   bands (ev):

   -16.2052 -15.8772 -15.2606 -15.1120 -13.8934 -13.8321 -12.4620 -12.2273
   -11.3628 -11.2137  -8.9915  -8.8419  -8.2308  -8.0921  -6.4156  -6.1870
    -5.3812  -5.2247  -4.9740  -4.7257  -4.3091  -4.2434  -4.1612  -4.0190
    -3.9088  -3.8136  -2.7265  -2.7118  -2.6061  -2.5121  -2.4027  -2.1454
    -1.2339  -1.1617  -1.0802  -0.9632  -0.8966  -0.8094  -0.0516  -0.0236
     0.4742   1.0297

     occupation numbers 
     1.0000   1.0000   1.0000   1.0000   1.0000   1.0000   1.0000   1.0000
     1.0000   1.0000   1.0000   1.0000   1.0000   1.0000   1.0000   1.0000
     1.0000   1.0000   1.0000   1.0000   1.0000   1.0000   1.0000   1.0000
     1.0000   1.0000   1.0000   1.0000   1.0000   1.0000   1.0000   1.0000
     1.0000   1.0000   1.0000   1.0000   1.0000   1.0000   1.0000   1.0000
     1.0000   1.0000

          k =-0.0169 0.0643 0.0265 ( 36489 PWs)   bands (ev):

   -16.2621 -15.9769 -15.3346 -15.1759 -13.9152 -13.8531 -12.4631 -12.2743
   -11.3925 -11.1261  -8.9608  -8.7904  -8.1878  -8.0554  -6.4397  -6.2219
    -5.3589  -5.1835  -5.0399  -4.8452  -4.3176  -4.2670  -4.1146  -3.9707
    -3.4016  -3.1000  -2.6696  -2.4984  -2.4307  -2.3208  -2.1401  -2.0441
    -1.1112  -1.0272  -0.9377  -0.8638  -0.8110  -0.7385  -0.1502   0.1756
     0.6091   0.6951

     occupation numbers 
     1.0000   1.0000   1.0000   1.0000   1.0000   1.0000   1.0000   1.0000
     1.0000   1.0000   1.0000   1.0000   1.0000   1.0000   1.0000   1.0000
     1.0000   1.0000   1.0000   1.0000   1.0000   1.0000   1.0000   1.0000
     1.0000   1.0000   1.0000   1.0000   1.0000   1.0000   1.0000   1.0000
     1.0000   1.0000   1.0000   1.0000   1.0000   1.0000   1.0000   1.0000
     1.0000   1.0000

     highest occupied level (ev):     1.0319

!    total energy              =    -548.03848506 Ry
     Harris-Foulkes estimate   =    -548.03848508 Ry
     estimated scf accuracy    <       0.00000003 Ry

     total all-electron energy =     -4615.881973 Ry

     The total energy is the sum of the following terms:

     one-electron contribution =    -154.08751175 Ry
     hartree contribution      =     108.42406284 Ry
     xc contribution           =    -104.21766999 Ry
     ewald contribution        =    -142.37445928 Ry
     one-center paw contrib.   =    -255.78290687 Ry
      -> PAW hartree energy AE =      19.59394434 Ry
      -> PAW hartree energy PS =     -19.48867850 Ry
      -> PAW xc energy AE      =     -55.73587087 Ry
      -> PAW xc energy PS      =      10.18686028 Ry
      -> total E_H with PAW    =     108.52932867 Ry
      -> total E_XC with PAW   =    -149.76668058 Ry

     convergence has been achieved in  11 iterations
 writing file ./scratch/scf-386.save/charge-density
 writing file ./scratch/scf-386.save/charge-density
 writing file ./scratch/scf-386.save/charge-density
 writing file ./scratch/scf-386.save/charge-density
 writing file ./scratch/scf-386.save/charge-density
 writing file ./scratch/scf-386.save/charge-density
 writing file ./scratch/scf-386.save/charge-density
 writing file ./scratch/scf-386.save/charge-density
 writing file ./scratch/scf-386.save/charge-density
 writing file ./scratch/scf-386.save/charge-density
 writing file ./scratch/scf-386.save/charge-density
 writing file ./scratch/scf-386.save/charge-density
 writing file ./scratch/scf-386.save/charge-density
 writing file ./scratch/scf-386.save/charge-density
 writing file ./scratch/scf-386.save/charge-density
 writing file ./scratch/scf-386.save/charge-density
 writing file ./scratch/scf-386.save/charge-density
 writing file ./scratch/scf-386.save/charge-density
 writing file ./scratch/scf-386.save/charge-density
 writing file ./scratch/scf-386.save/charge-density
 writing file ./scratch/scf-386.save/charge-density
 writing file ./scratch/scf-386.save/charge-density
 writing file ./scratch/scf-386.save/charge-density
 writing file ./scratch/scf-386.save/charge-density
 writing file ./scratch/scf-386.save/charge-density
 writing file ./scratch/scf-386.save/charge-density
 writing file ./scratch/scf-386.save/charge-density
 writing file ./scratch/scf-386.save/charge-density
 writing file ./scratch/scf-386.save/charge-density
 writing file ./scratch/scf-386.save/charge-density
 writing file ./scratch/scf-386.save/charge-density
 writing file ./scratch/scf-386.save/charge-density

     Forces acting on atoms (cartesian axes, Ry/au):

     atom    1 type  2   force =     0.03546769   -0.04171849   -0.00119622
     atom    2 type  1   force =    -0.02122429    0.03391235    0.00058522
     atom    3 type  1   force =    -0.03178119   -0.00366182    0.01341714
     atom    4 type  3   force =     0.00302498    0.00155062   -0.00536217
     atom    5 type  1   force =     0.00104686    0.03514497   -0.01950071
     atom    6 type  3   force =    -0.00238546   -0.00396678    0.00851831
     atom    7 type  3   force =     0.00259270   -0.00008721    0.00063007
     atom    8 type  1   force =     0.01315304   -0.00350314   -0.01213494
     atom    9 type  3   force =     0.00178949    0.00184116   -0.00145403
     atom   10 type  1   force =    -0.00778904    0.00750893    0.01345899
     atom   11 type  1   force =     0.00790806    0.00579500   -0.00766911
     atom   12 type  2   force =    -0.00503349   -0.01008750   -0.00391471
     atom   13 type  3   force =    -0.00568376   -0.00350626    0.00286229
     atom   14 type  1   force =     0.01733407    0.00402785   -0.02193537
     atom   15 type  3   force =     0.00138411    0.00145486   -0.00338778
     atom   16 type  1   force =    -0.01532142   -0.01211971    0.01401671
     atom   17 type  1   force =    -0.05062499    0.02113998    0.00957527
     atom   18 type  2   force =     0.06776091   -0.03645605    0.00356325
     atom   19 type  3   force =    -0.00210803   -0.00207126   -0.00306632
     atom   20 type  1   force =    -0.00557208    0.01562926    0.01325075
     atom   21 type  3   force =    -0.00116830   -0.00131148    0.00134403
     atom   22 type  1   force =     0.00288005   -0.01841600   -0.01538697
     atom   23 type  1   force =     0.01660075   -0.00894635    0.01054721
     atom   24 type  2   force =    -0.02225066    0.01784704    0.00323910
     The non-local contrib.  to forces
     atom    1 type  2   force =    -0.30291831    0.24012377   -0.06444925
     atom    2 type  1   force =     0.35243427   -0.29710002    0.06070951
     atom    3 type  1   force =    -0.08095685   -0.03619761   -0.01599433
     atom    4 type  3   force =    -0.05604709   -0.01457866   -0.05338920
     atom    5 type  1   force =    -0.02694327    0.01962343   -0.08917323
     atom    6 type  3   force =    -0.00050213   -0.06832173   -0.03809659
     atom    7 type  3   force =     0.01175337   -0.06492996    0.04318886
     atom    8 type  1   force =     0.06476098   -0.05712481    0.03368632
     atom    9 type  3   force =     0.07116374   -0.01675412    0.02779466
     atom   10 type  1   force =     0.03106474   -0.01891938    0.04598257
     atom   11 type  1   force =    -0.38399565   -0.30251195    0.05288598
     atom   12 type  2   force =     0.31510969    0.23031049   -0.06545207
     atom   13 type  3   force =    -0.00232432    0.06517146    0.04361432
     atom   14 type  1   force =     0.05376282    0.05022967    0.02058802
     atom   15 type  3   force =     0.05895787    0.01657628    0.04971008
     atom   16 type  1   force =     0.02030708    0.02514505    0.05860208
     atom   17 type  1   force =    -0.42012317    0.31483965   -0.01172526
     atom   18 type  2   force =     0.32984075   -0.22061151    0.01252399
     atom   19 type  3   force =    -0.01132629    0.06360113   -0.04513405
     atom   20 type  1   force =    -0.05570864    0.06046134   -0.02510572
     atom   21 type  3   force =    -0.07180737    0.01595980   -0.02934332
     atom   22 type  1   force =    -0.05057285    0.01310742   -0.05659935
     atom   23 type  1   force =     0.41786016    0.28887019   -0.07259724
     atom   24 type  2   force =    -0.35152234   -0.16297757    0.07664966
     The ionic contribution  to forces
     atom    1 type  2   force =     4.85132708   -4.73447304    0.82960968
     atom    2 type  1   force =     1.22006040   -1.66442821    0.19574619
     atom    3 type  1   force =     3.50602479    2.04605877    2.52541507
     atom    4 type  3   force =     1.61865495    0.64788970    1.55095639
     atom    5 type  1   force =    -0.09204397    3.80451502    2.53943408
     atom    6 type  3   force =     0.01270132    1.97162111    1.21896100
     atom    7 type  3   force =    -0.43609774    1.84555580   -1.18743226
     atom    8 type  1   force =    -1.16008032    4.28473044   -1.97697071
     atom    9 type  3   force =    -2.26865850    0.59826019   -0.92956596
     atom   10 type  1   force =    -4.36003362    1.59916556   -2.20689484
     atom   11 type  1   force =    -1.83072017   -1.75865162    0.05255322
     atom   12 type  2   force =    -5.56319236   -3.80097316   -0.00168602
     atom   13 type  3   force =    -0.26836506   -1.92837296   -1.42190878
     atom   14 type  1   force =    -1.71359535   -4.17206746   -2.47045496
     atom   15 type  3   force =    -2.00812852   -0.65087346   -1.61753607
     atom   16 type  1   force =    -4.29692661   -1.41975982   -3.74637299
     atom   17 type  1   force =    -3.00281234    2.35513378   -1.01469056
     atom   18 type  2   force =    -4.59314647    2.88579414   -0.50879930
     atom   19 type  3   force =     0.76420108   -1.87399096    1.39007129
     atom   20 type  1   force =     2.26558848   -4.40909256    2.38218198
     atom   21 type  3   force =     2.35635722   -0.77063786    0.97837431
     atom   22 type  1   force =     5.00729672   -1.77699416    2.58235421
     atom   23 type  1   force =     2.65968923    2.23485908    0.19682331
     atom   24 type  2   force =     7.33189975    4.68673169    0.63983172
     The local contribution  to forces
     atom    1 type  2   force =    -4.52362668    4.46067537   -0.76884792
     atom    2 type  1   force =    -1.58530037    1.98799655   -0.25447333
     atom    3 type  1   force =    -3.45607159   -2.01302383   -2.49533263
     atom    4 type  3   force =    -1.55959870   -0.63175607   -1.50293997
     atom    5 type  1   force =     0.11948312   -3.78731391   -2.46942651
     atom    6 type  3   force =    -0.01456880   -1.90728367   -1.17235170
     atom    7 type  3   force =     0.42693033   -1.78071316    1.14487229
     atom    8 type  1   force =     1.10898046   -4.22993457    1.93080869
     atom    9 type  3   force =     2.19927843   -0.57966286    0.90031324
     atom   10 type  1   force =     4.31995068   -1.57245381    2.17391596
     atom   11 type  1   force =     2.21293315    2.05927285   -0.11152809
     atom   12 type  2   force =     5.25533173    3.56956861    0.06049109
     atom   13 type  3   force =     0.26501977    1.85968347    1.38115769
     atom   14 type  1   force =     1.67756268    4.12465102    2.42762822
     atom   15 type  3   force =     1.95054556    0.63575183    1.56442989
     atom   16 type  1   force =     4.26042114    1.38247663    3.70056382
     atom   17 type  1   force =     3.36107522   -2.63941401    1.03533050
     atom   18 type  2   force =     4.34718826   -2.71216529    0.50045201
     atom   19 type  3   force =    -0.75497604    1.80832088   -1.34800522
     atom   20 type  1   force =    -2.21574642    4.36304109   -2.34337041
     atom   21 type  3   force =    -2.28573085    0.75337140   -0.94769231
     atom   22 type  1   force =    -4.95299338    1.74527026   -2.54073535
     atom   23 type  1   force =    -3.05036004   -2.52477787   -0.11589047
     atom   24 type  2   force =    -7.01787022   -4.51206596   -0.70986786
     The core correction contribution to forces
     atom    1 type  2   force =     0.01060985   -0.00801868    0.00250288
     atom    2 type  1   force =    -0.00835463    0.00747812   -0.00133959
     atom    3 type  1   force =    -0.00078055   -0.00044950   -0.00066362
     atom    4 type  3   force =     0.00000000    0.00000000    0.00000000
     atom    5 type  1   force =     0.00067024   -0.00166480   -0.00028186
     atom    6 type  3   force =     0.00000000    0.00000000    0.00000000
     atom    7 type  3   force =     0.00000000    0.00000000    0.00000000
     atom    8 type  1   force =    -0.00053147   -0.00114912    0.00033091
     atom    9 type  3   force =     0.00000000    0.00000000    0.00000000
     atom   10 type  1   force =     0.00114910   -0.00022488    0.00040088
     atom   11 type  1   force =     0.00965541    0.00769769   -0.00161091
     atom   12 type  2   force =    -0.01243197   -0.00899438    0.00263441
     atom   13 type  3   force =     0.00000000    0.00000000    0.00000000
     atom   14 type  1   force =    -0.00029897    0.00120114    0.00035006
     atom   15 type  3   force =     0.00000000    0.00000000    0.00000000
     atom   16 type  1   force =     0.00089972    0.00002129    0.00121654
     atom   17 type  1   force =     0.01134585   -0.00937070    0.00073044
     atom   18 type  2   force =    -0.01619611    0.01059374   -0.00064058
     atom   19 type  3   force =     0.00000000    0.00000000    0.00000000
     atom   20 type  1   force =     0.00039016    0.00119903   -0.00042787
     atom   21 type  3   force =     0.00000000    0.00000000    0.00000000
     atom   22 type  1   force =    -0.00080948    0.00019769   -0.00039155
     atom   23 type  1   force =    -0.01055141   -0.00788842    0.00223806
     atom   24 type  2   force =     0.01517047    0.00614246   -0.00333131
     The Hubbard contrib.    to forces
     atom    1 type  2   force =     0.00000000    0.00000000    0.00000000
     atom    2 type  1   force =     0.00000000    0.00000000    0.00000000
     atom    3 type  1   force =     0.00000000    0.00000000    0.00000000
     atom    4 type  3   force =     0.00000000    0.00000000    0.00000000
     atom    5 type  1   force =     0.00000000    0.00000000    0.00000000
     atom    6 type  3   force =     0.00000000    0.00000000    0.00000000
     atom    7 type  3   force =     0.00000000    0.00000000    0.00000000
     atom    8 type  1   force =     0.00000000    0.00000000    0.00000000
     atom    9 type  3   force =     0.00000000    0.00000000    0.00000000
     atom   10 type  1   force =     0.00000000    0.00000000    0.00000000
     atom   11 type  1   force =     0.00000000    0.00000000    0.00000000
     atom   12 type  2   force =     0.00000000    0.00000000    0.00000000
     atom   13 type  3   force =     0.00000000    0.00000000    0.00000000
     atom   14 type  1   force =     0.00000000    0.00000000    0.00000000
     atom   15 type  3   force =     0.00000000    0.00000000    0.00000000
     atom   16 type  1   force =     0.00000000    0.00000000    0.00000000
     atom   17 type  1   force =     0.00000000    0.00000000    0.00000000
     atom   18 type  2   force =     0.00000000    0.00000000    0.00000000
     atom   19 type  3   force =     0.00000000    0.00000000    0.00000000
     atom   20 type  1   force =     0.00000000    0.00000000    0.00000000
     atom   21 type  3   force =     0.00000000    0.00000000    0.00000000
     atom   22 type  1   force =     0.00000000    0.00000000    0.00000000
     atom   23 type  1   force =     0.00000000    0.00000000    0.00000000
     atom   24 type  2   force =     0.00000000    0.00000000    0.00000000
     The SCF correction term to forces
     atom    1 type  2   force =     0.00007459   -0.00002405   -0.00001261
     atom    2 type  1   force =    -0.00006512   -0.00003223   -0.00005856
     atom    3 type  1   force =     0.00000183   -0.00004778   -0.00000835
     atom    4 type  3   force =     0.00001465   -0.00000247    0.00000961
     atom    5 type  1   force =    -0.00012042   -0.00001291   -0.00005418
     atom    6 type  3   force =    -0.00001702    0.00001938    0.00000461
     atom    7 type  3   force =     0.00000558    0.00000199    0.00000019
     atom    8 type  1   force =     0.00002222   -0.00002321    0.00000887
     atom    9 type  3   force =     0.00000466   -0.00000018    0.00000303
     atom   10 type  1   force =     0.00007889   -0.00005670    0.00005343
     atom   11 type  1   force =     0.00003414   -0.00001009    0.00002970
     atom   12 type  2   force =     0.00014826    0.00000280    0.00009689
     atom   13 type  3   force =    -0.00001531    0.00001365   -0.00000192
     atom   14 type  1   force =    -0.00009828    0.00001536   -0.00004770
     atom   15 type  3   force =     0.00000803    0.00000209    0.00000732
     atom   16 type  1   force =    -0.00002392   -0.00000098    0.00000627
     atom   17 type  1   force =    -0.00011171   -0.00004686   -0.00007084
     atom   18 type  2   force =     0.00007331   -0.00006525    0.00002614
     atom   19 type  3   force =    -0.00000794   -0.00000045    0.00000066
     atom   20 type  1   force =    -0.00009682    0.00002223   -0.00002822
     atom   21 type  3   force =     0.00001154   -0.00000295    0.00000437
     atom   22 type  1   force =    -0.00004213    0.00000466   -0.00001593
     atom   23 type  1   force =    -0.00003835   -0.00000746   -0.00002744
     atom   24 type  2   force =     0.00007052    0.00001829   -0.00004409

     Total force =     0.146038     Total SCF correction =     0.000386

     Writing output data file scf-386.save
 writing file ./scratch/scf-386.save/charge-density
 writing file ./scratch/scf-386.save/charge-density
 writing file ./scratch/scf-386.save/charge-density
 writing file ./scratch/scf-386.save/charge-density
 writing file ./scratch/scf-386.save/charge-density
 writing file ./scratch/scf-386.save/charge-density
 writing file ./scratch/scf-386.save/charge-density
 writing file ./scratch/scf-386.save/charge-density
 writing file ./scratch/scf-386.save/charge-density
 writing file ./scratch/scf-386.save/charge-density
 writing file ./scratch/scf-386.save/charge-density
 writing file ./scratch/scf-386.save/charge-density
 writing file ./scratch/scf-386.save/charge-density
 writing file ./scratch/scf-386.save/charge-density
 writing file ./scratch/scf-386.save/charge-density
 writing file ./scratch/scf-386.save/charge-density
 writing file ./scratch/scf-386.save/charge-density
 writing file ./scratch/scf-386.save/charge-density
 writing file ./scratch/scf-386.save/charge-density
 writing file ./scratch/scf-386.save/charge-density
 writing file ./scratch/scf-386.save/charge-density
 writing file ./scratch/scf-386.save/charge-density
 writing file ./scratch/scf-386.save/charge-density
 writing file ./scratch/scf-386.save/charge-density
 writing file ./scratch/scf-386.save/charge-density
 writing file ./scratch/scf-386.save/charge-density
 writing file ./scratch/scf-386.save/charge-density
 writing file ./scratch/scf-386.save/charge-density
 writing file ./scratch/scf-386.save/charge-density
 writing file ./scratch/scf-386.save/charge-density
 writing file ./scratch/scf-386.save/charge-density
 writing file ./scratch/scf-386.save/charge-density
 
     init_run     :      4.36s CPU      4.59s WALL (       1 calls)
     electrons    :     49.67s CPU     52.60s WALL (       1 calls)
     forces       :      3.25s CPU      3.41s WALL (       1 calls)

     Called by init_run:
     wfcinit      :      1.59s CPU      1.62s WALL (       1 calls)
     wfcinit:atom :      0.02s CPU      0.02s WALL (      16 calls)
     wfcinit:wfcr :      1.49s CPU      1.50s WALL (      16 calls)
     potinit      :      0.88s CPU      0.91s WALL (       1 calls)

     Called by electrons:
     c_bands      :     38.86s CPU     39.15s WALL (      11 calls)
     sum_band     :      6.81s CPU      8.00s WALL (      11 calls)
     v_of_rho     :      0.89s CPU      0.97s WALL (      12 calls)
     v_h          :      0.04s CPU      0.06s WALL (      12 calls)
     v_xc         :      0.92s CPU      0.98s WALL (      13 calls)
     newd         :      1.49s CPU      2.86s WALL (      12 calls)
     PAW_pot      :      1.60s CPU      1.69s WALL (      12 calls)
     mix_rho      :      0.13s CPU      0.14s WALL (      11 calls)

     Called by c_bands:
     init_us_2    :      0.81s CPU      0.87s WALL (     384 calls)
     cegterg      :     36.56s CPU     36.76s WALL (     176 calls)

     Called by sum_band:
     sum_band:bec :      0.02s CPU      0.02s WALL (     176 calls)
     addusdens    :      1.50s CPU      2.67s WALL (      11 calls)

     Called by *egterg:
     h_psi        :     27.35s CPU     27.42s WALL (     864 calls)
     s_psi        :      2.05s CPU      2.00s WALL (     864 calls)
     g_psi        :      0.15s CPU      0.16s WALL (     672 calls)
     cdiaghg      :      3.42s CPU      3.43s WALL (     848 calls)
     cegterg:over :      1.62s CPU      1.66s WALL (     672 calls)
     cegterg:upda :      1.27s CPU      1.26s WALL (     672 calls)
     cegterg:last :      0.44s CPU      0.43s WALL (     192 calls)

     Called by h_psi:
     h_psi:pot    :     27.02s CPU     27.14s WALL (     864 calls)
     h_psi:calbec :      2.23s CPU      2.27s WALL (     864 calls)
     vloc_psi     :     22.78s CPU     22.89s WALL (     864 calls)
     add_vuspsi   :      1.99s CPU      1.98s WALL (     864 calls)

     General routines
     calbec       :      2.98s CPU      3.02s WALL (    1104 calls)
     fft          :      0.73s CPU      0.77s WALL (     199 calls)
     ffts         :      0.03s CPU      0.03s WALL (      23 calls)
     fftw         :     21.64s CPU     21.85s WALL (   55596 calls)
     interpolate  :      0.14s CPU      0.15s WALL (      23 calls)
     davcio       :      0.01s CPU      0.01s WALL (      16 calls)
 
     Parallel routines
     fft_scatter  :      7.79s CPU      8.02s WALL (   55818 calls)

     PAW routines
     PAW_pot      :      1.60s CPU      1.69s WALL (      12 calls)
 
     PWSCF        :  0m58.00s CPU     1m 1.71s WALL

 
   This run was terminated on:  13:18:12  20May2017            

=------------------------------------------------------------------------------=
   JOB DONE.
=------------------------------------------------------------------------------=
