
     Program PWSCF v.6.1 starts on 20May2017 at 13:24:13 

     This program is part of the open-source Quantum ESPRESSO suite
     for quantum simulation of materials; please cite
         "P. Giannozzi et al., J. Phys.:Condens. Matter 21 395502 (2009);
          URL http://www.quantum-espresso.org", 
     in publications or presentations arising from this work. More details at
     http://www.quantum-espresso.org/quote

     Parallel version (MPI & OpenMP), running on      32 processor cores
     Number of MPI processes:                32
     Threads/MPI process:                     1
     R & G space division:  proc/nbgrp/npool/nimage =      32
     Waiting for input...
     Reading input from standard input
Warning: card &IONS ignored
Warning: card     ION_TEMPERATURE   = 'INITIAL' ignored
Warning: card     TEMPW             = 586.D0 ignored
Warning: card     TOLP              = 100.D0 ignored
Warning: card     DELTA_T           = 1.D0 ignored
Warning: card     NRAISE            = 1 ignored
Warning: card / ignored
Warning: card &CELL ignored
Warning: card     CELL_DYNAMICS     = 'BFGS' ignored
Warning: card / ignored

     Current dimensions of program PWSCF are:
     Max number of different atomic species (ntypx) = 10
     Max number of k-points (npk) =  40000
     Max angular momentum in pseudopotentials (lmaxx) =  3
               file C.pbe-n-kjpaw_psl.1.0.0.UPF: wavefunction(s)  2S 2P renormalized
               file Cl.pbe-n-kjpaw_psl.1.0.0.UPF: wavefunction(s)  3S 3P renormalized
               file H.pbe-kjpaw_psl.1.0.0.UPF: wavefunction(s)  1S renormalized

     Subspace diagonalization in iterative solution of the eigenvalue problem:
     a serial algorithm will be used

 
     Parallelization info
     --------------------
     sticks:   dense  smooth     PW     G-vecs:    dense   smooth      PW
     Min         764     305     83                36108     9133    1292
     Max         765     306     84                36110     9135    1293
     Sum       24467    9791   2657              1155489   292295   41363
 


     bravais-lattice index     =            0
     lattice parameter (alat)  =       1.8897  a.u.
     unit-cell volume          =    2163.5316 (a.u.)^3
     number of atoms/cell      =           24
     number of atomic types    =            3
     number of electrons       =        84.00
     number of Kohn-Sham states=           42
     kinetic-energy cutoff     =     100.0000  Ry
     charge density cutoff     =    1000.0000  Ry
     convergence threshold     =      1.0E-07
     mixing beta               =       0.7000
     number of iterations used =            8  plain     mixing
     Exchange-correlation      =  SLA  PW   PBX  PBC ( 1  4  3  4 0 0)

     celldm(1)=   1.889726  celldm(2)=   0.000000  celldm(3)=   0.000000
     celldm(4)=   0.000000  celldm(5)=   0.000000  celldm(6)=   0.000000

     crystal axes: (cart. coord. in units of alat)
               a(1) = (  14.762000   0.000000   0.000000 )  
               a(2) = (   0.000000   5.832000   0.000000 )  
               a(3) = (  -1.563876   0.000000   3.723951 )  

     reciprocal axes: (cart. coord. in units 2 pi/alat)
               b(1) = (  0.067741  0.000000  0.028448 )  
               b(2) = (  0.000000  0.171468  0.000000 )  
               b(3) = (  0.000000  0.000000  0.268532 )  


     PseudoPot. # 1 for  C read from file:
     /global/cscratch1/sd/almno10/.data/PSEUDOPOTENTIALS/C.pbe-n-kjpaw_psl.1.0.0.UPF
     MD5 check sum: 2ba8448e293caca687844dde9a1b88a8
     Pseudo is Projector augmented-wave + core cor, Zval =  4.0
     Generated using "atomic" code by A. Dal Corso  v.5.3.0 svn rev. 11974
     Shape of augmentation charge: PSQ
     Using radial grid of 1073 points,  4 beta functions with: 
                l(1) =   0
                l(2) =   0
                l(3) =   1
                l(4) =   1
     Q(r) pseudized with 0 coefficients 


     PseudoPot. # 2 for Cl read from file:
     /global/cscratch1/sd/almno10/.data/PSEUDOPOTENTIALS/Cl.pbe-n-kjpaw_psl.1.0.0.UPF
     MD5 check sum: dca63699d6b897c5771335df08a09219
     Pseudo is Projector augmented-wave + core cor, Zval =  7.0
     Generated using "atomic" code by A. Dal Corso  v.5.3.0 svn rev. 11974
     Shape of augmentation charge: PSQ
     Using radial grid of 1157 points,  6 beta functions with: 
                l(1) =   0
                l(2) =   0
                l(3) =   1
                l(4) =   1
                l(5) =   2
                l(6) =   2
     Q(r) pseudized with 0 coefficients 


     PseudoPot. # 3 for  H read from file:
     /global/cscratch1/sd/almno10/.data/PSEUDOPOTENTIALS/H.pbe-kjpaw_psl.1.0.0.UPF
     MD5 check sum: bc0feb48a24907a0b97fa6ee2d589a29
     Pseudo is Projector augmented-wave, Zval =  1.0
     Generated using "atomic" code by A. Dal Corso  v.5.3.0 svn rev. 11974
     Shape of augmentation charge: PSQ
     Using radial grid of  929 points,  2 beta functions with: 
                l(1) =   0
                l(2) =   0
     Q(r) pseudized with 0 coefficients 


     atomic species   valence    mass     pseudopotential
        C              4.00    12.01100      C( 1.00)
        Cl             7.00    35.45270     Cl( 1.00)
        H              1.00     1.00790      H( 1.00)

     No symmetry found


                                    s                        frac. trans.

      isym =  1     identity                                     

 cryst.   s( 1) = (     1          0          0      )
                  (     0          1          0      )
                  (     0          0          1      )

 cart.    s( 1) = (  1.0000000  0.0000000 -0.0000000 )
                  (  0.0000000  1.0000000  0.0000000 )
                  (  0.0000000  0.0000000  1.0000000 )


   Cartesian axes

     site n.     atom                  positions (alat units)
         1           Cl  tau(   1) = (  16.3963468   0.9537778   1.7251423  )
         2           C   tau(   2) = (  15.0800559   1.9673633   1.8574531  )
         3           C   tau(   3) = (  15.2670172   3.1163539   2.6244356  )
         4           H   tau(   4) = (  16.2068365   3.2857049   3.1476941  )
         5           C   tau(   5) = (  14.1778510   3.9529732   2.8598287  )
         6           H   tau(   6) = (  14.3043944   4.8512789   3.4613316  )
         7           H   tau(   7) = (   6.2364423   2.2552828   0.5620949  )
         8           C   tau(   8) = (   6.3721638   1.2990735   1.0627642  )
         9           H   tau(   9) = (   4.3274011   0.6805831   0.7632038  )
        10           C   tau(  10) = (   5.2890312   0.4310994   1.2088670  )
        11           C   tau(  11) = (   5.4707923  -0.7960250   1.8447902  )
        12           Cl  tau(  12) = (   4.1940265  -1.9757285   1.8142374  )
        13           H   tau(  13) = (  13.7534292   0.8461045   0.5702265  )
        14           C   tau(  14) = (  13.8696116   1.7167131   1.2129662  )
        15           H   tau(  15) = (  11.8639064   2.4258821   0.8663939  )
        16           C   tau(  16) = (  12.8108533   2.6106353   1.3694352  )
        17           C   tau(  17) = (  12.9780634   3.7226695   2.1888759  )
        18           Cl  tau(  18) = (  11.5771556   4.9108742   2.3792935  )
        19           H   tau(  19) = (   6.7935897  -2.0445211   3.0281174  )
        20           C   tau(  20) = (   6.6678244  -1.1071151   2.4888520  )
        21           H   tau(  21) = (   8.6990246  -0.4679170   2.8168659  )
        22           C   tau(  22) = (   7.7550866  -0.2512128   2.3217500  )
        23           C   tau(  23) = (   7.5936714   0.9520586   1.6382305  )
        24           Cl  tau(  24) = (   9.0428109   1.8981130   1.4067900  )

   Crystallographic axes

     site n.     atom                  positions (cryst. coord.)
         1           Cl  tau(   1) = (  1.1597901  0.1635422  0.4632559  )
         2           C   tau(   2) = (  1.0743866  0.3373394  0.4987855  )
         3           C   tau(   3) = (  1.1088708  0.5343542  0.7047449  )
         4           H   tau(   4) = (  1.1874213  0.5633925  0.8452565  )
         5           C   tau(   5) = (  1.0417855  0.6778075  0.7679554  )
         6           H   tau(   6) = (  1.0674694  0.8318379  0.9294782  )
         7           H   tau(   7) = (  0.4384565  0.3867083  0.1509405  )
         8           C   tau(   8) = (  0.4618935  0.2227492  0.2853862  )
         9           H   tau(   9) = (  0.3148563  0.1166981  0.2049446  )
        10           C   tau(  10) = (  0.3926769  0.0739196  0.3246194  )
        11           C   tau(  11) = (  0.4230804 -0.1364926  0.4953852  )
        12           Cl  tau(  12) = (  0.3357212 -0.3387738  0.4871807  )
        13           H   tau(  13) = (  0.9478998  0.1450796  0.1531241  )
        14           C   tau(  14) = (  0.9740548  0.2943610  0.3257202  )
        15           H   tau(  15) = (  0.8283260  0.4159606  0.2326545  )
        16           C   tau(  16) = (  0.9067842  0.4476398  0.3677371  )
        17           C   tau(  17) = (  0.9414228  0.6383178  0.5877832  )
        18           Cl  tau(  18) = (  0.8519402  0.8420566  0.6389164  )
        19           H   tau(  19) = (  0.5463521 -0.3505695  0.8131463  )
        20           C   tau(  20) = (  0.5224915 -0.1898345  0.6683363  )
        21           H   tau(  21) = (  0.6694194 -0.0802327  0.7564185  )
        22           C   tau(  22) = (  0.5913905 -0.0430749  0.6234641  )
        23           C   tau(  23) = (  0.5610112  0.1632474  0.4399173  )
        24           Cl  tau(  24) = (  0.6525940  0.3254652  0.3777681  )

     number of k points=    16
                       cart. coord. in units 2pi/alat
        k(    1) = (   0.0169354   0.0214335   0.0406785), wk =   0.1250000
        k(    2) = (   0.0169354   0.0214335   0.1078115), wk =   0.1250000
        k(    3) = (   0.0169354   0.0214335  -0.0935875), wk =   0.1250000
        k(    4) = (   0.0169354   0.0214335  -0.0264545), wk =   0.1250000
        k(    5) = (   0.0169354   0.0643004   0.0406785), wk =   0.1250000
        k(    6) = (   0.0169354   0.0643004   0.1078115), wk =   0.1250000
        k(    7) = (   0.0169354   0.0643004  -0.0935875), wk =   0.1250000
        k(    8) = (   0.0169354   0.0643004  -0.0264545), wk =   0.1250000
        k(    9) = (  -0.0169354   0.0214335  -0.0406785), wk =   0.1250000
        k(   10) = (  -0.0169354   0.0214335  -0.1078115), wk =   0.1250000
        k(   11) = (  -0.0169354   0.0214335   0.0935875), wk =   0.1250000
        k(   12) = (  -0.0169354   0.0214335   0.0264545), wk =   0.1250000
        k(   13) = (  -0.0169354   0.0643004  -0.0406785), wk =   0.1250000
        k(   14) = (  -0.0169354   0.0643004  -0.1078115), wk =   0.1250000
        k(   15) = (  -0.0169354   0.0643004   0.0935875), wk =   0.1250000
        k(   16) = (  -0.0169354   0.0643004   0.0264545), wk =   0.1250000

                       cryst. coord.
        k(    1) = (   0.2500000   0.1250000   0.1250000), wk =   0.1250000
        k(    2) = (   0.2500000   0.1250000   0.3750000), wk =   0.1250000
        k(    3) = (   0.2500000   0.1250000  -0.3750000), wk =   0.1250000
        k(    4) = (   0.2500000   0.1250000  -0.1250000), wk =   0.1250000
        k(    5) = (   0.2500000   0.3750000   0.1250000), wk =   0.1250000
        k(    6) = (   0.2500000   0.3750000   0.3750000), wk =   0.1250000
        k(    7) = (   0.2500000   0.3750000  -0.3750000), wk =   0.1250000
        k(    8) = (   0.2500000   0.3750000  -0.1250000), wk =   0.1250000
        k(    9) = (  -0.2500000   0.1250000  -0.1250000), wk =   0.1250000
        k(   10) = (  -0.2500000   0.1250000  -0.3750000), wk =   0.1250000
        k(   11) = (  -0.2500000   0.1250000   0.3750000), wk =   0.1250000
        k(   12) = (  -0.2500000   0.1250000   0.1250000), wk =   0.1250000
        k(   13) = (  -0.2500000   0.3750000  -0.1250000), wk =   0.1250000
        k(   14) = (  -0.2500000   0.3750000  -0.3750000), wk =   0.1250000
        k(   15) = (  -0.2500000   0.3750000   0.3750000), wk =   0.1250000
        k(   16) = (  -0.2500000   0.3750000   0.1250000), wk =   0.1250000

     Dense  grid:  1155489 G-vectors     FFT dimensions: ( 288, 120,  80)

     Smooth grid:   292295 G-vectors     FFT dimensions: ( 180,  72,  50)

     Estimated max dynamical RAM per process >     147.21MB

     Estimated total allocated dynamical RAM >    4710.62MB

     Initial potential from superposition of free atoms

     starting charge   83.99939, renormalised to   84.00000
     Starting wfc are   72 randomized atomic wfcs
     Checking if some PAW data can be deallocated... 
       node    0, deallocated PAW data for type:  1
       node    0, deallocated PAW data for type:  3
       node    1, deallocated PAW data for type:  1
       node    1, deallocated PAW data for type:  3
       node    2, deallocated PAW data for type:  2
       node    2, deallocated PAW data for type:  3
       node    3, deallocated PAW data for type:  2
       node    3, deallocated PAW data for type:  3
       node    4, deallocated PAW data for type:  2
       node    4, deallocated PAW data for type:  3
       node    5, deallocated PAW data for type:  2
       node    5, deallocated PAW data for type:  3
       node    6, deallocated PAW data for type:  1
       node    6, deallocated PAW data for type:  2
       node    7, deallocated PAW data for type:  1
       node    7, deallocated PAW data for type:  2
       node    8, deallocated PAW data for type:  2
       node    8, deallocated PAW data for type:  3
       node    9, deallocated PAW data for type:  2
       node    9, deallocated PAW data for type:  3
       node   10, deallocated PAW data for type:  1
       node   10, deallocated PAW data for type:  2
       node   11, deallocated PAW data for type:  1
       node   11, deallocated PAW data for type:  2
       node   12, deallocated PAW data for type:  1
       node   12, deallocated PAW data for type:  2
       node   13, deallocated PAW data for type:  1
       node   13, deallocated PAW data for type:  2
       node   14, deallocated PAW data for type:  2
       node   14, deallocated PAW data for type:  3
       node   15, deallocated PAW data for type:  2
       node   15, deallocated PAW data for type:  3
       node   16, deallocated PAW data for type:  1
       node   16, deallocated PAW data for type:  2
       node   17, deallocated PAW data for type:  2
       node   17, deallocated PAW data for type:  3
       node   18, deallocated PAW data for type:  2
       node   18, deallocated PAW data for type:  3
       node   19, deallocated PAW data for type:  1
       node   19, deallocated PAW data for type:  3
       node   20, deallocated PAW data for type:  1
       node   20, deallocated PAW data for type:  2
       node   21, deallocated PAW data for type:  2
       node   21, deallocated PAW data for type:  3
       node   22, deallocated PAW data for type:  1
       node   22, deallocated PAW data for type:  2
       node   23, deallocated PAW data for type:  2
       node   23, deallocated PAW data for type:  3
       node   24, deallocated PAW data for type:  2
       node   24, deallocated PAW data for type:  3
       node   25, deallocated PAW data for type:  1
       node   25, deallocated PAW data for type:  3
       node   26, deallocated PAW data for type:  1
       node   26, deallocated PAW data for type:  2
       node   27, deallocated PAW data for type:  2
       node   27, deallocated PAW data for type:  3
       node   28, deallocated PAW data for type:  1
       node   28, deallocated PAW data for type:  2
       node   29, deallocated PAW data for type:  2
       node   29, deallocated PAW data for type:  3
       node   30, deallocated PAW data for type:  2
       node   30, deallocated PAW data for type:  3
       node   31, deallocated PAW data for type:  1
       node   31, deallocated PAW data for type:  3

     total cpu time spent up to now is        5.3 secs

     per-process dynamical memory:    20.7 Mb

     Self-consistent Calculation

     iteration #  1     ecut=   100.00 Ry     beta= 0.70
     Davidson diagonalization with overlap
     ethr =  1.00E-04,  avg # of iterations =  5.0

     total cpu time spent up to now is       12.0 secs

     total energy              =    -547.11396849 Ry
     Harris-Foulkes estimate   =    -549.00127883 Ry
     estimated scf accuracy    <       2.75396323 Ry

     iteration #  2     ecut=   100.00 Ry     beta= 0.70
     Davidson diagonalization with overlap
     ethr =  3.28E-03,  avg # of iterations =  3.0

     total cpu time spent up to now is       16.9 secs

     total energy              =    -547.51967639 Ry
     Harris-Foulkes estimate   =    -548.61890924 Ry
     estimated scf accuracy    <       1.99016676 Ry

     iteration #  3     ecut=   100.00 Ry     beta= 0.70
     Davidson diagonalization with overlap
     ethr =  2.37E-03,  avg # of iterations =  2.9

     total cpu time spent up to now is       21.2 secs

     total energy              =    -548.01316448 Ry
     Harris-Foulkes estimate   =    -548.05502579 Ry
     estimated scf accuracy    <       0.08401867 Ry

     iteration #  4     ecut=   100.00 Ry     beta= 0.70
     Davidson diagonalization with overlap
     ethr =  1.00E-04,  avg # of iterations =  4.0

     total cpu time spent up to now is       26.1 secs

     total energy              =    -548.04078880 Ry
     Harris-Foulkes estimate   =    -548.05175167 Ry
     estimated scf accuracy    <       0.02180394 Ry

     iteration #  5     ecut=   100.00 Ry     beta= 0.70
     Davidson diagonalization with overlap
     ethr =  2.60E-05,  avg # of iterations =  3.0

     total cpu time spent up to now is       30.5 secs

     total energy              =    -548.04530124 Ry
     Harris-Foulkes estimate   =    -548.04573937 Ry
     estimated scf accuracy    <       0.00094301 Ry

     iteration #  6     ecut=   100.00 Ry     beta= 0.70
     Davidson diagonalization with overlap
     ethr =  1.12E-06,  avg # of iterations =  4.0

     total cpu time spent up to now is       35.3 secs

     total energy              =    -548.04557998 Ry
     Harris-Foulkes estimate   =    -548.04566627 Ry
     estimated scf accuracy    <       0.00017179 Ry

     iteration #  7     ecut=   100.00 Ry     beta= 0.70
     Davidson diagonalization with overlap
     ethr =  2.05E-07,  avg # of iterations =  4.0

     total cpu time spent up to now is       40.0 secs

     total energy              =    -548.04562530 Ry
     Harris-Foulkes estimate   =    -548.04563886 Ry
     estimated scf accuracy    <       0.00003212 Ry

     iteration #  8     ecut=   100.00 Ry     beta= 0.70
     Davidson diagonalization with overlap
     ethr =  3.82E-08,  avg # of iterations =  4.0

     total cpu time spent up to now is       44.7 secs

     total energy              =    -548.04563284 Ry
     Harris-Foulkes estimate   =    -548.04563415 Ry
     estimated scf accuracy    <       0.00000304 Ry

     iteration #  9     ecut=   100.00 Ry     beta= 0.70
     Davidson diagonalization with overlap
     ethr =  3.61E-09,  avg # of iterations =  4.0

     total cpu time spent up to now is       49.4 secs

     total energy              =    -548.04563346 Ry
     Harris-Foulkes estimate   =    -548.04563415 Ry
     estimated scf accuracy    <       0.00000163 Ry

     iteration # 10     ecut=   100.00 Ry     beta= 0.70
     Davidson diagonalization with overlap
     ethr =  1.94E-09,  avg # of iterations =  4.0

     total cpu time spent up to now is       53.8 secs

     total energy              =    -548.04563379 Ry
     Harris-Foulkes estimate   =    -548.04563388 Ry
     estimated scf accuracy    <       0.00000024 Ry

     iteration # 11     ecut=   100.00 Ry     beta= 0.70
     Davidson diagonalization with overlap
     ethr =  2.87E-10,  avg # of iterations =  4.0

     total cpu time spent up to now is       58.3 secs

     End of self-consistent calculation

          k = 0.0169 0.0214 0.0407 ( 36525 PWs)   bands (ev):

   -16.3078 -16.1013 -15.4349 -15.1602 -13.9517 -13.8162 -12.3457 -12.3038
   -11.2555 -11.2040  -9.0056  -8.9073  -8.2610  -8.1252  -6.3519  -6.2546
    -5.3434  -5.2732  -5.0439  -4.8124  -4.2298  -4.1234  -4.0350  -3.9077
    -3.2325  -3.2108  -2.6988  -2.5510  -2.4102  -2.2770  -2.2491  -2.1317
    -1.2584  -1.1612  -1.0440  -0.9966  -0.9235  -0.7656   0.0441   0.1113
     0.5411   0.6418

     occupation numbers 
     1.0000   1.0000   1.0000   1.0000   1.0000   1.0000   1.0000   1.0000
     1.0000   1.0000   1.0000   1.0000   1.0000   1.0000   1.0000   1.0000
     1.0000   1.0000   1.0000   1.0000   1.0000   1.0000   1.0000   1.0000
     1.0000   1.0000   1.0000   1.0000   1.0000   1.0000   1.0000   1.0000
     1.0000   1.0000   1.0000   1.0000   1.0000   1.0000   1.0000   1.0000
     1.0000   1.0000

          k = 0.0169 0.0214 0.1078 ( 36561 PWs)   bands (ev):

   -16.2229 -16.0176 -15.3877 -15.0953 -13.9449 -13.8158 -12.3160 -12.2856
   -11.2678 -11.2244  -8.9726  -8.8743  -8.2049  -8.0960  -6.3935  -6.3391
    -5.3398  -5.2976  -5.0755  -4.9609  -4.2875  -4.1788  -4.0674  -4.0085
    -3.8361  -3.7344  -2.8119  -2.6935  -2.5988  -2.4624  -2.4195  -2.3110
    -1.3209  -1.1728  -1.1355  -0.9428  -0.8807  -0.7701  -0.2800  -0.1460
     0.7641   0.8610

     occupation numbers 
     1.0000   1.0000   1.0000   1.0000   1.0000   1.0000   1.0000   1.0000
     1.0000   1.0000   1.0000   1.0000   1.0000   1.0000   1.0000   1.0000
     1.0000   1.0000   1.0000   1.0000   1.0000   1.0000   1.0000   1.0000
     1.0000   1.0000   1.0000   1.0000   1.0000   1.0000   1.0000   1.0000
     1.0000   1.0000   1.0000   1.0000   1.0000   1.0000   1.0000   1.0000
     1.0000   1.0000

          k = 0.0169 0.0214-0.0936 ( 36547 PWs)   bands (ev):

   -16.2277 -16.0112 -15.3927 -15.0927 -13.9534 -13.8016 -12.3205 -12.2803
   -11.2636 -11.2370  -8.9440  -8.9080  -8.2026  -8.1128  -6.4298  -6.2765
    -5.3344  -5.2909  -5.1492  -4.8609  -4.2844  -4.2041  -4.0764  -4.0194
    -3.7958  -3.7502  -2.7735  -2.7088  -2.6043  -2.4705  -2.4065  -2.3309
    -1.2665  -1.1696  -1.1207  -0.9987  -0.8998  -0.8057  -0.2339  -0.2018
     0.7548   0.8690

     occupation numbers 
     1.0000   1.0000   1.0000   1.0000   1.0000   1.0000   1.0000   1.0000
     1.0000   1.0000   1.0000   1.0000   1.0000   1.0000   1.0000   1.0000
     1.0000   1.0000   1.0000   1.0000   1.0000   1.0000   1.0000   1.0000
     1.0000   1.0000   1.0000   1.0000   1.0000   1.0000   1.0000   1.0000
     1.0000   1.0000   1.0000   1.0000   1.0000   1.0000   1.0000   1.0000
     1.0000   1.0000

          k = 0.0169 0.0214-0.0265 ( 36551 PWs)   bands (ev):

   -16.3123 -16.0956 -15.4392 -15.1580 -13.9601 -13.8020 -12.3506 -12.2985
   -11.2533 -11.2138  -8.9806  -8.9385  -8.2700  -8.1260  -6.3978  -6.1794
    -5.3350  -5.2829  -5.1157  -4.7099  -4.2789  -4.1524  -3.9616  -3.8930
    -3.2463  -3.1799  -2.7622  -2.5462  -2.4006  -2.2904  -2.2088  -2.1459
    -1.2202  -1.1432  -1.0836  -1.0168  -0.8824  -0.8389   0.0512   0.0923
     0.5422   0.6351

     occupation numbers 
     1.0000   1.0000   1.0000   1.0000   1.0000   1.0000   1.0000   1.0000
     1.0000   1.0000   1.0000   1.0000   1.0000   1.0000   1.0000   1.0000
     1.0000   1.0000   1.0000   1.0000   1.0000   1.0000   1.0000   1.0000
     1.0000   1.0000   1.0000   1.0000   1.0000   1.0000   1.0000   1.0000
     1.0000   1.0000   1.0000   1.0000   1.0000   1.0000   1.0000   1.0000
     1.0000   1.0000

          k = 0.0169 0.0643 0.0407 ( 36518 PWs)   bands (ev):

   -16.2871 -16.0636 -15.4506 -15.1614 -13.9996 -13.8599 -12.3853 -12.3329
   -11.2515 -11.1884  -8.9070  -8.8446  -8.1473  -8.0412  -6.3937  -6.3640
    -5.2894  -5.2670  -5.0424  -4.9766  -4.3111  -4.2161  -4.0885  -3.9309
    -3.2927  -3.2712  -2.6484  -2.5893  -2.5019  -2.3586  -2.1516  -2.1049
    -1.1148  -0.9813  -0.9354  -0.8667  -0.8224  -0.7489   0.0689   0.1083
     0.6161   0.6592

     occupation numbers 
     1.0000   1.0000   1.0000   1.0000   1.0000   1.0000   1.0000   1.0000
     1.0000   1.0000   1.0000   1.0000   1.0000   1.0000   1.0000   1.0000
     1.0000   1.0000   1.0000   1.0000   1.0000   1.0000   1.0000   1.0000
     1.0000   1.0000   1.0000   1.0000   1.0000   1.0000   1.0000   1.0000
     1.0000   1.0000   1.0000   1.0000   1.0000   1.0000   1.0000   1.0000
     1.0000   1.0000

          k = 0.0169 0.0643 0.1078 ( 36558 PWs)   bands (ev):

   -16.2137 -15.9925 -15.3935 -15.0909 -13.9717 -13.8292 -12.3395 -12.2951
   -11.2874 -11.2482  -8.9312  -8.8735  -8.1750  -8.1114  -6.3679  -6.3031
    -5.3113  -5.2786  -4.9296  -4.8803  -4.3439  -4.2178  -4.0685  -4.0153
    -3.9520  -3.8935  -2.8325  -2.6746  -2.5763  -2.5112  -2.3537  -2.2910
    -1.2941  -1.1428  -1.0613  -1.0164  -0.9099  -0.8065  -0.1398   0.0104
     0.7779   0.8440

     occupation numbers 
     1.0000   1.0000   1.0000   1.0000   1.0000   1.0000   1.0000   1.0000
     1.0000   1.0000   1.0000   1.0000   1.0000   1.0000   1.0000   1.0000
     1.0000   1.0000   1.0000   1.0000   1.0000   1.0000   1.0000   1.0000
     1.0000   1.0000   1.0000   1.0000   1.0000   1.0000   1.0000   1.0000
     1.0000   1.0000   1.0000   1.0000   1.0000   1.0000   1.0000   1.0000
     1.0000   1.0000

          k = 0.0169 0.0643-0.0936 ( 36547 PWs)   bands (ev):

   -16.2186 -15.9858 -15.3988 -15.0883 -13.9808 -13.8143 -12.3443 -12.2890
   -11.2826 -11.2623  -8.9085  -8.9010  -8.1783  -8.1189  -6.4005  -6.2504
    -5.3120  -5.2888  -5.0023  -4.7427  -4.3570  -4.2605  -4.0729  -3.9963
    -3.9406  -3.8801  -2.8016  -2.7550  -2.5674  -2.5177  -2.3722  -2.2078
    -1.2562  -1.1633  -1.1001  -1.0264  -0.8978  -0.8548  -0.0939  -0.0500
     0.7740   0.8502

     occupation numbers 
     1.0000   1.0000   1.0000   1.0000   1.0000   1.0000   1.0000   1.0000
     1.0000   1.0000   1.0000   1.0000   1.0000   1.0000   1.0000   1.0000
     1.0000   1.0000   1.0000   1.0000   1.0000   1.0000   1.0000   1.0000
     1.0000   1.0000   1.0000   1.0000   1.0000   1.0000   1.0000   1.0000
     1.0000   1.0000   1.0000   1.0000   1.0000   1.0000   1.0000   1.0000
     1.0000   1.0000

          k = 0.0169 0.0643-0.0265 ( 36489 PWs)   bands (ev):

   -16.2916 -16.0575 -15.4553 -15.1590 -14.0082 -13.8463 -12.3902 -12.3254
   -11.2433 -11.2072  -8.8835  -8.8701  -8.1308  -8.0718  -6.4329  -6.3157
    -5.3001  -5.2538  -5.0859  -4.8715  -4.2761  -4.2274  -4.0917  -4.0083
    -3.3067  -3.2531  -2.6228  -2.5652  -2.4517  -2.3951  -2.1678  -2.1037
    -1.0893  -1.0000  -0.9526  -0.8761  -0.8528  -0.7512   0.0473   0.1208
     0.6099   0.6543

     occupation numbers 
     1.0000   1.0000   1.0000   1.0000   1.0000   1.0000   1.0000   1.0000
     1.0000   1.0000   1.0000   1.0000   1.0000   1.0000   1.0000   1.0000
     1.0000   1.0000   1.0000   1.0000   1.0000   1.0000   1.0000   1.0000
     1.0000   1.0000   1.0000   1.0000   1.0000   1.0000   1.0000   1.0000
     1.0000   1.0000   1.0000   1.0000   1.0000   1.0000   1.0000   1.0000
     1.0000   1.0000

          k =-0.0169 0.0214-0.0407 ( 36525 PWs)   bands (ev):

   -16.3120 -16.0960 -15.4387 -15.1582 -13.9607 -13.8018 -12.3498 -12.2987
   -11.2484 -11.2195  -8.9766  -8.9402  -8.2479  -8.1546  -6.3710  -6.2060
    -5.3305  -5.2843  -5.0731  -4.7599  -4.2394  -4.1411  -4.0456  -3.8767
    -3.2432  -3.1752  -2.7171  -2.5548  -2.4298  -2.2710  -2.2126  -2.1347
    -1.2315  -1.1781  -1.0834  -0.9855  -0.8955  -0.8278   0.0544   0.0918
     0.5380   0.6365

     occupation numbers 
     1.0000   1.0000   1.0000   1.0000   1.0000   1.0000   1.0000   1.0000
     1.0000   1.0000   1.0000   1.0000   1.0000   1.0000   1.0000   1.0000
     1.0000   1.0000   1.0000   1.0000   1.0000   1.0000   1.0000   1.0000
     1.0000   1.0000   1.0000   1.0000   1.0000   1.0000   1.0000   1.0000
     1.0000   1.0000   1.0000   1.0000   1.0000   1.0000   1.0000   1.0000
     1.0000   1.0000

          k =-0.0169 0.0214-0.1078 ( 36561 PWs)   bands (ev):

   -16.2276 -16.0114 -15.3924 -15.0927 -13.9545 -13.8007 -12.3205 -12.2797
   -11.2595 -11.2422  -8.9435  -8.9065  -8.1726  -8.1465  -6.3922  -6.3190
    -5.3331  -5.2949  -5.1020  -4.8997  -4.2536  -4.1800  -4.1283  -4.0242
    -3.8043  -3.7521  -2.7948  -2.6982  -2.5557  -2.4843  -2.4294  -2.3034
    -1.3083  -1.1599  -1.1145  -0.9978  -0.8733  -0.8202  -0.2444  -0.1934
     0.7566   0.8665

     occupation numbers 
     1.0000   1.0000   1.0000   1.0000   1.0000   1.0000   1.0000   1.0000
     1.0000   1.0000   1.0000   1.0000   1.0000   1.0000   1.0000   1.0000
     1.0000   1.0000   1.0000   1.0000   1.0000   1.0000   1.0000   1.0000
     1.0000   1.0000   1.0000   1.0000   1.0000   1.0000   1.0000   1.0000
     1.0000   1.0000   1.0000   1.0000   1.0000   1.0000   1.0000   1.0000
     1.0000   1.0000

          k =-0.0169 0.0214 0.0936 ( 36547 PWs)   bands (ev):

   -16.2230 -16.0173 -15.3880 -15.0952 -13.9441 -13.8166 -12.3157 -12.2860
   -11.2680 -11.2240  -8.9721  -8.8758  -8.2126  -8.0848  -6.4190  -6.3185
    -5.3371  -5.2985  -5.1121  -4.9157  -4.2712  -4.1827  -4.0915  -4.0118
    -3.8165  -3.7515  -2.7869  -2.6764  -2.6110  -2.4612  -2.4305  -2.3414
    -1.2888  -1.1668  -1.1349  -0.9761  -0.8784  -0.7685  -0.2752  -0.1444
     0.7601   0.8653

     occupation numbers 
     1.0000   1.0000   1.0000   1.0000   1.0000   1.0000   1.0000   1.0000
     1.0000   1.0000   1.0000   1.0000   1.0000   1.0000   1.0000   1.0000
     1.0000   1.0000   1.0000   1.0000   1.0000   1.0000   1.0000   1.0000
     1.0000   1.0000   1.0000   1.0000   1.0000   1.0000   1.0000   1.0000
     1.0000   1.0000   1.0000   1.0000   1.0000   1.0000   1.0000   1.0000
     1.0000   1.0000

          k =-0.0169 0.0214 0.0265 ( 36551 PWs)   bands (ev):

   -16.3081 -16.1008 -15.4353 -15.1601 -13.9507 -13.8169 -12.3455 -12.3047
   -11.2572 -11.2011  -9.0052  -8.9113  -8.2747  -8.1043  -6.3900  -6.2142
    -5.3437  -5.2740  -5.1106  -4.7420  -4.2747  -4.1084  -3.9610  -3.9388
    -3.2398  -3.2082  -2.7616  -2.5016  -2.3758  -2.3175  -2.2476  -2.1492
    -1.2360  -1.1358  -1.0596  -0.9935  -0.9418  -0.7644   0.0419   0.1120
     0.5446   0.6403

     occupation numbers 
     1.0000   1.0000   1.0000   1.0000   1.0000   1.0000   1.0000   1.0000
     1.0000   1.0000   1.0000   1.0000   1.0000   1.0000   1.0000   1.0000
     1.0000   1.0000   1.0000   1.0000   1.0000   1.0000   1.0000   1.0000
     1.0000   1.0000   1.0000   1.0000   1.0000   1.0000   1.0000   1.0000
     1.0000   1.0000   1.0000   1.0000   1.0000   1.0000   1.0000   1.0000
     1.0000   1.0000

          k =-0.0169 0.0643-0.0407 ( 36518 PWs)   bands (ev):

   -16.2915 -16.0576 -15.4553 -15.1591 -14.0080 -13.8463 -12.3900 -12.3267
   -11.2416 -11.2073  -8.8796  -8.8755  -8.1276  -8.0784  -6.4197  -6.3094
    -5.3002  -5.2532  -5.1114  -4.8899  -4.3062  -4.2162  -4.0723  -3.9615
    -3.3043  -3.2497  -2.6614  -2.5801  -2.4829  -2.3466  -2.1713  -2.0921
    -1.0538  -0.9955  -0.9497  -0.8989  -0.8574  -0.7649   0.0465   0.1192
     0.6121   0.6547

     occupation numbers 
     1.0000   1.0000   1.0000   1.0000   1.0000   1.0000   1.0000   1.0000
     1.0000   1.0000   1.0000   1.0000   1.0000   1.0000   1.0000   1.0000
     1.0000   1.0000   1.0000   1.0000   1.0000   1.0000   1.0000   1.0000
     1.0000   1.0000   1.0000   1.0000   1.0000   1.0000   1.0000   1.0000
     1.0000   1.0000   1.0000   1.0000   1.0000   1.0000   1.0000   1.0000
     1.0000   1.0000

          k =-0.0169 0.0643-0.1078 ( 36558 PWs)   bands (ev):

   -16.2186 -15.9858 -15.3987 -15.0882 -13.9811 -13.8140 -12.3444 -12.2891
   -11.2805 -11.2641  -8.9102  -8.8995  -8.1677  -8.1320  -6.3822  -6.2615
    -5.3093  -5.2879  -4.9990  -4.7881  -4.3030  -4.2543  -4.1035  -3.9806
    -3.9412  -3.9019  -2.7969  -2.6929  -2.5858  -2.5104  -2.3974  -2.2362
    -1.2681  -1.1524  -1.0664  -1.0493  -0.9067  -0.8463  -0.0914  -0.0501
     0.7726   0.8479

     occupation numbers 
     1.0000   1.0000   1.0000   1.0000   1.0000   1.0000   1.0000   1.0000
     1.0000   1.0000   1.0000   1.0000   1.0000   1.0000   1.0000   1.0000
     1.0000   1.0000   1.0000   1.0000   1.0000   1.0000   1.0000   1.0000
     1.0000   1.0000   1.0000   1.0000   1.0000   1.0000   1.0000   1.0000
     1.0000   1.0000   1.0000   1.0000   1.0000   1.0000   1.0000   1.0000
     1.0000   1.0000

          k =-0.0169 0.0643 0.0936 ( 36547 PWs)   bands (ev):

   -16.2137 -15.9924 -15.3936 -15.0908 -13.9718 -13.8293 -12.3391 -12.2947
   -11.2870 -11.2498  -8.9300  -8.8732  -8.1734  -8.1110  -6.3574  -6.3308
    -5.3103  -5.2835  -4.9032  -4.8514  -4.3417  -4.2274  -4.0866  -4.0371
    -3.9480  -3.8931  -2.8681  -2.6554  -2.5707  -2.5176  -2.3304  -2.2813
    -1.2944  -1.1517  -1.0722  -1.0007  -0.9119  -0.8109  -0.1431   0.0109
     0.7792   0.8474

     occupation numbers 
     1.0000   1.0000   1.0000   1.0000   1.0000   1.0000   1.0000   1.0000
     1.0000   1.0000   1.0000   1.0000   1.0000   1.0000   1.0000   1.0000
     1.0000   1.0000   1.0000   1.0000   1.0000   1.0000   1.0000   1.0000
     1.0000   1.0000   1.0000   1.0000   1.0000   1.0000   1.0000   1.0000
     1.0000   1.0000   1.0000   1.0000   1.0000   1.0000   1.0000   1.0000
     1.0000   1.0000

          k =-0.0169 0.0643 0.0265 ( 36489 PWs)   bands (ev):

   -16.2871 -16.0635 -15.4507 -15.1614 -13.9994 -13.8602 -12.3844 -12.3330
   -11.2517 -11.1895  -8.9045  -8.8462  -8.1473  -8.0377  -6.4218  -6.3528
    -5.2881  -5.2678  -5.0390  -4.9392  -4.3290  -4.1672  -4.0791  -4.0215
    -3.2925  -3.2757  -2.6499  -2.4908  -2.4680  -2.4472  -2.1660  -2.1043
    -1.1274  -0.9821  -0.9422  -0.8788  -0.8147  -0.7259   0.0702   0.1099
     0.6138   0.6593

     occupation numbers 
     1.0000   1.0000   1.0000   1.0000   1.0000   1.0000   1.0000   1.0000
     1.0000   1.0000   1.0000   1.0000   1.0000   1.0000   1.0000   1.0000
     1.0000   1.0000   1.0000   1.0000   1.0000   1.0000   1.0000   1.0000
     1.0000   1.0000   1.0000   1.0000   1.0000   1.0000   1.0000   1.0000
     1.0000   1.0000   1.0000   1.0000   1.0000   1.0000   1.0000   1.0000
     1.0000   1.0000

     highest occupied level (ev):     0.8690

!    total energy              =    -548.04563382 Ry
     Harris-Foulkes estimate   =    -548.04563386 Ry
     estimated scf accuracy    <       0.00000004 Ry

     total all-electron energy =     -4615.889122 Ry

     The total energy is the sum of the following terms:

     one-electron contribution =    -155.01235245 Ry
     hartree contribution      =     108.86758699 Ry
     xc contribution           =    -104.24756304 Ry
     ewald contribution        =    -141.86946007 Ry
     one-center paw contrib.   =    -255.78384525 Ry
      -> PAW hartree energy AE =      19.74371051 Ry
      -> PAW hartree energy PS =     -19.63824085 Ry
      -> PAW xc energy AE      =     -55.76365979 Ry
      -> PAW xc energy PS      =      10.21380835 Ry
      -> total E_H with PAW    =     108.97305665 Ry
      -> total E_XC with PAW   =    -149.79741448 Ry

     convergence has been achieved in  11 iterations
 writing file ./scratch/scf-1818.save/charge-density
 writing file ./scratch/scf-1818.save/charge-density
 writing file ./scratch/scf-1818.save/charge-density
 writing file ./scratch/scf-1818.save/charge-density
 writing file ./scratch/scf-1818.save/charge-density
 writing file ./scratch/scf-1818.save/charge-density
 writing file ./scratch/scf-1818.save/charge-density
 writing file ./scratch/scf-1818.save/charge-density
 writing file ./scratch/scf-1818.save/charge-density
 writing file ./scratch/scf-1818.save/charge-density
 writing file ./scratch/scf-1818.save/charge-density
 writing file ./scratch/scf-1818.save/charge-density
 writing file ./scratch/scf-1818.save/charge-density
 writing file ./scratch/scf-1818.save/charge-density
 writing file ./scratch/scf-1818.save/charge-density
 writing file ./scratch/scf-1818.save/charge-density
 writing file ./scratch/scf-1818.save/charge-density
 writing file ./scratch/scf-1818.save/charge-density
 writing file ./scratch/scf-1818.save/charge-density
 writing file ./scratch/scf-1818.save/charge-density
 writing file ./scratch/scf-1818.save/charge-density
 writing file ./scratch/scf-1818.save/charge-density
 writing file ./scratch/scf-1818.save/charge-density
 writing file ./scratch/scf-1818.save/charge-density
 writing file ./scratch/scf-1818.save/charge-density
 writing file ./scratch/scf-1818.save/charge-density
 writing file ./scratch/scf-1818.save/charge-density
 writing file ./scratch/scf-1818.save/charge-density
 writing file ./scratch/scf-1818.save/charge-density
 writing file ./scratch/scf-1818.save/charge-density
 writing file ./scratch/scf-1818.save/charge-density
 writing file ./scratch/scf-1818.save/charge-density

     Forces acting on atoms (cartesian axes, Ry/au):

     atom    1 type  2   force =     0.05645303   -0.05870280   -0.01316826
     atom    2 type  1   force =    -0.03789090    0.05023142    0.00424582
     atom    3 type  1   force =    -0.02663886   -0.00411936    0.02192972
     atom    4 type  3   force =     0.00025513    0.00313123   -0.00501346
     atom    5 type  1   force =    -0.00180046    0.02936515   -0.01710602
     atom    6 type  3   force =    -0.00127924   -0.00236478    0.00455845
     atom    7 type  3   force =     0.00232403   -0.00227202   -0.00405837
     atom    8 type  1   force =     0.00166647    0.00843872    0.01515776
     atom    9 type  3   force =     0.00157396    0.00002353   -0.00105779
     atom   10 type  1   force =     0.00416046   -0.00672534   -0.01214482
     atom   11 type  1   force =     0.00146188    0.00647316    0.00635849
     atom   12 type  2   force =    -0.01035317    0.00302021    0.00773175
     atom   13 type  3   force =    -0.00048324   -0.00133734    0.00210237
     atom   14 type  1   force =     0.00032429   -0.00108653   -0.00002275
     atom   15 type  3   force =     0.00082138    0.00066230   -0.00224173
     atom   16 type  1   force =    -0.00779518    0.00465813    0.00372946
     atom   17 type  1   force =    -0.03321933    0.02321152    0.00654553
     atom   18 type  2   force =     0.04834463   -0.04370278   -0.00950891
     atom   19 type  3   force =    -0.00179280    0.00044504    0.00051035
     atom   20 type  1   force =     0.00889308   -0.00639457   -0.01807958
     atom   21 type  3   force =     0.00243806   -0.00448532   -0.00376629
     atom   22 type  1   force =    -0.01121248    0.00565057    0.02427404
     atom   23 type  1   force =     0.01141081   -0.01718503   -0.01373005
     atom   24 type  2   force =    -0.00766152    0.01306489    0.00275428
     The non-local contrib.  to forces
     atom    1 type  2   force =    -0.30883600    0.22690427    0.01797708
     atom    2 type  1   force =     0.36126290   -0.26778811   -0.05788804
     atom    3 type  1   force =    -0.07727551   -0.03412007    0.00483185
     atom    4 type  3   force =    -0.06754219   -0.01254465   -0.03824740
     atom    5 type  1   force =    -0.05292994   -0.00365815   -0.07321316
     atom    6 type  3   force =    -0.00939501   -0.06503361   -0.04332863
     atom    7 type  3   force =     0.01038552   -0.06934881    0.03614715
     atom    8 type  1   force =     0.03935090   -0.03586036    0.06877058
     atom    9 type  3   force =     0.06913738   -0.01821301    0.03228321
     atom   10 type  1   force =     0.04684454   -0.05052971    0.01300731
     atom   11 type  1   force =    -0.38534803   -0.31876921    0.02975543
     atom   12 type  2   force =     0.28143227    0.27711292    0.01481883
     atom   13 type  3   force =     0.00882539    0.06298703    0.04692186
     atom   14 type  1   force =     0.03733916    0.05757652    0.05804911
     atom   15 type  3   force =     0.06825663    0.01348362    0.03641759
     atom   16 type  1   force =     0.02374686    0.04138774    0.04495831
     atom   17 type  1   force =    -0.41551606    0.33720307    0.07741856
     atom   18 type  2   force =     0.29632260   -0.25407729   -0.03531705
     atom   19 type  3   force =    -0.00964676    0.06759541   -0.03923344
     atom   20 type  1   force =    -0.03251333    0.02978413   -0.06852152
     atom   21 type  3   force =    -0.06814365    0.01568568   -0.03637083
     atom   22 type  1   force =    -0.05496073    0.04640720    0.00612024
     atom   23 type  1   force =     0.41244314    0.26754537   -0.09400034
     atom   24 type  2   force =    -0.33827832   -0.19887551    0.05224252
     The ionic contribution  to forces
     atom    1 type  2   force =     5.75067361   -4.79866294    0.06140568
     atom    2 type  1   force =     1.11661592   -1.66185334   -0.06807371
     atom    3 type  1   force =     4.13767407    1.96563507    1.90574192
     atom    4 type  3   force =     2.06236299    0.55519101    1.10510595
     atom    5 type  1   force =     0.65980478    3.75930422    2.58774971
     atom    6 type  3   force =     0.37574606    1.87659843    1.24892721
     atom    7 type  3   force =    -0.28479099    1.91893291   -1.11414425
     atom    8 type  1   force =    -0.67304544    3.88755382   -2.16199978
     atom    9 type  3   force =    -2.02876910    0.60951149   -0.99803071
     atom   10 type  1   force =    -4.05899206    1.73684890   -1.81304630
     atom   11 type  1   force =    -1.74425840   -1.61360419    0.04943305
     atom   12 type  2   force =    -4.93110977   -3.89684305   -0.21333911
     atom   13 type  3   force =    -0.69624833   -1.81445115   -1.43057924
     atom   14 type  1   force =    -2.35364247   -3.90646879   -2.84069933
     atom   15 type  3   force =    -2.31763170   -0.50876508   -1.28756141
     atom   16 type  1   force =    -5.41822374   -1.32736039   -2.88676910
     atom   17 type  1   force =    -3.45770987    2.17728103   -0.39577586
     atom   18 type  2   force =    -6.39629929    3.58737937   -0.92873226
     atom   19 type  3   force =     0.69804103   -1.89573932    1.32612068
     atom   20 type  1   force =     2.04361729   -3.87631022    3.00662712
     atom   21 type  3   force =     2.29341147   -0.69768802    1.26896913
     atom   22 type  1   force =     5.28345743   -2.07073380    2.40362515
     atom   23 type  1   force =     2.81259333    1.95096085    0.62109695
     atom   24 type  2   force =     7.12672317    4.04328317    0.55394851
     The local contribution  to forces
     atom    1 type  2   force =    -5.39535941    4.52002424   -0.09233637
     atom    2 type  1   force =    -1.50751833    1.97319723    0.12889722
     atom    3 type  1   force =    -4.08611274   -1.93522780   -1.88802848
     atom    4 type  3   force =    -1.99458221   -0.53952346   -1.07188114
     atom    5 type  1   force =    -0.60916799   -3.72506183   -2.53096162
     atom    6 type  3   force =    -0.36760503   -1.81393282   -1.20103068
     atom    7 type  3   force =     0.27670915   -1.85187216    1.07393549
     atom    8 type  1   force =     0.63556891   -3.84210369    2.10812822
     atom    9 type  3   force =     1.96119957   -0.59126416    0.96468560
     atom   10 type  1   force =     4.01508735   -1.69282960    1.78743986
     atom   11 type  1   force =     2.12123379    1.93069864   -0.07231883
     atom   12 type  2   force =     4.65006012    3.63394948    0.20705808
     atom   13 type  3   force =     0.68696751    1.75013037    1.38577465
     atom   14 type  1   force =     2.31693661    3.84698340    2.78246578
     atom   15 type  3   force =     2.25019417    0.49593690    1.24889902
     atom   16 type  1   force =     5.38534536    1.29071164    2.84507694
     atom   17 type  1   force =     3.82879785   -2.48181825    0.32698111
     atom   18 type  2   force =     6.16254083   -3.38926294    0.95282172
     atom   19 type  3   force =    -0.69019213    1.82857277   -1.28637396
     atom   20 type  1   force =    -2.00251829    3.83896598   -2.95563156
     atom   21 type  3   force =    -2.22283534    0.67752211   -1.23636725
     atom   22 type  1   force =    -5.23865161    2.02982766   -2.38483839
     atom   23 type  1   force =    -3.20344196   -2.22812923   -0.54276385
     atom   24 type  2   force =    -6.81015121   -3.83909500   -0.60128074
     The core correction contribution to forces
     atom    1 type  2   force =     0.00994493   -0.00687440   -0.00018208
     atom    2 type  1   force =    -0.00815769    0.00671012    0.00136933
     atom    3 type  1   force =    -0.00084598   -0.00044367   -0.00060056
     atom    4 type  3   force =     0.00000000    0.00000000    0.00000000
     atom    5 type  1   force =     0.00067886   -0.00126115   -0.00062701
     atom    6 type  3   force =     0.00000000    0.00000000    0.00000000
     atom    7 type  3   force =     0.00000000    0.00000000    0.00000000
     atom    8 type  1   force =    -0.00029441   -0.00113072    0.00022462
     atom    9 type  3   force =     0.00000000    0.00000000    0.00000000
     atom   10 type  1   force =     0.00113812   -0.00008811    0.00038145
     atom   11 type  1   force =     0.00974088    0.00821217   -0.00057230
     atom   12 type  2   force =    -0.01100839   -0.01134246   -0.00089388
     atom   13 type  3   force =     0.00000000    0.00000000    0.00000000
     atom   14 type  1   force =    -0.00013612    0.00080373    0.00022930
     atom   15 type  3   force =     0.00000000    0.00000000    0.00000000
     atom   16 type  1   force =     0.00144140   -0.00012980    0.00048690
     atom   17 type  1   force =     0.01133950   -0.00945336   -0.00202142
     atom   18 type  2   force =    -0.01418435    0.01232282    0.00174726
     atom   19 type  3   force =     0.00000000    0.00000000    0.00000000
     atom   20 type  1   force =     0.00032770    0.00115762   -0.00054188
     atom   21 type  3   force =     0.00000000    0.00000000    0.00000000
     atom   22 type  1   force =    -0.00105564    0.00020384   -0.00065338
     atom   23 type  1   force =    -0.01023804   -0.00752408    0.00190844
     atom   24 type  2   force =     0.01394387    0.00772666   -0.00215937
     The Hubbard contrib.    to forces
     atom    1 type  2   force =     0.00000000    0.00000000    0.00000000
     atom    2 type  1   force =     0.00000000    0.00000000    0.00000000
     atom    3 type  1   force =     0.00000000    0.00000000    0.00000000
     atom    4 type  3   force =     0.00000000    0.00000000    0.00000000
     atom    5 type  1   force =     0.00000000    0.00000000    0.00000000
     atom    6 type  3   force =     0.00000000    0.00000000    0.00000000
     atom    7 type  3   force =     0.00000000    0.00000000    0.00000000
     atom    8 type  1   force =     0.00000000    0.00000000    0.00000000
     atom    9 type  3   force =     0.00000000    0.00000000    0.00000000
     atom   10 type  1   force =     0.00000000    0.00000000    0.00000000
     atom   11 type  1   force =     0.00000000    0.00000000    0.00000000
     atom   12 type  2   force =     0.00000000    0.00000000    0.00000000
     atom   13 type  3   force =     0.00000000    0.00000000    0.00000000
     atom   14 type  1   force =     0.00000000    0.00000000    0.00000000
     atom   15 type  3   force =     0.00000000    0.00000000    0.00000000
     atom   16 type  1   force =     0.00000000    0.00000000    0.00000000
     atom   17 type  1   force =     0.00000000    0.00000000    0.00000000
     atom   18 type  2   force =     0.00000000    0.00000000    0.00000000
     atom   19 type  3   force =     0.00000000    0.00000000    0.00000000
     atom   20 type  1   force =     0.00000000    0.00000000    0.00000000
     atom   21 type  3   force =     0.00000000    0.00000000    0.00000000
     atom   22 type  1   force =     0.00000000    0.00000000    0.00000000
     atom   23 type  1   force =     0.00000000    0.00000000    0.00000000
     atom   24 type  2   force =     0.00000000    0.00000000    0.00000000
     The SCF correction term to forces
     atom    1 type  2   force =     0.00002899   -0.00009379   -0.00003219
     atom    2 type  1   force =    -0.00009460   -0.00003430   -0.00005860
     atom    3 type  1   force =    -0.00007959    0.00003728   -0.00001465
     atom    4 type  3   force =     0.00001565    0.00000851    0.00000950
     atom    5 type  1   force =    -0.00018707    0.00004224   -0.00005358
     atom    6 type  3   force =    -0.00002615    0.00000340   -0.00000908
     atom    7 type  3   force =     0.00001945    0.00001622    0.00000360
     atom    8 type  1   force =     0.00008561   -0.00002014    0.00003449
     atom    9 type  3   force =     0.00000521   -0.00001060    0.00000447
     atom   10 type  1   force =     0.00008161   -0.00012663    0.00007324
     atom   11 type  1   force =     0.00009274   -0.00006407    0.00006152
     atom   12 type  2   force =     0.00027170    0.00014351    0.00008820
     atom   13 type  3   force =    -0.00002872   -0.00000341   -0.00001453
     atom   14 type  1   force =    -0.00017379    0.00001880   -0.00006724
     atom   15 type  3   force =     0.00000139    0.00000704    0.00000344
     atom   16 type  1   force =    -0.00010595    0.00004912   -0.00002323
     atom   17 type  1   force =    -0.00013165   -0.00000079   -0.00005648
     atom   18 type  2   force =    -0.00003606   -0.00006457   -0.00002821
     atom   19 type  3   force =     0.00000417    0.00001636   -0.00000256
     atom   20 type  1   force =    -0.00002118    0.00000811   -0.00001137
     atom   21 type  3   force =     0.00000468   -0.00000492    0.00000303
     atom   22 type  1   force =    -0.00000282   -0.00005416    0.00002080
     atom   23 type  1   force =     0.00005343   -0.00003776    0.00002911
     atom   24 type  2   force =     0.00010008    0.00002576    0.00000373

     Total force =     0.149126     Total SCF correction =     0.000572

     Writing output data file scf-1818.save
 writing file ./scratch/scf-1818.save/charge-density
 writing file ./scratch/scf-1818.save/charge-density
 writing file ./scratch/scf-1818.save/charge-density
 writing file ./scratch/scf-1818.save/charge-density
 writing file ./scratch/scf-1818.save/charge-density
 writing file ./scratch/scf-1818.save/charge-density
 writing file ./scratch/scf-1818.save/charge-density
 writing file ./scratch/scf-1818.save/charge-density
 writing file ./scratch/scf-1818.save/charge-density
 writing file ./scratch/scf-1818.save/charge-density
 writing file ./scratch/scf-1818.save/charge-density
 writing file ./scratch/scf-1818.save/charge-density
 writing file ./scratch/scf-1818.save/charge-density
 writing file ./scratch/scf-1818.save/charge-density
 writing file ./scratch/scf-1818.save/charge-density
 writing file ./scratch/scf-1818.save/charge-density
 writing file ./scratch/scf-1818.save/charge-density
 writing file ./scratch/scf-1818.save/charge-density
 writing file ./scratch/scf-1818.save/charge-density
 writing file ./scratch/scf-1818.save/charge-density
 writing file ./scratch/scf-1818.save/charge-density
 writing file ./scratch/scf-1818.save/charge-density
 writing file ./scratch/scf-1818.save/charge-density
 writing file ./scratch/scf-1818.save/charge-density
 writing file ./scratch/scf-1818.save/charge-density
 writing file ./scratch/scf-1818.save/charge-density
 writing file ./scratch/scf-1818.save/charge-density
 writing file ./scratch/scf-1818.save/charge-density
 writing file ./scratch/scf-1818.save/charge-density
 writing file ./scratch/scf-1818.save/charge-density
 writing file ./scratch/scf-1818.save/charge-density
 writing file ./scratch/scf-1818.save/charge-density
 
     init_run     :      4.45s CPU      4.62s WALL (       1 calls)
     electrons    :     50.43s CPU     53.19s WALL (       1 calls)
     forces       :      2.34s CPU      2.47s WALL (       1 calls)

     Called by init_run:
     wfcinit      :      1.62s CPU      1.64s WALL (       1 calls)
     wfcinit:atom :      0.02s CPU      0.02s WALL (      16 calls)
     wfcinit:wfcr :      1.52s CPU      1.52s WALL (      16 calls)
     potinit      :      0.90s CPU      0.91s WALL (       1 calls)

     Called by electrons:
     c_bands      :     39.44s CPU     39.72s WALL (      11 calls)
     sum_band     :      6.83s CPU      8.00s WALL (      11 calls)
     v_of_rho     :      0.92s CPU      0.97s WALL (      12 calls)
     v_h          :      0.06s CPU      0.06s WALL (      12 calls)
     v_xc         :      0.94s CPU      0.98s WALL (      13 calls)
     newd         :      1.60s CPU      2.87s WALL (      12 calls)
     PAW_pot      :      1.66s CPU      1.69s WALL (      12 calls)
     mix_rho      :      0.14s CPU      0.14s WALL (      11 calls)

     Called by c_bands:
     init_us_2    :      0.83s CPU      0.86s WALL (     384 calls)
     cegterg      :     37.06s CPU     37.35s WALL (     176 calls)

     Called by sum_band:
     sum_band:bec :      0.02s CPU      0.02s WALL (     176 calls)
     addusdens    :      1.53s CPU      2.67s WALL (      11 calls)

     Called by *egterg:
     h_psi        :     27.96s CPU     28.10s WALL (     862 calls)
     s_psi        :      2.06s CPU      1.99s WALL (     862 calls)
     g_psi        :      0.14s CPU      0.16s WALL (     670 calls)
     cdiaghg      :      3.61s CPU      3.42s WALL (     846 calls)
     cegterg:over :      1.59s CPU      1.60s WALL (     670 calls)
     cegterg:upda :      1.16s CPU      1.28s WALL (     670 calls)
     cegterg:last :      0.34s CPU      0.44s WALL (     192 calls)

     Called by h_psi:
     h_psi:pot    :     27.67s CPU     27.83s WALL (     862 calls)
     h_psi:calbec :      2.37s CPU      2.23s WALL (     862 calls)
     vloc_psi     :     23.42s CPU     23.65s WALL (     862 calls)
     add_vuspsi   :      1.87s CPU      1.93s WALL (     862 calls)

     General routines
     calbec       :      3.11s CPU      2.96s WALL (    1102 calls)
     fft          :      0.75s CPU      0.78s WALL (     199 calls)
     ffts         :      0.04s CPU      0.03s WALL (      23 calls)
     fftw         :     21.79s CPU     22.08s WALL (   55968 calls)
     interpolate  :      0.15s CPU      0.15s WALL (      23 calls)
     davcio       :      0.00s CPU      0.01s WALL (      16 calls)
 
     Parallel routines
     fft_scatter  :      8.04s CPU      8.23s WALL (   56190 calls)

     PAW routines
     PAW_pot      :      1.66s CPU      1.69s WALL (      12 calls)
 
     PWSCF        :  0m57.88s CPU     1m 1.39s WALL

 
   This run was terminated on:  13:25:15  20May2017            

=------------------------------------------------------------------------------=
   JOB DONE.
=------------------------------------------------------------------------------=
