
     Program PWSCF v.6.1 starts on 22May2017 at 13: 6:45 

     This program is part of the open-source Quantum ESPRESSO suite
     for quantum simulation of materials; please cite
         "P. Giannozzi et al., J. Phys.:Condens. Matter 21 395502 (2009);
          URL http://www.quantum-espresso.org", 
     in publications or presentations arising from this work. More details at
     http://www.quantum-espresso.org/quote

     Parallel version (MPI & OpenMP), running on      32 processor cores
     Number of MPI processes:                32
     Threads/MPI process:                     1
     R & G space division:  proc/nbgrp/npool/nimage =      32
     Waiting for input...
     Reading input from standard input
Warning: card &IONS ignored
Warning: card     ION_TEMPERATURE   = 'INITIAL' ignored
Warning: card     TEMPW             = 586.D0 ignored
Warning: card     TOLP              = 100.D0 ignored
Warning: card     DELTA_T           = 1.D0 ignored
Warning: card     NRAISE            = 1 ignored
Warning: card / ignored
Warning: card &CELL ignored
Warning: card     CELL_DYNAMICS     = 'BFGS' ignored
Warning: card / ignored

     Current dimensions of program PWSCF are:
     Max number of different atomic species (ntypx) = 10
     Max number of k-points (npk) =  40000
     Max angular momentum in pseudopotentials (lmaxx) =  3
               file C.pbe-n-kjpaw_psl.1.0.0.UPF: wavefunction(s)  2S 2P renormalized
               file Cl.pbe-n-kjpaw_psl.1.0.0.UPF: wavefunction(s)  3S 3P renormalized
               file H.pbe-kjpaw_psl.1.0.0.UPF: wavefunction(s)  1S renormalized

     Subspace diagonalization in iterative solution of the eigenvalue problem:
     a serial algorithm will be used

 
     Parallelization info
     --------------------
     sticks:   dense  smooth     PW     G-vecs:    dense   smooth      PW
     Min         764     305     83                36108     9133    1292
     Max         765     306     84                36110     9135    1293
     Sum       24467    9791   2657              1155489   292295   41363
 


     bravais-lattice index     =            0
     lattice parameter (alat)  =       1.8897  a.u.
     unit-cell volume          =    2163.5316 (a.u.)^3
     number of atoms/cell      =           24
     number of atomic types    =            3
     number of electrons       =        84.00
     number of Kohn-Sham states=           42
     kinetic-energy cutoff     =     100.0000  Ry
     charge density cutoff     =    1000.0000  Ry
     convergence threshold     =      1.0E-07
     mixing beta               =       0.7000
     number of iterations used =            8  plain     mixing
     Exchange-correlation      =  SLA  PW   PBX  PBC ( 1  4  3  4 0 0)

     celldm(1)=   1.889726  celldm(2)=   0.000000  celldm(3)=   0.000000
     celldm(4)=   0.000000  celldm(5)=   0.000000  celldm(6)=   0.000000

     crystal axes: (cart. coord. in units of alat)
               a(1) = (  14.762000   0.000000   0.000000 )  
               a(2) = (   0.000000   5.832000   0.000000 )  
               a(3) = (  -1.563876   0.000000   3.723951 )  

     reciprocal axes: (cart. coord. in units 2 pi/alat)
               b(1) = (  0.067741  0.000000  0.028448 )  
               b(2) = (  0.000000  0.171468  0.000000 )  
               b(3) = (  0.000000  0.000000  0.268532 )  


     PseudoPot. # 1 for  C read from file:
     /global/cscratch1/sd/almno10/.data/PSEUDOPOTENTIALS/C.pbe-n-kjpaw_psl.1.0.0.UPF
     MD5 check sum: 2ba8448e293caca687844dde9a1b88a8
     Pseudo is Projector augmented-wave + core cor, Zval =  4.0
     Generated using "atomic" code by A. Dal Corso  v.5.3.0 svn rev. 11974
     Shape of augmentation charge: PSQ
     Using radial grid of 1073 points,  4 beta functions with: 
                l(1) =   0
                l(2) =   0
                l(3) =   1
                l(4) =   1
     Q(r) pseudized with 0 coefficients 


     PseudoPot. # 2 for Cl read from file:
     /global/cscratch1/sd/almno10/.data/PSEUDOPOTENTIALS/Cl.pbe-n-kjpaw_psl.1.0.0.UPF
     MD5 check sum: dca63699d6b897c5771335df08a09219
     Pseudo is Projector augmented-wave + core cor, Zval =  7.0
     Generated using "atomic" code by A. Dal Corso  v.5.3.0 svn rev. 11974
     Shape of augmentation charge: PSQ
     Using radial grid of 1157 points,  6 beta functions with: 
                l(1) =   0
                l(2) =   0
                l(3) =   1
                l(4) =   1
                l(5) =   2
                l(6) =   2
     Q(r) pseudized with 0 coefficients 


     PseudoPot. # 3 for  H read from file:
     /global/cscratch1/sd/almno10/.data/PSEUDOPOTENTIALS/H.pbe-kjpaw_psl.1.0.0.UPF
     MD5 check sum: bc0feb48a24907a0b97fa6ee2d589a29
     Pseudo is Projector augmented-wave, Zval =  1.0
     Generated using "atomic" code by A. Dal Corso  v.5.3.0 svn rev. 11974
     Shape of augmentation charge: PSQ
     Using radial grid of  929 points,  2 beta functions with: 
                l(1) =   0
                l(2) =   0
     Q(r) pseudized with 0 coefficients 


     atomic species   valence    mass     pseudopotential
        C              4.00    12.01100      C( 1.00)
        Cl             7.00    35.45270     Cl( 1.00)
        H              1.00     1.00790      H( 1.00)

     No symmetry found


                                    s                        frac. trans.

      isym =  1     identity                                     

 cryst.   s( 1) = (     1          0          0      )
                  (     0          1          0      )
                  (     0          0          1      )

 cart.    s( 1) = (  1.0000000  0.0000000 -0.0000000 )
                  (  0.0000000  1.0000000  0.0000000 )
                  (  0.0000000  0.0000000  1.0000000 )


   Cartesian axes

     site n.     atom                  positions (alat units)
         1           Cl  tau(   1) = (  16.2291122   0.6005301   1.9502105  )
         2           C   tau(   2) = (  14.9073219   1.6406217   1.9322305  )
         3           C   tau(   3) = (  14.9823103   2.7702919   2.7457537  )
         4           H   tau(   4) = (  15.8603005   2.9688663   3.3585577  )
         5           C   tau(   5) = (  13.9593294   3.7131375   2.6677193  )
         6           H   tau(   6) = (  13.9914037   4.6013251   3.2967114  )
         7           H   tau(   7) = (   6.7538945   2.2345028   0.3093522  )
         8           C   tau(   8) = (   6.7349123   1.3745364   0.9757053  )
         9           H   tau(   9) = (   4.7073332   0.8387444   0.4692529  )
        10           C   tau(  10) = (   5.5831873   0.5908883   1.0667753  )
        11           C   tau(  11) = (   5.6080326  -0.5049823   1.9279558  )
        12           Cl  tau(  12) = (   4.2185711  -1.5730943   2.0776548  )
        13           H   tau(  13) = (  13.7081418   0.4598893   0.5810947  )
        14           C   tau(  14) = (  13.7778567   1.3805212   1.1577010  )
        15           H   tau(  15) = (  11.8363156   2.0880656   0.5436835  )
        16           C   tau(  16) = (  12.7172607   2.2861214   1.1511560  )
        17           C   tau(  17) = (  12.8322766   3.4567079   1.8882585  )
        18           Cl  tau(  18) = (  11.5322774   4.7038019   1.7950177  )
        19           H   tau(  19) = (   6.7375314  -1.6930790   3.3161632  )
        20           C   tau(  20) = (   6.7483569  -0.8195271   2.6662567  )
        21           H   tau(  21) = (   8.7820179  -0.2987469   3.1518900  )
        22           C   tau(  22) = (   7.9016706  -0.0434669   2.5657286  )
        23           C   tau(  23) = (   7.8679501   1.0694549   1.7279173  )
        24           Cl  tau(  24) = (   9.1272016   2.3110380   1.5774421  )

   Crystallographic axes

     site n.     atom                  positions (cryst. coord.)
         1           Cl  tau(   1) = (  1.1548641  0.1029716  0.5236939  )
         2           C   tau(   2) = (  1.0648126  0.2813137  0.5188657  )
         3           C   tau(   3) = (  1.0930356  0.4750158  0.7373227  )
         4           H   tau(   4) = (  1.1699451  0.5090649  0.9018801  )
         5           C   tau(   5) = (  1.0215174  0.6366834  0.7163679  )
         6           H   tau(   6) = (  1.0415838  0.7889789  0.8852724  )
         7           H   tau(   7) = (  0.4663194  0.3831452  0.0830710  )
         8           C   tau(   8) = (  0.4839900  0.2356887  0.2620081  )
         9           H   tau(   9) = (  0.3322311  0.1438176  0.1260094  )
        10           C   tau(  10) = (  0.4085612  0.1013183  0.2864633  )
        11           C   tau(  11) = (  0.4347432 -0.0865882  0.5177178  )
        12           Cl  tau(  12) = (  0.3448776 -0.2697350  0.5579167  )
        13           H   tau(  13) = (  0.9451411  0.0788562  0.1560425  )
        14           C   tau(  14) = (  0.9662670  0.2367149  0.3108797  )
        15           H   tau(  15) = (  0.8172765  0.3580359  0.1459964  )
        16           C   tau(  16) = (  0.8942345  0.3919961  0.3091222  )
        17           C   tau(  17) = (  0.9229950  0.5927140  0.5070578  )
        18           Cl  tau(  18) = (  0.8322786  0.8065504  0.4820196  )
        19           H   tau(  19) = (  0.5507490 -0.2903085  0.8904958  )
        20           C   tau(  20) = (  0.5329937 -0.1405225  0.7159752  )
        21           H   tau(  21) = (  0.6845723 -0.0512255  0.8463832  )
        22           C   tau(  22) = (  0.6082611 -0.0074532  0.6889802  )
        23           C   tau(  23) = (  0.5821427  0.1833770  0.4640010  )
        24           Cl  tau(  24) = (  0.6631655  0.3962685  0.4235936  )

     number of k points=    16
                       cart. coord. in units 2pi/alat
        k(    1) = (   0.0169354   0.0214335   0.0406785), wk =   0.1250000
        k(    2) = (   0.0169354   0.0214335   0.1078115), wk =   0.1250000
        k(    3) = (   0.0169354   0.0214335  -0.0935875), wk =   0.1250000
        k(    4) = (   0.0169354   0.0214335  -0.0264545), wk =   0.1250000
        k(    5) = (   0.0169354   0.0643004   0.0406785), wk =   0.1250000
        k(    6) = (   0.0169354   0.0643004   0.1078115), wk =   0.1250000
        k(    7) = (   0.0169354   0.0643004  -0.0935875), wk =   0.1250000
        k(    8) = (   0.0169354   0.0643004  -0.0264545), wk =   0.1250000
        k(    9) = (  -0.0169354   0.0214335  -0.0406785), wk =   0.1250000
        k(   10) = (  -0.0169354   0.0214335  -0.1078115), wk =   0.1250000
        k(   11) = (  -0.0169354   0.0214335   0.0935875), wk =   0.1250000
        k(   12) = (  -0.0169354   0.0214335   0.0264545), wk =   0.1250000
        k(   13) = (  -0.0169354   0.0643004  -0.0406785), wk =   0.1250000
        k(   14) = (  -0.0169354   0.0643004  -0.1078115), wk =   0.1250000
        k(   15) = (  -0.0169354   0.0643004   0.0935875), wk =   0.1250000
        k(   16) = (  -0.0169354   0.0643004   0.0264545), wk =   0.1250000

                       cryst. coord.
        k(    1) = (   0.2500000   0.1250000   0.1250000), wk =   0.1250000
        k(    2) = (   0.2500000   0.1250000   0.3750000), wk =   0.1250000
        k(    3) = (   0.2500000   0.1250000  -0.3750000), wk =   0.1250000
        k(    4) = (   0.2500000   0.1250000  -0.1250000), wk =   0.1250000
        k(    5) = (   0.2500000   0.3750000   0.1250000), wk =   0.1250000
        k(    6) = (   0.2500000   0.3750000   0.3750000), wk =   0.1250000
        k(    7) = (   0.2500000   0.3750000  -0.3750000), wk =   0.1250000
        k(    8) = (   0.2500000   0.3750000  -0.1250000), wk =   0.1250000
        k(    9) = (  -0.2500000   0.1250000  -0.1250000), wk =   0.1250000
        k(   10) = (  -0.2500000   0.1250000  -0.3750000), wk =   0.1250000
        k(   11) = (  -0.2500000   0.1250000   0.3750000), wk =   0.1250000
        k(   12) = (  -0.2500000   0.1250000   0.1250000), wk =   0.1250000
        k(   13) = (  -0.2500000   0.3750000  -0.1250000), wk =   0.1250000
        k(   14) = (  -0.2500000   0.3750000  -0.3750000), wk =   0.1250000
        k(   15) = (  -0.2500000   0.3750000   0.3750000), wk =   0.1250000
        k(   16) = (  -0.2500000   0.3750000   0.1250000), wk =   0.1250000

     Dense  grid:  1155489 G-vectors     FFT dimensions: ( 288, 120,  80)

     Smooth grid:   292295 G-vectors     FFT dimensions: ( 180,  72,  50)

     Estimated max dynamical RAM per process >     147.21MB

     Estimated total allocated dynamical RAM >    4710.62MB

     Initial potential from superposition of free atoms

     starting charge   83.99939, renormalised to   84.00000
     Starting wfc are   72 randomized atomic wfcs
     Checking if some PAW data can be deallocated... 
       node    0, deallocated PAW data for type:  1
       node    0, deallocated PAW data for type:  3
       node    1, deallocated PAW data for type:  1
       node    1, deallocated PAW data for type:  3
       node    2, deallocated PAW data for type:  2
       node    2, deallocated PAW data for type:  3
       node    3, deallocated PAW data for type:  2
       node    3, deallocated PAW data for type:  3
       node    4, deallocated PAW data for type:  2
       node    4, deallocated PAW data for type:  3
       node    5, deallocated PAW data for type:  2
       node    5, deallocated PAW data for type:  3
       node    6, deallocated PAW data for type:  1
       node    6, deallocated PAW data for type:  2
       node    7, deallocated PAW data for type:  1
       node    7, deallocated PAW data for type:  2
       node    8, deallocated PAW data for type:  2
       node    8, deallocated PAW data for type:  3
       node    9, deallocated PAW data for type:  2
       node    9, deallocated PAW data for type:  3
       node   10, deallocated PAW data for type:  1
       node   10, deallocated PAW data for type:  2
       node   11, deallocated PAW data for type:  1
       node   11, deallocated PAW data for type:  2
       node   12, deallocated PAW data for type:  1
       node   12, deallocated PAW data for type:  2
       node   13, deallocated PAW data for type:  1
       node   13, deallocated PAW data for type:  2
       node   14, deallocated PAW data for type:  2
       node   14, deallocated PAW data for type:  3
       node   15, deallocated PAW data for type:  2
       node   15, deallocated PAW data for type:  3
       node   16, deallocated PAW data for type:  1
       node   16, deallocated PAW data for type:  2
       node   17, deallocated PAW data for type:  2
       node   17, deallocated PAW data for type:  3
       node   18, deallocated PAW data for type:  2
       node   18, deallocated PAW data for type:  3
       node   19, deallocated PAW data for type:  1
       node   19, deallocated PAW data for type:  3
       node   20, deallocated PAW data for type:  1
       node   20, deallocated PAW data for type:  2
       node   21, deallocated PAW data for type:  2
       node   21, deallocated PAW data for type:  3
       node   22, deallocated PAW data for type:  1
       node   22, deallocated PAW data for type:  2
       node   23, deallocated PAW data for type:  2
       node   23, deallocated PAW data for type:  3
       node   24, deallocated PAW data for type:  2
       node   24, deallocated PAW data for type:  3
       node   25, deallocated PAW data for type:  1
       node   25, deallocated PAW data for type:  3
       node   26, deallocated PAW data for type:  1
       node   26, deallocated PAW data for type:  2
       node   27, deallocated PAW data for type:  2
       node   27, deallocated PAW data for type:  3
       node   28, deallocated PAW data for type:  1
       node   28, deallocated PAW data for type:  2
       node   29, deallocated PAW data for type:  2
       node   29, deallocated PAW data for type:  3
       node   30, deallocated PAW data for type:  2
       node   30, deallocated PAW data for type:  3
       node   31, deallocated PAW data for type:  1
       node   31, deallocated PAW data for type:  3

     total cpu time spent up to now is        5.3 secs

     per-process dynamical memory:    20.7 Mb

     Self-consistent Calculation

     iteration #  1     ecut=   100.00 Ry     beta= 0.70
     Davidson diagonalization with overlap
     ethr =  1.00E-04,  avg # of iterations =  5.0

     total cpu time spent up to now is       12.1 secs

     total energy              =    -547.12199413 Ry
     Harris-Foulkes estimate   =    -549.00200917 Ry
     estimated scf accuracy    <       2.74608943 Ry

     iteration #  2     ecut=   100.00 Ry     beta= 0.70
     Davidson diagonalization with overlap
     ethr =  3.27E-03,  avg # of iterations =  3.0

     total cpu time spent up to now is       17.0 secs

     total energy              =    -547.52164227 Ry
     Harris-Foulkes estimate   =    -548.62622079 Ry
     estimated scf accuracy    <       2.00095257 Ry

     iteration #  3     ecut=   100.00 Ry     beta= 0.70
     Davidson diagonalization with overlap
     ethr =  2.38E-03,  avg # of iterations =  3.0

     total cpu time spent up to now is       21.4 secs

     total energy              =    -548.01884491 Ry
     Harris-Foulkes estimate   =    -548.06036879 Ry
     estimated scf accuracy    <       0.08364790 Ry

     iteration #  4     ecut=   100.00 Ry     beta= 0.70
     Davidson diagonalization with overlap
     ethr =  9.96E-05,  avg # of iterations =  4.0

     total cpu time spent up to now is       26.2 secs

     total energy              =    -548.04577390 Ry
     Harris-Foulkes estimate   =    -548.05651701 Ry
     estimated scf accuracy    <       0.02114401 Ry

     iteration #  5     ecut=   100.00 Ry     beta= 0.70
     Davidson diagonalization with overlap
     ethr =  2.52E-05,  avg # of iterations =  3.0

     total cpu time spent up to now is       30.6 secs

     total energy              =    -548.04982172 Ry
     Harris-Foulkes estimate   =    -548.05101231 Ry
     estimated scf accuracy    <       0.00215874 Ry

     iteration #  6     ecut=   100.00 Ry     beta= 0.70
     Davidson diagonalization with overlap
     ethr =  2.57E-06,  avg # of iterations =  4.0

     total cpu time spent up to now is       35.4 secs

     total energy              =    -548.05020838 Ry
     Harris-Foulkes estimate   =    -548.05106955 Ry
     estimated scf accuracy    <       0.00231326 Ry

     iteration #  7     ecut=   100.00 Ry     beta= 0.70
     Davidson diagonalization with overlap
     ethr =  2.57E-06,  avg # of iterations =  4.0

     total cpu time spent up to now is       39.7 secs

     total energy              =    -548.05063720 Ry
     Harris-Foulkes estimate   =    -548.05065895 Ry
     estimated scf accuracy    <       0.00006341 Ry

     iteration #  8     ecut=   100.00 Ry     beta= 0.70
     Davidson diagonalization with overlap
     ethr =  7.55E-08,  avg # of iterations =  4.0

     total cpu time spent up to now is       44.3 secs

     total energy              =    -548.05065512 Ry
     Harris-Foulkes estimate   =    -548.05065702 Ry
     estimated scf accuracy    <       0.00000505 Ry

     iteration #  9     ecut=   100.00 Ry     beta= 0.70
     Davidson diagonalization with overlap
     ethr =  6.01E-09,  avg # of iterations =  4.0

     total cpu time spent up to now is       49.0 secs

     total energy              =    -548.05065625 Ry
     Harris-Foulkes estimate   =    -548.05065687 Ry
     estimated scf accuracy    <       0.00000138 Ry

     iteration # 10     ecut=   100.00 Ry     beta= 0.70
     Davidson diagonalization with overlap
     ethr =  1.64E-09,  avg # of iterations =  4.0

     total cpu time spent up to now is       54.0 secs

     total energy              =    -548.05065653 Ry
     Harris-Foulkes estimate   =    -548.05065663 Ry
     estimated scf accuracy    <       0.00000023 Ry

     iteration # 11     ecut=   100.00 Ry     beta= 0.70
     Davidson diagonalization with overlap
     ethr =  2.80E-10,  avg # of iterations =  4.0

     total cpu time spent up to now is       58.7 secs

     End of self-consistent calculation

          k = 0.0169 0.0214 0.0407 ( 36525 PWs)   bands (ev):

   -16.2132 -15.9805 -15.3387 -15.2323 -13.9262 -13.8755 -12.3180 -12.3133
   -11.2542 -11.2369  -8.9596  -8.9342  -8.2158  -8.1518  -6.3270  -6.2296
    -5.3172  -5.2716  -5.0181  -4.7818  -4.2144  -4.1169  -4.0381  -3.8869
    -3.2488  -3.0775  -2.7102  -2.6136  -2.4257  -2.2997  -2.2015  -2.1544
    -1.1808  -1.1265  -1.0231  -0.9935  -0.8912  -0.7926  -0.0421   0.0093
     0.5420   0.7605

     occupation numbers 
     1.0000   1.0000   1.0000   1.0000   1.0000   1.0000   1.0000   1.0000
     1.0000   1.0000   1.0000   1.0000   1.0000   1.0000   1.0000   1.0000
     1.0000   1.0000   1.0000   1.0000   1.0000   1.0000   1.0000   1.0000
     1.0000   1.0000   1.0000   1.0000   1.0000   1.0000   1.0000   1.0000
     1.0000   1.0000   1.0000   1.0000   1.0000   1.0000   1.0000   1.0000
     1.0000   1.0000

          k = 0.0169 0.0214 0.1078 ( 36561 PWs)   bands (ev):

   -16.1400 -15.8660 -15.2868 -15.1920 -13.9127 -13.8562 -12.3216 -12.3111
   -11.2802 -11.2185  -8.9281  -8.8931  -8.1972  -8.1387  -6.3686  -6.2615
    -5.3254  -5.2793  -5.0401  -4.9275  -4.2998  -4.1742  -4.0876  -4.0215
    -3.7708  -3.7053  -2.7826  -2.7181  -2.5384  -2.4705  -2.3737  -2.3012
    -1.3267  -1.1855  -1.1192  -0.9719  -0.9113  -0.8246  -0.1811  -0.0918
     0.6786   0.8314

     occupation numbers 
     1.0000   1.0000   1.0000   1.0000   1.0000   1.0000   1.0000   1.0000
     1.0000   1.0000   1.0000   1.0000   1.0000   1.0000   1.0000   1.0000
     1.0000   1.0000   1.0000   1.0000   1.0000   1.0000   1.0000   1.0000
     1.0000   1.0000   1.0000   1.0000   1.0000   1.0000   1.0000   1.0000
     1.0000   1.0000   1.0000   1.0000   1.0000   1.0000   1.0000   1.0000
     1.0000   1.0000

          k = 0.0169 0.0214-0.0936 ( 36547 PWs)   bands (ev):

   -16.1436 -15.8571 -15.2890 -15.1954 -13.9103 -13.8622 -12.3241 -12.3089
   -11.2629 -11.2297  -8.9492  -8.8707  -8.1899  -8.1273  -6.3463  -6.3054
    -5.3295  -5.2807  -5.0760  -4.9097  -4.2679  -4.1770  -4.1402  -4.0203
    -3.7722  -3.7052  -2.7296  -2.6600  -2.5562  -2.5270  -2.3606  -2.3190
    -1.3218  -1.2042  -1.0805  -1.0273  -0.8891  -0.8167  -0.1401  -0.1080
     0.6962   0.8147

     occupation numbers 
     1.0000   1.0000   1.0000   1.0000   1.0000   1.0000   1.0000   1.0000
     1.0000   1.0000   1.0000   1.0000   1.0000   1.0000   1.0000   1.0000
     1.0000   1.0000   1.0000   1.0000   1.0000   1.0000   1.0000   1.0000
     1.0000   1.0000   1.0000   1.0000   1.0000   1.0000   1.0000   1.0000
     1.0000   1.0000   1.0000   1.0000   1.0000   1.0000   1.0000   1.0000
     1.0000   1.0000

          k = 0.0169 0.0214-0.0265 ( 36551 PWs)   bands (ev):

   -16.2168 -15.9725 -15.3425 -15.2331 -13.9218 -13.8830 -12.3253 -12.3074
   -11.2502 -11.2337  -8.9894  -8.9077  -8.2391  -8.1007  -6.3546  -6.2189
    -5.3324  -5.2721  -5.0863  -4.7309  -4.2721  -4.0839  -4.0041  -3.8937
    -3.2298  -3.1077  -2.7587  -2.5263  -2.4113  -2.3251  -2.2246  -2.1334
    -1.1998  -1.1082  -1.0648  -0.9572  -0.9001  -0.7895  -0.0210   0.0091
     0.5479   0.7638

     occupation numbers 
     1.0000   1.0000   1.0000   1.0000   1.0000   1.0000   1.0000   1.0000
     1.0000   1.0000   1.0000   1.0000   1.0000   1.0000   1.0000   1.0000
     1.0000   1.0000   1.0000   1.0000   1.0000   1.0000   1.0000   1.0000
     1.0000   1.0000   1.0000   1.0000   1.0000   1.0000   1.0000   1.0000
     1.0000   1.0000   1.0000   1.0000   1.0000   1.0000   1.0000   1.0000
     1.0000   1.0000

          k = 0.0169 0.0643 0.0407 ( 36518 PWs)   bands (ev):

   -16.1855 -15.9530 -15.3390 -15.2458 -13.9786 -13.9118 -12.3505 -12.3403
   -11.2468 -11.2251  -8.8923  -8.8683  -8.1267  -8.0583  -6.3720  -6.2947
    -5.3025  -5.2539  -5.0738  -4.8723  -4.2963  -4.2255  -4.0624  -3.9665
    -3.3268  -3.1507  -2.6536  -2.5686  -2.4808  -2.3294  -2.1519  -2.0852
    -1.0557  -0.9597  -0.9005  -0.8661  -0.8444  -0.7719  -0.0518   0.0279
     0.6084   0.7645

     occupation numbers 
     1.0000   1.0000   1.0000   1.0000   1.0000   1.0000   1.0000   1.0000
     1.0000   1.0000   1.0000   1.0000   1.0000   1.0000   1.0000   1.0000
     1.0000   1.0000   1.0000   1.0000   1.0000   1.0000   1.0000   1.0000
     1.0000   1.0000   1.0000   1.0000   1.0000   1.0000   1.0000   1.0000
     1.0000   1.0000   1.0000   1.0000   1.0000   1.0000   1.0000   1.0000
     1.0000   1.0000

          k = 0.0169 0.0643 0.1078 ( 36558 PWs)   bands (ev):

   -16.1209 -15.8551 -15.2835 -15.1913 -13.9369 -13.8822 -12.3322 -12.3187
   -11.2943 -11.2295  -8.9125  -8.8881  -8.2042  -8.1164  -6.3583  -6.2704
    -5.3138  -5.2764  -4.9500  -4.7966  -4.2807  -4.2029  -4.0581  -3.9535
    -3.9298  -3.8861  -2.7608  -2.6856  -2.6318  -2.4559  -2.4075  -2.2970
    -1.2499  -1.1175  -1.0622  -1.0088  -0.9189  -0.8283  -0.0140   0.0410
     0.6401   0.8116

     occupation numbers 
     1.0000   1.0000   1.0000   1.0000   1.0000   1.0000   1.0000   1.0000
     1.0000   1.0000   1.0000   1.0000   1.0000   1.0000   1.0000   1.0000
     1.0000   1.0000   1.0000   1.0000   1.0000   1.0000   1.0000   1.0000
     1.0000   1.0000   1.0000   1.0000   1.0000   1.0000   1.0000   1.0000
     1.0000   1.0000   1.0000   1.0000   1.0000   1.0000   1.0000   1.0000
     1.0000   1.0000

          k = 0.0169 0.0643-0.0936 ( 36547 PWs)   bands (ev):

   -16.1246 -15.8463 -15.2838 -15.1964 -13.9372 -13.8854 -12.3271 -12.3241
   -11.2834 -11.2347  -8.9222  -8.8750  -8.1656  -8.1408  -6.3567  -6.2935
    -5.3222  -5.2762  -4.9127  -4.8382  -4.2911  -4.2119  -4.0367  -4.0001
    -3.9146  -3.8769  -2.7700  -2.6666  -2.6194  -2.5494  -2.3297  -2.2668
    -1.2448  -1.1556  -1.0421  -0.9879  -0.9196  -0.8555   0.0133   0.0395
     0.6565   0.7989

     occupation numbers 
     1.0000   1.0000   1.0000   1.0000   1.0000   1.0000   1.0000   1.0000
     1.0000   1.0000   1.0000   1.0000   1.0000   1.0000   1.0000   1.0000
     1.0000   1.0000   1.0000   1.0000   1.0000   1.0000   1.0000   1.0000
     1.0000   1.0000   1.0000   1.0000   1.0000   1.0000   1.0000   1.0000
     1.0000   1.0000   1.0000   1.0000   1.0000   1.0000   1.0000   1.0000
     1.0000   1.0000

          k = 0.0169 0.0643-0.0265 ( 36489 PWs)   bands (ev):

   -16.1890 -15.9453 -15.3403 -15.2488 -13.9781 -13.9157 -12.3502 -12.3401
   -11.2479 -11.2200  -8.9047  -8.8528  -8.1192  -8.0425  -6.3813  -6.3277
    -5.2962  -5.2552  -5.0346  -4.9023  -4.3251  -4.1897  -4.0938  -4.0007
    -3.2899  -3.1833  -2.6276  -2.5271  -2.4371  -2.3744  -2.1557  -2.0894
    -1.0891  -0.9921  -0.9135  -0.8643  -0.8383  -0.7263  -0.0111   0.0183
     0.6140   0.7632

     occupation numbers 
     1.0000   1.0000   1.0000   1.0000   1.0000   1.0000   1.0000   1.0000
     1.0000   1.0000   1.0000   1.0000   1.0000   1.0000   1.0000   1.0000
     1.0000   1.0000   1.0000   1.0000   1.0000   1.0000   1.0000   1.0000
     1.0000   1.0000   1.0000   1.0000   1.0000   1.0000   1.0000   1.0000
     1.0000   1.0000   1.0000   1.0000   1.0000   1.0000   1.0000   1.0000
     1.0000   1.0000

          k =-0.0169 0.0214-0.0407 ( 36525 PWs)   bands (ev):

   -16.2162 -15.9740 -15.3360 -15.2386 -13.9263 -13.8785 -12.3235 -12.3083
   -11.2594 -11.2259  -8.9839  -8.9084  -8.2106  -8.1399  -6.3215  -6.2510
    -5.3298  -5.2663  -4.9671  -4.8666  -4.2077  -4.1387  -4.0185  -3.9123
    -3.2143  -3.1102  -2.6693  -2.6080  -2.3759  -2.3333  -2.2125  -2.1438
    -1.2007  -1.1209  -1.0303  -0.9994  -0.8890  -0.7935  -0.0211   0.0118
     0.5406   0.7687

     occupation numbers 
     1.0000   1.0000   1.0000   1.0000   1.0000   1.0000   1.0000   1.0000
     1.0000   1.0000   1.0000   1.0000   1.0000   1.0000   1.0000   1.0000
     1.0000   1.0000   1.0000   1.0000   1.0000   1.0000   1.0000   1.0000
     1.0000   1.0000   1.0000   1.0000   1.0000   1.0000   1.0000   1.0000
     1.0000   1.0000   1.0000   1.0000   1.0000   1.0000   1.0000   1.0000
     1.0000   1.0000

          k =-0.0169 0.0214-0.1078 ( 36561 PWs)   bands (ev):

   -16.1434 -15.8577 -15.2850 -15.1990 -13.9144 -13.8578 -12.3259 -12.3072
   -11.2711 -11.2215  -8.9506  -8.8697  -8.1899  -8.1274  -6.3655  -6.2795
    -5.3338  -5.2749  -5.0460  -4.9749  -4.2928  -4.1691  -4.0624  -4.0223
    -3.7867  -3.7036  -2.8042  -2.7037  -2.5090  -2.4784  -2.3761  -2.2820
    -1.3557  -1.1738  -1.1327  -0.9978  -0.8881  -0.8061  -0.1488  -0.1045
     0.6886   0.8246

     occupation numbers 
     1.0000   1.0000   1.0000   1.0000   1.0000   1.0000   1.0000   1.0000
     1.0000   1.0000   1.0000   1.0000   1.0000   1.0000   1.0000   1.0000
     1.0000   1.0000   1.0000   1.0000   1.0000   1.0000   1.0000   1.0000
     1.0000   1.0000   1.0000   1.0000   1.0000   1.0000   1.0000   1.0000
     1.0000   1.0000   1.0000   1.0000   1.0000   1.0000   1.0000   1.0000
     1.0000   1.0000

          k =-0.0169 0.0214 0.0936 ( 36547 PWs)   bands (ev):

   -16.1402 -15.8653 -15.2906 -15.1888 -13.9058 -13.8633 -12.3184 -12.3144
   -11.2740 -11.2242  -8.9232  -8.8985  -8.2024  -8.1328  -6.3657  -6.2669
    -5.3255  -5.2736  -5.0828  -4.8692  -4.2784  -4.1872  -4.1118  -4.0499
    -3.7531  -3.7140  -2.7292  -2.6687  -2.5704  -2.4884  -2.3764  -2.3503
    -1.3021  -1.2071  -1.0837  -0.9958  -0.9192  -0.8175  -0.1802  -0.0876
     0.6813   0.8259

     occupation numbers 
     1.0000   1.0000   1.0000   1.0000   1.0000   1.0000   1.0000   1.0000
     1.0000   1.0000   1.0000   1.0000   1.0000   1.0000   1.0000   1.0000
     1.0000   1.0000   1.0000   1.0000   1.0000   1.0000   1.0000   1.0000
     1.0000   1.0000   1.0000   1.0000   1.0000   1.0000   1.0000   1.0000
     1.0000   1.0000   1.0000   1.0000   1.0000   1.0000   1.0000   1.0000
     1.0000   1.0000

          k =-0.0169 0.0214 0.0265 ( 36551 PWs)   bands (ev):

   -16.2137 -15.9793 -15.3426 -15.2292 -13.9235 -13.8779 -12.3202 -12.3119
   -11.2562 -11.2337  -8.9738  -8.9233  -8.2447  -8.1142  -6.3737  -6.1827
    -5.3211  -5.2742  -5.0891  -4.6885  -4.2930  -4.0786  -4.0076  -3.8677
    -3.2477  -3.0953  -2.7528  -2.5925  -2.4315  -2.2753  -2.2167  -2.1647
    -1.1844  -1.1172  -1.0490  -0.9489  -0.8847  -0.8094  -0.0423   0.0092
     0.5491   0.7537

     occupation numbers 
     1.0000   1.0000   1.0000   1.0000   1.0000   1.0000   1.0000   1.0000
     1.0000   1.0000   1.0000   1.0000   1.0000   1.0000   1.0000   1.0000
     1.0000   1.0000   1.0000   1.0000   1.0000   1.0000   1.0000   1.0000
     1.0000   1.0000   1.0000   1.0000   1.0000   1.0000   1.0000   1.0000
     1.0000   1.0000   1.0000   1.0000   1.0000   1.0000   1.0000   1.0000
     1.0000   1.0000

          k =-0.0169 0.0643-0.0407 ( 36518 PWs)   bands (ev):

   -16.1887 -15.9460 -15.3356 -15.2532 -13.9768 -13.9165 -12.3480 -12.3435
   -11.2505 -11.2156  -8.8999  -8.8589  -8.1121  -8.0552  -6.3716  -6.3124
    -5.2967  -5.2574  -5.0295  -4.9617  -4.3127  -4.2258  -4.0667  -3.9458
    -3.2853  -3.1873  -2.6408  -2.5595  -2.4586  -2.3506  -2.1410  -2.0896
    -1.0607  -0.9627  -0.9001  -0.8826  -0.8384  -0.7733  -0.0119   0.0183
     0.6119   0.7665

     occupation numbers 
     1.0000   1.0000   1.0000   1.0000   1.0000   1.0000   1.0000   1.0000
     1.0000   1.0000   1.0000   1.0000   1.0000   1.0000   1.0000   1.0000
     1.0000   1.0000   1.0000   1.0000   1.0000   1.0000   1.0000   1.0000
     1.0000   1.0000   1.0000   1.0000   1.0000   1.0000   1.0000   1.0000
     1.0000   1.0000   1.0000   1.0000   1.0000   1.0000   1.0000   1.0000
     1.0000   1.0000

          k =-0.0169 0.0643-0.1078 ( 36558 PWs)   bands (ev):

   -16.1246 -15.8466 -15.2814 -15.1988 -13.9343 -13.8882 -12.3295 -12.3216
   -11.2835 -11.2344  -8.9234  -8.8746  -8.1637  -8.1428  -6.3386  -6.3080
    -5.3202  -5.2652  -4.9073  -4.8779  -4.2542  -4.2290  -4.0282  -3.9806
    -3.9415  -3.8936  -2.7544  -2.6750  -2.5886  -2.4855  -2.3774  -2.3025
    -1.2892  -1.1574  -1.0321  -0.9793  -0.9142  -0.8339   0.0090   0.0436
     0.6485   0.8036

     occupation numbers 
     1.0000   1.0000   1.0000   1.0000   1.0000   1.0000   1.0000   1.0000
     1.0000   1.0000   1.0000   1.0000   1.0000   1.0000   1.0000   1.0000
     1.0000   1.0000   1.0000   1.0000   1.0000   1.0000   1.0000   1.0000
     1.0000   1.0000   1.0000   1.0000   1.0000   1.0000   1.0000   1.0000
     1.0000   1.0000   1.0000   1.0000   1.0000   1.0000   1.0000   1.0000
     1.0000   1.0000

          k =-0.0169 0.0643 0.0936 ( 36547 PWs)   bands (ev):

   -16.1211 -15.8547 -15.2858 -15.1892 -13.9370 -13.8820 -12.3310 -12.3201
   -11.2944 -11.2291  -8.9089  -8.8916  -8.2095  -8.1106  -6.3769  -6.2508
    -5.3203  -5.2780  -4.9794  -4.7452  -4.3133  -4.1889  -4.0756  -3.9331
    -3.9200  -3.8783  -2.7656  -2.7141  -2.6133  -2.5655  -2.3516  -2.2474
    -1.2039  -1.1354  -1.0761  -1.0184  -0.8936  -0.8600  -0.0132   0.0412
     0.6451   0.8087

     occupation numbers 
     1.0000   1.0000   1.0000   1.0000   1.0000   1.0000   1.0000   1.0000
     1.0000   1.0000   1.0000   1.0000   1.0000   1.0000   1.0000   1.0000
     1.0000   1.0000   1.0000   1.0000   1.0000   1.0000   1.0000   1.0000
     1.0000   1.0000   1.0000   1.0000   1.0000   1.0000   1.0000   1.0000
     1.0000   1.0000   1.0000   1.0000   1.0000   1.0000   1.0000   1.0000
     1.0000   1.0000

          k =-0.0169 0.0643 0.0265 ( 36489 PWs)   bands (ev):

   -16.1856 -15.9527 -15.3404 -15.2444 -13.9810 -13.9096 -12.3516 -12.3380
   -11.2522 -11.2217  -8.9009  -8.8574  -8.1248  -8.0565  -6.4107  -6.2800
    -5.3026  -5.2518  -5.0307  -4.8537  -4.3154  -4.1813  -4.1413  -3.9840
    -3.3227  -3.1551  -2.6117  -2.5380  -2.4723  -2.3579  -2.1568  -2.1017
    -1.0927  -0.9768  -0.9042  -0.8689  -0.8175  -0.7400  -0.0514   0.0273
     0.6140   0.7570

     occupation numbers 
     1.0000   1.0000   1.0000   1.0000   1.0000   1.0000   1.0000   1.0000
     1.0000   1.0000   1.0000   1.0000   1.0000   1.0000   1.0000   1.0000
     1.0000   1.0000   1.0000   1.0000   1.0000   1.0000   1.0000   1.0000
     1.0000   1.0000   1.0000   1.0000   1.0000   1.0000   1.0000   1.0000
     1.0000   1.0000   1.0000   1.0000   1.0000   1.0000   1.0000   1.0000
     1.0000   1.0000

     highest occupied level (ev):     0.8314

!    total energy              =    -548.05065657 Ry
     Harris-Foulkes estimate   =    -548.05065660 Ry
     estimated scf accuracy    <       0.00000004 Ry

     total all-electron energy =     -4615.894144 Ry

     The total energy is the sum of the following terms:

     one-electron contribution =    -154.49741919 Ry
     hartree contribution      =     108.63563717 Ry
     xc contribution           =    -104.22887549 Ry
     ewald contribution        =    -142.17742060 Ry
     one-center paw contrib.   =    -255.78257847 Ry
      -> PAW hartree energy AE =      19.62614028 Ry
      -> PAW hartree energy PS =     -19.52087215 Ry
      -> PAW xc energy AE      =     -55.74178852 Ry
      -> PAW xc energy PS      =      10.19271886 Ry
      -> total E_H with PAW    =     108.74090530 Ry
      -> total E_XC with PAW   =    -149.77794515 Ry

     convergence has been achieved in  11 iterations
 writing file ./scratch/scf-1562.save/charge-density
 writing file ./scratch/scf-1562.save/charge-density
 writing file ./scratch/scf-1562.save/charge-density
 writing file ./scratch/scf-1562.save/charge-density
 writing file ./scratch/scf-1562.save/charge-density
 writing file ./scratch/scf-1562.save/charge-density
 writing file ./scratch/scf-1562.save/charge-density
 writing file ./scratch/scf-1562.save/charge-density
 writing file ./scratch/scf-1562.save/charge-density
 writing file ./scratch/scf-1562.save/charge-density
 writing file ./scratch/scf-1562.save/charge-density
 writing file ./scratch/scf-1562.save/charge-density
 writing file ./scratch/scf-1562.save/charge-density
 writing file ./scratch/scf-1562.save/charge-density
 writing file ./scratch/scf-1562.save/charge-density
 writing file ./scratch/scf-1562.save/charge-density
 writing file ./scratch/scf-1562.save/charge-density
 writing file ./scratch/scf-1562.save/charge-density
 writing file ./scratch/scf-1562.save/charge-density
 writing file ./scratch/scf-1562.save/charge-density
 writing file ./scratch/scf-1562.save/charge-density
 writing file ./scratch/scf-1562.save/charge-density
 writing file ./scratch/scf-1562.save/charge-density
 writing file ./scratch/scf-1562.save/charge-density
 writing file ./scratch/scf-1562.save/charge-density
 writing file ./scratch/scf-1562.save/charge-density
 writing file ./scratch/scf-1562.save/charge-density
 writing file ./scratch/scf-1562.save/charge-density
 writing file ./scratch/scf-1562.save/charge-density
 writing file ./scratch/scf-1562.save/charge-density
 writing file ./scratch/scf-1562.save/charge-density
 writing file ./scratch/scf-1562.save/charge-density

     Forces acting on atoms (cartesian axes, Ry/au):

     atom    1 type  2   force =     0.04385967   -0.04491088   -0.00669959
     atom    2 type  1   force =    -0.03081617    0.02919323    0.01220769
     atom    3 type  1   force =    -0.00948901    0.02085232   -0.01799086
     atom    4 type  3   force =    -0.00089138   -0.00208776    0.00122114
     atom    5 type  1   force =    -0.01380271    0.00382288    0.02056774
     atom    6 type  3   force =     0.00373651    0.00270691   -0.00342719
     atom    7 type  3   force =    -0.00359559    0.00081588    0.00065067
     atom    8 type  1   force =    -0.01437939   -0.00430770    0.00040715
     atom    9 type  3   force =    -0.00071904   -0.00305285    0.00208517
     atom   10 type  1   force =     0.00528379   -0.00046168    0.00284569
     atom   11 type  1   force =     0.00026953   -0.00949270   -0.00101193
     atom   12 type  2   force =     0.00466785    0.00886788   -0.00524898
     atom   13 type  3   force =     0.00115161    0.00240978   -0.00284374
     atom   14 type  1   force =    -0.00118285   -0.00355003    0.00329840
     atom   15 type  3   force =     0.00035419    0.00077542    0.00072619
     atom   16 type  1   force =    -0.00038497    0.00165108   -0.00840073
     atom   17 type  1   force =    -0.01413475    0.02461461   -0.00425838
     atom   18 type  2   force =     0.02638137   -0.03204595    0.00622224
     atom   19 type  3   force =     0.00287295    0.00120868    0.00076039
     atom   20 type  1   force =    -0.00211741   -0.01083656   -0.00423460
     atom   21 type  3   force =     0.00088159    0.00073760    0.00000176
     atom   22 type  1   force =     0.00751532    0.01466498   -0.00143601
     atom   23 type  1   force =    -0.00772080    0.03087683   -0.01141797
     atom   24 type  2   force =     0.00225972   -0.03245200    0.01597573
     The non-local contrib.  to forces
     atom    1 type  2   force =    -0.31149972    0.23654840   -0.00839087
     atom    2 type  1   force =     0.34487317   -0.29248390    0.02177624
     atom    3 type  1   force =    -0.03039002    0.00552059   -0.05746308
     atom    4 type  3   force =    -0.06298828   -0.01483046   -0.04417255
     atom    5 type  1   force =    -0.06276542   -0.03410885   -0.02006385
     atom    6 type  3   force =    -0.00248077   -0.06368775   -0.04577673
     atom    7 type  3   force =    -0.00120164   -0.06209562    0.04847559
     atom    8 type  1   force =     0.00229499   -0.04759072    0.03422966
     atom    9 type  3   force =     0.06309316   -0.01799396    0.04343479
     atom   10 type  1   force =     0.03098926   -0.04186807    0.05937268
     atom   11 type  1   force =    -0.40212276   -0.30800580    0.04094958
     atom   12 type  2   force =     0.30802180    0.24291238   -0.03988863
     atom   13 type  3   force =     0.00575192    0.06651082    0.04160527
     atom   14 type  1   force =     0.03265209    0.04292449    0.05083302
     atom   15 type  3   force =     0.06388437    0.01434856    0.04425198
     atom   16 type  1   force =     0.04536476    0.04647922    0.04189510
     atom   17 type  1   force =    -0.37615573    0.37787126   -0.02883895
     atom   18 type  2   force =     0.27834537   -0.27952261    0.02111132
     atom   19 type  3   force =     0.00049549    0.06306413   -0.04703178
     atom   20 type  1   force =    -0.02184554    0.04198243   -0.05177674
     atom   21 type  3   force =    -0.06359924    0.01902850   -0.04250657
     atom   22 type  1   force =    -0.02558217    0.06437132   -0.06314786
     atom   23 type  1   force =     0.37157283    0.33809131   -0.03789902
     atom   24 type  2   force =    -0.25929643   -0.30140991    0.04105984
     The ionic contribution  to forces
     atom    1 type  2   force =     6.99543872   -4.27478680    0.88587765
     atom    2 type  1   force =     2.55224693   -1.41704187    0.47567228
     atom    3 type  1   force =     4.81034573    1.53272669    3.51434536
     atom    4 type  3   force =     2.21786134    0.60907656    1.49689891
     atom    5 type  1   force =     1.91352518    4.01115221    2.61812820
     atom    6 type  3   force =     0.46613054    1.83581623    1.48184950
     atom    7 type  3   force =    -0.46878323    1.91042061   -1.51919206
     atom    8 type  1   force =    -1.80293000    3.94579050   -2.85396563
     atom    9 type  3   force =    -2.11671464    0.77813536   -1.31101788
     atom   10 type  1   force =    -5.04974513    1.92911699   -2.94478648
     atom   11 type  1   force =    -3.21032279   -1.61596271   -0.56589036
     atom   12 type  2   force =    -6.90985079   -4.79992642   -0.92953150
     atom   13 type  3   force =    -0.19720816   -1.89698669   -1.27919652
     atom   14 type  1   force =    -0.58682326   -3.75405423   -2.40123050
     atom   15 type  3   force =    -1.84148536   -0.56282956   -1.31532157
     atom   16 type  1   force =    -3.77496520   -1.48463231   -2.51405748
     atom   17 type  1   force =    -1.95634665    1.97921291   -0.07445029
     atom   18 type  2   force =    -4.39601746    4.04471930   -0.41797265
     atom   19 type  3   force =     0.07680784   -1.89567653    1.28827557
     atom   20 type  1   force =     0.43496862   -3.90274893    2.30512402
     atom   21 type  3   force =     1.96954791   -0.61965647    1.22572424
     atom   22 type  1   force =     4.10400121   -1.69180699    2.43970500
     atom   23 type  1   force =     2.40446518    1.35723490    0.20841702
     atom   24 type  2   force =     4.36585348    3.98270726    0.18659518
     The local contribution  to forces
     atom    1 type  2   force =    -6.65064173    4.00107574   -0.88464726
     atom    2 type  1   force =    -2.91962640    1.73159062   -0.48510230
     atom    3 type  1   force =    -4.78828639   -1.51706192   -3.47399315
     atom    4 type  3   force =    -2.15577236   -0.59634334   -1.45151281
     atom    5 type  1   force =    -1.86494474   -3.97183794   -2.57693471
     atom    6 type  3   force =    -0.45989595   -1.76941294   -1.43948913
     atom    7 type  3   force =     0.46639514   -1.84750270    1.47136547
     atom    8 type  1   force =     1.78605966   -3.90173177    2.81936143
     atom    9 type  3   force =     2.05289524   -0.76318949    1.26966427
     atom   10 type  1   force =     5.02266516   -1.88769368    2.88793495
     atom   11 type  1   force =     3.60213467    1.90670991    0.52504405
     atom   12 type  2   force =     6.61916729    4.57605394    0.96229774
     atom   13 type  3   force =     0.19262416    1.83289274    1.23475903
     atom   14 type  1   force =     0.55337883    3.70655730    2.35321118
     atom   15 type  3   force =     1.77793766    0.54924193    1.27178168
     atom   16 type  1   force =     3.72816664    1.43966639    2.46324838
     atom   17 type  1   force =     2.30816475   -2.32241696    0.09855438
     atom   18 type  2   force =     4.15653378   -3.80998102    0.40415220
     atom   19 type  3   force =    -0.07442509    1.83383133   -1.24048926
     atom   20 type  1   force =    -0.41531705    3.84907143   -2.25701081
     atom   21 type  3   force =    -1.90507759    0.60136861   -1.18322070
     atom   22 type  1   force =    -4.06947383    1.64244766   -2.37791782
     atom   23 type  1   force =    -2.77333087   -1.65618683   -0.18272636
     atom   24 type  2   force =    -4.11509572   -3.72723100   -0.20971300
     The core correction contribution to forces
     atom    1 type  2   force =     0.01053531   -0.00767124    0.00047869
     atom    2 type  1   force =    -0.00825596    0.00712458   -0.00011143
     atom    3 type  1   force =    -0.00107482   -0.00039012   -0.00085957
     atom    4 type  3   force =     0.00000000    0.00000000    0.00000000
     atom    5 type  1   force =     0.00051560   -0.00139744   -0.00050275
     atom    6 type  3   force =     0.00000000    0.00000000    0.00000000
     atom    7 type  3   force =     0.00000000    0.00000000    0.00000000
     atom    8 type  1   force =     0.00024601   -0.00076909    0.00080632
     atom    9 type  3   force =     0.00000000    0.00000000    0.00000000
     atom   10 type  1   force =     0.00134750    0.00002758    0.00028987
     atom   11 type  1   force =     0.01063076    0.00776796   -0.00109584
     atom   12 type  2   force =    -0.01277381   -0.01022850    0.00184862
     atom   13 type  3   force =     0.00000000    0.00000000    0.00000000
     atom   14 type  1   force =    -0.00025723    0.00095004    0.00052005
     atom   15 type  3   force =     0.00000000    0.00000000    0.00000000
     atom   16 type  1   force =     0.00110224    0.00005040    0.00050411
     atom   17 type  1   force =     0.01024686   -0.01000731    0.00051572
     atom   18 type  2   force =    -0.01251582    0.01284818   -0.00106903
     atom   19 type  3   force =     0.00000000    0.00000000    0.00000000
     atom   20 type  1   force =     0.00014069    0.00083982   -0.00052751
     atom   21 type  3   force =     0.00000000    0.00000000    0.00000000
     atom   22 type  1   force =    -0.00146077   -0.00033628   -0.00009137
     atom   23 type  1   force =    -0.01038944   -0.00824581    0.00079323
     atom   24 type  2   force =     0.01062477    0.01340123   -0.00200190
     The Hubbard contrib.    to forces
     atom    1 type  2   force =     0.00000000    0.00000000    0.00000000
     atom    2 type  1   force =     0.00000000    0.00000000    0.00000000
     atom    3 type  1   force =     0.00000000    0.00000000    0.00000000
     atom    4 type  3   force =     0.00000000    0.00000000    0.00000000
     atom    5 type  1   force =     0.00000000    0.00000000    0.00000000
     atom    6 type  3   force =     0.00000000    0.00000000    0.00000000
     atom    7 type  3   force =     0.00000000    0.00000000    0.00000000
     atom    8 type  1   force =     0.00000000    0.00000000    0.00000000
     atom    9 type  3   force =     0.00000000    0.00000000    0.00000000
     atom   10 type  1   force =     0.00000000    0.00000000    0.00000000
     atom   11 type  1   force =     0.00000000    0.00000000    0.00000000
     atom   12 type  2   force =     0.00000000    0.00000000    0.00000000
     atom   13 type  3   force =     0.00000000    0.00000000    0.00000000
     atom   14 type  1   force =     0.00000000    0.00000000    0.00000000
     atom   15 type  3   force =     0.00000000    0.00000000    0.00000000
     atom   16 type  1   force =     0.00000000    0.00000000    0.00000000
     atom   17 type  1   force =     0.00000000    0.00000000    0.00000000
     atom   18 type  2   force =     0.00000000    0.00000000    0.00000000
     atom   19 type  3   force =     0.00000000    0.00000000    0.00000000
     atom   20 type  1   force =     0.00000000    0.00000000    0.00000000
     atom   21 type  3   force =     0.00000000    0.00000000    0.00000000
     atom   22 type  1   force =     0.00000000    0.00000000    0.00000000
     atom   23 type  1   force =     0.00000000    0.00000000    0.00000000
     atom   24 type  2   force =     0.00000000    0.00000000    0.00000000
     The SCF correction term to forces
     atom    1 type  2   force =     0.00002764   -0.00007721   -0.00001753
     atom    2 type  1   force =    -0.00005336    0.00000356   -0.00002683
     atom    3 type  1   force =    -0.00008296    0.00005685   -0.00002015
     atom    4 type  3   force =     0.00000848    0.00000926    0.00000786
     atom    5 type  1   force =    -0.00013277    0.00001466   -0.00005889
     atom    6 type  3   force =    -0.00001674   -0.00000887   -0.00001056
     atom    7 type  3   force =    -0.00000530   -0.00000663    0.00000194
     atom    8 type  1   force =    -0.00004949   -0.00000686   -0.00002437
     atom    9 type  3   force =     0.00000775   -0.00000498    0.00000425
     atom   10 type  1   force =     0.00002755   -0.00004474    0.00003494
     atom   11 type  1   force =    -0.00004979   -0.00000229   -0.00001910
     atom   12 type  2   force =     0.00010391    0.00005625    0.00002506
     atom   13 type  3   force =    -0.00001576   -0.00000733   -0.00001125
     atom   14 type  1   force =    -0.00013272    0.00007213   -0.00003508
     atom   15 type  3   force =     0.00001809    0.00001426    0.00001436
     atom   16 type  1   force =    -0.00005285    0.00008715    0.00000943
     atom   17 type  1   force =    -0.00004342   -0.00004552   -0.00003896
     atom   18 type  2   force =     0.00003605   -0.00011003    0.00000067
     atom   19 type  3   force =    -0.00000473   -0.00001048    0.00000613
     atom   20 type  1   force =    -0.00006357    0.00001846   -0.00004330
     atom   21 type  3   force =     0.00001107   -0.00000327    0.00000506
     atom   22 type  1   force =     0.00003143   -0.00001096    0.00001631
     atom   23 type  1   force =    -0.00003794   -0.00001698   -0.00000257
     atom   24 type  2   force =     0.00017418    0.00008019    0.00003587

     Total force =     0.116379     Total SCF correction =     0.000412

     Writing output data file scf-1562.save
 writing file ./scratch/scf-1562.save/charge-density
 writing file ./scratch/scf-1562.save/charge-density
 writing file ./scratch/scf-1562.save/charge-density
 writing file ./scratch/scf-1562.save/charge-density
 writing file ./scratch/scf-1562.save/charge-density
 writing file ./scratch/scf-1562.save/charge-density
 writing file ./scratch/scf-1562.save/charge-density
 writing file ./scratch/scf-1562.save/charge-density
 writing file ./scratch/scf-1562.save/charge-density
 writing file ./scratch/scf-1562.save/charge-density
 writing file ./scratch/scf-1562.save/charge-density
 writing file ./scratch/scf-1562.save/charge-density
 writing file ./scratch/scf-1562.save/charge-density
 writing file ./scratch/scf-1562.save/charge-density
 writing file ./scratch/scf-1562.save/charge-density
 writing file ./scratch/scf-1562.save/charge-density
 writing file ./scratch/scf-1562.save/charge-density
 writing file ./scratch/scf-1562.save/charge-density
 writing file ./scratch/scf-1562.save/charge-density
 writing file ./scratch/scf-1562.save/charge-density
 writing file ./scratch/scf-1562.save/charge-density
 writing file ./scratch/scf-1562.save/charge-density
 writing file ./scratch/scf-1562.save/charge-density
 writing file ./scratch/scf-1562.save/charge-density
 writing file ./scratch/scf-1562.save/charge-density
 writing file ./scratch/scf-1562.save/charge-density
 writing file ./scratch/scf-1562.save/charge-density
 writing file ./scratch/scf-1562.save/charge-density
 writing file ./scratch/scf-1562.save/charge-density
 writing file ./scratch/scf-1562.save/charge-density
 writing file ./scratch/scf-1562.save/charge-density
 writing file ./scratch/scf-1562.save/charge-density
 
     init_run     :      4.36s CPU      4.61s WALL (       1 calls)
     electrons    :     50.39s CPU     53.58s WALL (       1 calls)
     forces       :      2.33s CPU      2.48s WALL (       1 calls)

     Called by init_run:
     wfcinit      :      1.60s CPU      1.63s WALL (       1 calls)
     wfcinit:atom :      0.01s CPU      0.02s WALL (      16 calls)
     wfcinit:wfcr :      1.50s CPU      1.51s WALL (      16 calls)
     potinit      :      0.88s CPU      0.91s WALL (       1 calls)

     Called by electrons:
     c_bands      :     39.37s CPU     39.95s WALL (      11 calls)
     sum_band     :      6.92s CPU      8.14s WALL (      11 calls)
     v_of_rho     :      0.90s CPU      0.96s WALL (      12 calls)
     v_h          :      0.06s CPU      0.06s WALL (      12 calls)
     v_xc         :      0.92s CPU      0.98s WALL (      13 calls)
     newd         :      1.48s CPU      2.85s WALL (      12 calls)
     PAW_pot      :      1.66s CPU      1.70s WALL (      12 calls)
     mix_rho      :      0.14s CPU      0.14s WALL (      11 calls)

     Called by c_bands:
     init_us_2    :      0.82s CPU      0.87s WALL (     384 calls)
     cegterg      :     37.01s CPU     37.22s WALL (     176 calls)

     Called by sum_band:
     sum_band:bec :      0.02s CPU      0.02s WALL (     176 calls)
     addusdens    :      1.50s CPU      2.66s WALL (      11 calls)

     Called by *egterg:
     h_psi        :     27.82s CPU     27.84s WALL (     864 calls)
     s_psi        :      2.00s CPU      1.98s WALL (     864 calls)
     g_psi        :      0.10s CPU      0.16s WALL (     672 calls)
     cdiaghg      :      3.45s CPU      3.44s WALL (     848 calls)
     cegterg:over :      1.72s CPU      1.71s WALL (     672 calls)
     cegterg:upda :      1.23s CPU      1.27s WALL (     672 calls)
     cegterg:last :      0.41s CPU      0.43s WALL (     192 calls)

     Called by h_psi:
     h_psi:pot    :     27.58s CPU     27.58s WALL (     864 calls)
     h_psi:calbec :      2.43s CPU      2.27s WALL (     864 calls)
     vloc_psi     :     23.21s CPU     23.36s WALL (     864 calls)
     add_vuspsi   :      1.93s CPU      1.94s WALL (     864 calls)

     General routines
     calbec       :      3.18s CPU      3.01s WALL (    1104 calls)
     fft          :      0.72s CPU      0.79s WALL (     199 calls)
     ffts         :      0.04s CPU      0.03s WALL (      23 calls)
     fftw         :     21.91s CPU     22.15s WALL (   55806 calls)
     interpolate  :      0.15s CPU      0.15s WALL (      23 calls)
     davcio       :      0.01s CPU      0.01s WALL (      16 calls)
 
     Parallel routines
     fft_scatter  :      8.18s CPU      8.40s WALL (   56028 calls)

     PAW routines
     PAW_pot      :      1.66s CPU      1.70s WALL (      12 calls)
 
     PWSCF        :  0m57.81s CPU     1m 1.93s WALL

 
   This run was terminated on:  13: 7:47  22May2017            

=------------------------------------------------------------------------------=
   JOB DONE.
=------------------------------------------------------------------------------=
