
     Program PWSCF v.6.1 starts on 20May2017 at 12:15:21 

     This program is part of the open-source Quantum ESPRESSO suite
     for quantum simulation of materials; please cite
         "P. Giannozzi et al., J. Phys.:Condens. Matter 21 395502 (2009);
          URL http://www.quantum-espresso.org", 
     in publications or presentations arising from this work. More details at
     http://www.quantum-espresso.org/quote

     Parallel version (MPI & OpenMP), running on      32 processor cores
     Number of MPI processes:                32
     Threads/MPI process:                     1
     R & G space division:  proc/nbgrp/npool/nimage =      32
     Waiting for input...
     Reading input from standard input
Warning: card &IONS ignored
Warning: card     ION_TEMPERATURE   = 'INITIAL' ignored
Warning: card     TEMPW             = 586.D0 ignored
Warning: card     TOLP              = 100.D0 ignored
Warning: card     DELTA_T           = 1.D0 ignored
Warning: card     NRAISE            = 1 ignored
Warning: card / ignored
Warning: card &CELL ignored
Warning: card     CELL_DYNAMICS     = 'BFGS' ignored
Warning: card / ignored

     Current dimensions of program PWSCF are:
     Max number of different atomic species (ntypx) = 10
     Max number of k-points (npk) =  40000
     Max angular momentum in pseudopotentials (lmaxx) =  3
               file C.pbe-n-kjpaw_psl.1.0.0.UPF: wavefunction(s)  2S 2P renormalized
               file Cl.pbe-n-kjpaw_psl.1.0.0.UPF: wavefunction(s)  3S 3P renormalized
               file H.pbe-kjpaw_psl.1.0.0.UPF: wavefunction(s)  1S renormalized

     Subspace diagonalization in iterative solution of the eigenvalue problem:
     a serial algorithm will be used

 
     Parallelization info
     --------------------
     sticks:   dense  smooth     PW     G-vecs:    dense   smooth      PW
     Min         764     305     83                36108     9133    1292
     Max         765     306     84                36110     9135    1293
     Sum       24467    9791   2657              1155489   292295   41363
 


     bravais-lattice index     =            0
     lattice parameter (alat)  =       1.8897  a.u.
     unit-cell volume          =    2163.5316 (a.u.)^3
     number of atoms/cell      =           24
     number of atomic types    =            3
     number of electrons       =        84.00
     number of Kohn-Sham states=           42
     kinetic-energy cutoff     =     100.0000  Ry
     charge density cutoff     =    1000.0000  Ry
     convergence threshold     =      1.0E-07
     mixing beta               =       0.7000
     number of iterations used =            8  plain     mixing
     Exchange-correlation      =  SLA  PW   PBX  PBC ( 1  4  3  4 0 0)

     celldm(1)=   1.889726  celldm(2)=   0.000000  celldm(3)=   0.000000
     celldm(4)=   0.000000  celldm(5)=   0.000000  celldm(6)=   0.000000

     crystal axes: (cart. coord. in units of alat)
               a(1) = (  14.762000   0.000000   0.000000 )  
               a(2) = (   0.000000   5.832000   0.000000 )  
               a(3) = (  -1.563876   0.000000   3.723951 )  

     reciprocal axes: (cart. coord. in units 2 pi/alat)
               b(1) = (  0.067741  0.000000  0.028448 )  
               b(2) = (  0.000000  0.171468  0.000000 )  
               b(3) = (  0.000000  0.000000  0.268532 )  


     PseudoPot. # 1 for  C read from file:
     /global/cscratch1/sd/almno10/.data/PSEUDOPOTENTIALS/C.pbe-n-kjpaw_psl.1.0.0.UPF
     MD5 check sum: 2ba8448e293caca687844dde9a1b88a8
     Pseudo is Projector augmented-wave + core cor, Zval =  4.0
     Generated using "atomic" code by A. Dal Corso  v.5.3.0 svn rev. 11974
     Shape of augmentation charge: PSQ
     Using radial grid of 1073 points,  4 beta functions with: 
                l(1) =   0
                l(2) =   0
                l(3) =   1
                l(4) =   1
     Q(r) pseudized with 0 coefficients 


     PseudoPot. # 2 for Cl read from file:
     /global/cscratch1/sd/almno10/.data/PSEUDOPOTENTIALS/Cl.pbe-n-kjpaw_psl.1.0.0.UPF
     MD5 check sum: dca63699d6b897c5771335df08a09219
     Pseudo is Projector augmented-wave + core cor, Zval =  7.0
     Generated using "atomic" code by A. Dal Corso  v.5.3.0 svn rev. 11974
     Shape of augmentation charge: PSQ
     Using radial grid of 1157 points,  6 beta functions with: 
                l(1) =   0
                l(2) =   0
                l(3) =   1
                l(4) =   1
                l(5) =   2
                l(6) =   2
     Q(r) pseudized with 0 coefficients 


     PseudoPot. # 3 for  H read from file:
     /global/cscratch1/sd/almno10/.data/PSEUDOPOTENTIALS/H.pbe-kjpaw_psl.1.0.0.UPF
     MD5 check sum: bc0feb48a24907a0b97fa6ee2d589a29
     Pseudo is Projector augmented-wave, Zval =  1.0
     Generated using "atomic" code by A. Dal Corso  v.5.3.0 svn rev. 11974
     Shape of augmentation charge: PSQ
     Using radial grid of  929 points,  2 beta functions with: 
                l(1) =   0
                l(2) =   0
     Q(r) pseudized with 0 coefficients 


     atomic species   valence    mass     pseudopotential
        C              4.00    12.01100      C( 1.00)
        Cl             7.00    35.45270     Cl( 1.00)
        H              1.00     1.00790      H( 1.00)

     No symmetry found


                                    s                        frac. trans.

      isym =  1     identity                                     

 cryst.   s( 1) = (     1          0          0      )
                  (     0          1          0      )
                  (     0          0          1      )

 cart.    s( 1) = (  1.0000000  0.0000000 -0.0000000 )
                  (  0.0000000  1.0000000  0.0000000 )
                  (  0.0000000  0.0000000  1.0000000 )


   Cartesian axes

     site n.     atom                  positions (alat units)
         1           Cl  tau(   1) = (  16.3887439   0.9590038   1.3749790  )
         2           C   tau(   2) = (  14.9737969   1.8455354   1.6296389  )
         3           C   tau(   3) = (  15.1066383   3.0481203   2.3224399  )
         4           H   tau(   4) = (  16.0923222   3.2757333   2.7242006  )
         5           C   tau(   5) = (  14.0096138   3.8288807   2.6831088  )
         6           H   tau(   6) = (  14.1617676   4.7584181   3.2290301  )
         7           H   tau(   7) = (   6.7387972   2.2835697   0.5014077  )
         8           C   tau(   8) = (   6.7172282   1.3897977   1.1221886  )
         9           H   tau(   9) = (   4.7543193   0.7907633   0.4597787  )
        10           C   tau(  10) = (   5.6273388   0.5223445   1.0531783  )
        11           C   tau(  11) = (   5.6131903  -0.6233550   1.8470893  )
        12           Cl  tau(  12) = (   4.2511834  -1.7121027   1.6868694  )
        13           H   tau(  13) = (  13.5902067   0.4652629   0.6450517  )
        14           C   tau(  14) = (  13.7269250   1.3916811   1.1997111  )
        15           H   tau(  15) = (  11.6449177   1.9409798   1.0931618  )
        16           C   tau(  16) = (  12.6405112   2.2409479   1.4124907  )
        17           C   tau(  17) = (  12.7866497   3.4592931   2.1249504  )
        18           Cl  tau(  18) = (  11.3451323   4.6194217   2.2427288  )
        19           H   tau(  19) = (   6.7129271  -1.8975087   3.2099588  )
        20           C   tau(  20) = (   6.7246052  -0.9937119   2.6027993  )
        21           H   tau(  21) = (   8.6957262  -0.4061513   3.2455374  )
        22           C   tau(  22) = (   7.8213927  -0.1355688   2.6566279  )
        23           C   tau(  23) = (   7.8262945   1.0231575   1.8823754  )
        24           Cl  tau(  24) = (   9.1373828   2.1475682   2.0719403  )

   Crystallographic axes

     site n.     atom                  positions (cryst. coord.)
         1           Cl  tau(   1) = (  1.1493136  0.1644382  0.3692258  )
         2           C   tau(   2) = (  1.0607075  0.3164498  0.4376101  )
         3           C   tau(   3) = (  1.0894153  0.5226544  0.6236494  )
         4           H   tau(   4) = (  1.1676163  0.5616827  0.7315349  )
         5           C   tau(   5) = (  1.0253615  0.6565296  0.7205005  )
         6           H   tau(   6) = (  1.0511991  0.8159153  0.8670978  )
         7           H   tau(   7) = (  0.4707603  0.3915586  0.1346440  )
         8           C   tau(   8) = (  0.4869592  0.2383055  0.3013435  )
         9           H   tau(   9) = (  0.3351445  0.1355904  0.1234653  )
        10           C   tau(  10) = (  0.4111653  0.0895652  0.2828120  )
        11           C   tau(  11) = (  0.4327921 -0.1068853  0.4960025  )
        12           Cl  tau(  12) = (  0.3359697 -0.2935704  0.4529784  )
        13           H   tau(  13) = (  0.9389714  0.0797776  0.1732170  )
        14           C   tau(  14) = (  0.9640119  0.2386285  0.3221608  )
        15           H   tau(  15) = (  0.8199425  0.3328155  0.2935489  )
        16           C   tau(  16) = (  0.8964698  0.3842503  0.3792989  )
        17           C   tau(  17) = (  0.9266376  0.5931573  0.5706171  )
        18           Cl  tau(  18) = (  0.8323376  0.7920819  0.6022444  )
        19           H   tau(  19) = (  0.5460609 -0.3253616  0.8619766  )
        20           C   tau(  20) = (  0.5295795 -0.1703896  0.6989348  )
        21           H   tau(  21) = (  0.6813908 -0.0696419  0.8715305  )
        22           C   tau(  22) = (  0.6054088 -0.0232457  0.7133895  )
        23           C   tau(  23) = (  0.5837149  0.1754385  0.5054780  )
        24           Cl  tau(  24) = (  0.6779227  0.3682387  0.5563822  )

     number of k points=    16
                       cart. coord. in units 2pi/alat
        k(    1) = (   0.0169354   0.0214335   0.0406785), wk =   0.1250000
        k(    2) = (   0.0169354   0.0214335   0.1078115), wk =   0.1250000
        k(    3) = (   0.0169354   0.0214335  -0.0935875), wk =   0.1250000
        k(    4) = (   0.0169354   0.0214335  -0.0264545), wk =   0.1250000
        k(    5) = (   0.0169354   0.0643004   0.0406785), wk =   0.1250000
        k(    6) = (   0.0169354   0.0643004   0.1078115), wk =   0.1250000
        k(    7) = (   0.0169354   0.0643004  -0.0935875), wk =   0.1250000
        k(    8) = (   0.0169354   0.0643004  -0.0264545), wk =   0.1250000
        k(    9) = (  -0.0169354   0.0214335  -0.0406785), wk =   0.1250000
        k(   10) = (  -0.0169354   0.0214335  -0.1078115), wk =   0.1250000
        k(   11) = (  -0.0169354   0.0214335   0.0935875), wk =   0.1250000
        k(   12) = (  -0.0169354   0.0214335   0.0264545), wk =   0.1250000
        k(   13) = (  -0.0169354   0.0643004  -0.0406785), wk =   0.1250000
        k(   14) = (  -0.0169354   0.0643004  -0.1078115), wk =   0.1250000
        k(   15) = (  -0.0169354   0.0643004   0.0935875), wk =   0.1250000
        k(   16) = (  -0.0169354   0.0643004   0.0264545), wk =   0.1250000

                       cryst. coord.
        k(    1) = (   0.2500000   0.1250000   0.1250000), wk =   0.1250000
        k(    2) = (   0.2500000   0.1250000   0.3750000), wk =   0.1250000
        k(    3) = (   0.2500000   0.1250000  -0.3750000), wk =   0.1250000
        k(    4) = (   0.2500000   0.1250000  -0.1250000), wk =   0.1250000
        k(    5) = (   0.2500000   0.3750000   0.1250000), wk =   0.1250000
        k(    6) = (   0.2500000   0.3750000   0.3750000), wk =   0.1250000
        k(    7) = (   0.2500000   0.3750000  -0.3750000), wk =   0.1250000
        k(    8) = (   0.2500000   0.3750000  -0.1250000), wk =   0.1250000
        k(    9) = (  -0.2500000   0.1250000  -0.1250000), wk =   0.1250000
        k(   10) = (  -0.2500000   0.1250000  -0.3750000), wk =   0.1250000
        k(   11) = (  -0.2500000   0.1250000   0.3750000), wk =   0.1250000
        k(   12) = (  -0.2500000   0.1250000   0.1250000), wk =   0.1250000
        k(   13) = (  -0.2500000   0.3750000  -0.1250000), wk =   0.1250000
        k(   14) = (  -0.2500000   0.3750000  -0.3750000), wk =   0.1250000
        k(   15) = (  -0.2500000   0.3750000   0.3750000), wk =   0.1250000
        k(   16) = (  -0.2500000   0.3750000   0.1250000), wk =   0.1250000

     Dense  grid:  1155489 G-vectors     FFT dimensions: ( 288, 120,  80)

     Smooth grid:   292295 G-vectors     FFT dimensions: ( 180,  72,  50)

     Estimated max dynamical RAM per process >     147.21MB

     Estimated total allocated dynamical RAM >    4710.62MB

     Initial potential from superposition of free atoms

     starting charge   83.99939, renormalised to   84.00000
     Starting wfc are   72 randomized atomic wfcs
     Checking if some PAW data can be deallocated... 
       node    0, deallocated PAW data for type:  1
       node    0, deallocated PAW data for type:  3
       node    1, deallocated PAW data for type:  1
       node    1, deallocated PAW data for type:  3
       node    2, deallocated PAW data for type:  2
       node    2, deallocated PAW data for type:  3
       node    3, deallocated PAW data for type:  2
       node    3, deallocated PAW data for type:  3
       node    4, deallocated PAW data for type:  2
       node    4, deallocated PAW data for type:  3
       node    5, deallocated PAW data for type:  2
       node    5, deallocated PAW data for type:  3
       node    6, deallocated PAW data for type:  1
       node    6, deallocated PAW data for type:  2
       node    7, deallocated PAW data for type:  1
       node    7, deallocated PAW data for type:  2
       node    8, deallocated PAW data for type:  2
       node    8, deallocated PAW data for type:  3
       node    9, deallocated PAW data for type:  2
       node    9, deallocated PAW data for type:  3
       node   10, deallocated PAW data for type:  1
       node   10, deallocated PAW data for type:  2
       node   11, deallocated PAW data for type:  1
       node   11, deallocated PAW data for type:  2
       node   12, deallocated PAW data for type:  1
       node   12, deallocated PAW data for type:  2
       node   13, deallocated PAW data for type:  1
       node   13, deallocated PAW data for type:  2
       node   14, deallocated PAW data for type:  2
       node   14, deallocated PAW data for type:  3
       node   15, deallocated PAW data for type:  2
       node   15, deallocated PAW data for type:  3
       node   16, deallocated PAW data for type:  1
       node   16, deallocated PAW data for type:  2
       node   17, deallocated PAW data for type:  2
       node   17, deallocated PAW data for type:  3
       node   18, deallocated PAW data for type:  2
       node   18, deallocated PAW data for type:  3
       node   19, deallocated PAW data for type:  1
       node   19, deallocated PAW data for type:  3
       node   20, deallocated PAW data for type:  1
       node   20, deallocated PAW data for type:  2
       node   21, deallocated PAW data for type:  2
       node   21, deallocated PAW data for type:  3
       node   22, deallocated PAW data for type:  1
       node   22, deallocated PAW data for type:  2
       node   23, deallocated PAW data for type:  2
       node   23, deallocated PAW data for type:  3
       node   24, deallocated PAW data for type:  2
       node   24, deallocated PAW data for type:  3
       node   25, deallocated PAW data for type:  1
       node   25, deallocated PAW data for type:  3
       node   26, deallocated PAW data for type:  1
       node   26, deallocated PAW data for type:  2
       node   27, deallocated PAW data for type:  2
       node   27, deallocated PAW data for type:  3
       node   28, deallocated PAW data for type:  1
       node   28, deallocated PAW data for type:  2
       node   29, deallocated PAW data for type:  2
       node   29, deallocated PAW data for type:  3
       node   30, deallocated PAW data for type:  2
       node   30, deallocated PAW data for type:  3
       node   31, deallocated PAW data for type:  1
       node   31, deallocated PAW data for type:  3

     total cpu time spent up to now is        5.2 secs

     per-process dynamical memory:    20.7 Mb

     Self-consistent Calculation

     iteration #  1     ecut=   100.00 Ry     beta= 0.70
     Davidson diagonalization with overlap
     ethr =  1.00E-04,  avg # of iterations =  5.0

     total cpu time spent up to now is       11.9 secs

     total energy              =    -547.13095933 Ry
     Harris-Foulkes estimate   =    -548.98279252 Ry
     estimated scf accuracy    <       2.71225693 Ry

     iteration #  2     ecut=   100.00 Ry     beta= 0.70
     Davidson diagonalization with overlap
     ethr =  3.23E-03,  avg # of iterations =  3.0

     total cpu time spent up to now is       16.7 secs

     total energy              =    -547.52960563 Ry
     Harris-Foulkes estimate   =    -548.60294400 Ry
     estimated scf accuracy    <       1.93947476 Ry

     iteration #  3     ecut=   100.00 Ry     beta= 0.70
     Davidson diagonalization with overlap
     ethr =  2.31E-03,  avg # of iterations =  3.0

     total cpu time spent up to now is       21.1 secs

     total energy              =    -548.01144110 Ry
     Harris-Foulkes estimate   =    -548.05252329 Ry
     estimated scf accuracy    <       0.08266089 Ry

     iteration #  4     ecut=   100.00 Ry     beta= 0.70
     Davidson diagonalization with overlap
     ethr =  9.84E-05,  avg # of iterations =  4.0

     total cpu time spent up to now is       25.9 secs

     total energy              =    -548.03819610 Ry
     Harris-Foulkes estimate   =    -548.04881964 Ry
     estimated scf accuracy    <       0.02114152 Ry

     iteration #  5     ecut=   100.00 Ry     beta= 0.70
     Davidson diagonalization with overlap
     ethr =  2.52E-05,  avg # of iterations =  3.0

     total cpu time spent up to now is       30.2 secs

     total energy              =    -548.04249301 Ry
     Harris-Foulkes estimate   =    -548.04301088 Ry
     estimated scf accuracy    <       0.00104474 Ry

     iteration #  6     ecut=   100.00 Ry     beta= 0.70
     Davidson diagonalization with overlap
     ethr =  1.24E-06,  avg # of iterations =  4.5

     total cpu time spent up to now is       35.1 secs

     total energy              =    -548.04273889 Ry
     Harris-Foulkes estimate   =    -548.04299416 Ry
     estimated scf accuracy    <       0.00055382 Ry

     iteration #  7     ecut=   100.00 Ry     beta= 0.70
     Davidson diagonalization with overlap
     ethr =  6.59E-07,  avg # of iterations =  4.0

     total cpu time spent up to now is       39.5 secs

     total energy              =    -548.04285864 Ry
     Harris-Foulkes estimate   =    -548.04290996 Ry
     estimated scf accuracy    <       0.00013023 Ry

     iteration #  8     ecut=   100.00 Ry     beta= 0.70
     Davidson diagonalization with overlap
     ethr =  1.55E-07,  avg # of iterations =  4.0

     total cpu time spent up to now is       44.0 secs

     total energy              =    -548.04288348 Ry
     Harris-Foulkes estimate   =    -548.04289404 Ry
     estimated scf accuracy    <       0.00002541 Ry

     iteration #  9     ecut=   100.00 Ry     beta= 0.70
     Davidson diagonalization with overlap
     ethr =  3.03E-08,  avg # of iterations =  4.0

     total cpu time spent up to now is       48.4 secs

     total energy              =    -548.04288872 Ry
     Harris-Foulkes estimate   =    -548.04288985 Ry
     estimated scf accuracy    <       0.00000254 Ry

     iteration # 10     ecut=   100.00 Ry     beta= 0.70
     Davidson diagonalization with overlap
     ethr =  3.03E-09,  avg # of iterations =  4.0

     total cpu time spent up to now is       53.1 secs

     total energy              =    -548.04288935 Ry
     Harris-Foulkes estimate   =    -548.04288955 Ry
     estimated scf accuracy    <       0.00000045 Ry

     iteration # 11     ecut=   100.00 Ry     beta= 0.70
     Davidson diagonalization with overlap
     ethr =  5.38E-10,  avg # of iterations =  4.0

     total cpu time spent up to now is       57.7 secs

     End of self-consistent calculation

          k = 0.0169 0.0214 0.0407 ( 36525 PWs)   bands (ev):

   -16.1629 -16.0659 -15.3840 -15.0918 -13.9411 -13.8234 -12.3454 -12.3352
   -11.2513 -11.1728  -9.0068  -8.8792  -8.2283  -8.1407  -6.3575  -6.2569
    -5.3372  -5.2508  -4.9857  -4.8150  -4.2610  -4.1382  -3.9760  -3.8322
    -3.1789  -3.1497  -2.7247  -2.5981  -2.3864  -2.3596  -2.2088  -2.0620
    -1.2062  -1.1197  -1.0296  -0.9728  -0.8822  -0.7521  -0.0822   0.1308
     0.5193   0.7578

     occupation numbers 
     1.0000   1.0000   1.0000   1.0000   1.0000   1.0000   1.0000   1.0000
     1.0000   1.0000   1.0000   1.0000   1.0000   1.0000   1.0000   1.0000
     1.0000   1.0000   1.0000   1.0000   1.0000   1.0000   1.0000   1.0000
     1.0000   1.0000   1.0000   1.0000   1.0000   1.0000   1.0000   1.0000
     1.0000   1.0000   1.0000   1.0000   1.0000   1.0000   1.0000   1.0000
     1.0000   1.0000

          k = 0.0169 0.0214 0.1078 ( 36561 PWs)   bands (ev):

   -16.0597 -15.9899 -15.3399 -15.0472 -13.9124 -13.8235 -12.3495 -12.2912
   -11.2397 -11.2131  -8.9717  -8.8613  -8.2070  -8.0946  -6.3529  -6.3088
    -5.3358  -5.2447  -5.0675  -4.9549  -4.2577  -4.1877  -4.1352  -3.9101
    -3.8044  -3.7031  -2.7553  -2.7145  -2.5766  -2.4381  -2.3945  -2.2632
    -1.3246  -1.1630  -1.1197  -0.9902  -0.8743  -0.7601  -0.2607  -0.1697
     0.6332   0.9003

     occupation numbers 
     1.0000   1.0000   1.0000   1.0000   1.0000   1.0000   1.0000   1.0000
     1.0000   1.0000   1.0000   1.0000   1.0000   1.0000   1.0000   1.0000
     1.0000   1.0000   1.0000   1.0000   1.0000   1.0000   1.0000   1.0000
     1.0000   1.0000   1.0000   1.0000   1.0000   1.0000   1.0000   1.0000
     1.0000   1.0000   1.0000   1.0000   1.0000   1.0000   1.0000   1.0000
     1.0000   1.0000

          k = 0.0169 0.0214-0.0936 ( 36547 PWs)   bands (ev):

   -16.0658 -15.9850 -15.3429 -15.0429 -13.9144 -13.8133 -12.3580 -12.2888
   -11.2362 -11.2255  -8.9395  -8.8995  -8.1987  -8.1154  -6.3468  -6.2572
    -5.3257  -5.2559  -5.0964  -4.8711  -4.2953  -4.2299  -4.1516  -3.9506
    -3.7908  -3.7031  -2.7228  -2.6655  -2.5203  -2.4598  -2.4129  -2.2839
    -1.2820  -1.1444  -1.1130  -1.0265  -0.9406  -0.7577  -0.3221  -0.1428
     0.6246   0.9045

     occupation numbers 
     1.0000   1.0000   1.0000   1.0000   1.0000   1.0000   1.0000   1.0000
     1.0000   1.0000   1.0000   1.0000   1.0000   1.0000   1.0000   1.0000
     1.0000   1.0000   1.0000   1.0000   1.0000   1.0000   1.0000   1.0000
     1.0000   1.0000   1.0000   1.0000   1.0000   1.0000   1.0000   1.0000
     1.0000   1.0000   1.0000   1.0000   1.0000   1.0000   1.0000   1.0000
     1.0000   1.0000

          k = 0.0169 0.0214-0.0265 ( 36551 PWs)   bands (ev):

   -16.1685 -16.0610 -15.3872 -15.0883 -13.9442 -13.8116 -12.3549 -12.3325
   -11.2514 -11.1806  -8.9775  -8.9144  -8.2573  -8.1188  -6.3782  -6.1786
    -5.3272  -5.2678  -5.0617  -4.6918  -4.2695  -4.2015  -4.0176  -3.7869
    -3.2137  -3.1306  -2.7562  -2.5838  -2.3951  -2.2716  -2.1808  -2.0934
    -1.1891  -1.1241  -1.0502  -0.9912  -0.9004  -0.7515  -0.0646   0.0743
     0.5167   0.7560

     occupation numbers 
     1.0000   1.0000   1.0000   1.0000   1.0000   1.0000   1.0000   1.0000
     1.0000   1.0000   1.0000   1.0000   1.0000   1.0000   1.0000   1.0000
     1.0000   1.0000   1.0000   1.0000   1.0000   1.0000   1.0000   1.0000
     1.0000   1.0000   1.0000   1.0000   1.0000   1.0000   1.0000   1.0000
     1.0000   1.0000   1.0000   1.0000   1.0000   1.0000   1.0000   1.0000
     1.0000   1.0000

          k = 0.0169 0.0643 0.0407 ( 36518 PWs)   bands (ev):

   -16.1424 -16.0367 -15.3914 -15.0919 -13.9751 -13.8631 -12.3815 -12.3700
   -11.2582 -11.1765  -8.9251  -8.7954  -8.1417  -8.0660  -6.3662  -6.3240
    -5.2964  -5.2066  -5.0351  -4.9602  -4.3464  -4.2426  -4.0449  -3.8818
    -3.2592  -3.2050  -2.6461  -2.5568  -2.4318  -2.3723  -2.1743  -2.0340
    -1.0574  -0.9821  -0.8998  -0.8813  -0.8272  -0.7766  -0.0642   0.1564
     0.5988   0.7871

     occupation numbers 
     1.0000   1.0000   1.0000   1.0000   1.0000   1.0000   1.0000   1.0000
     1.0000   1.0000   1.0000   1.0000   1.0000   1.0000   1.0000   1.0000
     1.0000   1.0000   1.0000   1.0000   1.0000   1.0000   1.0000   1.0000
     1.0000   1.0000   1.0000   1.0000   1.0000   1.0000   1.0000   1.0000
     1.0000   1.0000   1.0000   1.0000   1.0000   1.0000   1.0000   1.0000
     1.0000   1.0000

          k = 0.0169 0.0643 0.1078 ( 36558 PWs)   bands (ev):

   -16.0512 -15.9688 -15.3433 -15.0383 -13.9324 -13.8411 -12.3641 -12.3132
   -11.2541 -11.2379  -8.9536  -8.8452  -8.1811  -8.1001  -6.3540  -6.2923
    -5.3194  -5.2211  -4.9210  -4.8824  -4.3260  -4.1956  -4.0485  -3.9732
    -3.9230  -3.8468  -2.7393  -2.6660  -2.6020  -2.4350  -2.3570  -2.3177
    -1.2694  -1.1158  -1.0388  -1.0079  -0.9268  -0.8109  -0.1100  -0.0567
     0.6345   0.9311

     occupation numbers 
     1.0000   1.0000   1.0000   1.0000   1.0000   1.0000   1.0000   1.0000
     1.0000   1.0000   1.0000   1.0000   1.0000   1.0000   1.0000   1.0000
     1.0000   1.0000   1.0000   1.0000   1.0000   1.0000   1.0000   1.0000
     1.0000   1.0000   1.0000   1.0000   1.0000   1.0000   1.0000   1.0000
     1.0000   1.0000   1.0000   1.0000   1.0000   1.0000   1.0000   1.0000
     1.0000   1.0000

          k = 0.0169 0.0643-0.0936 ( 36547 PWs)   bands (ev):

   -16.0568 -15.9645 -15.3462 -15.0342 -13.9376 -13.8275 -12.3724 -12.3108
   -11.2635 -11.2378  -8.9214  -8.8829  -8.1695  -8.1230  -6.3552  -6.2382
    -5.3136  -5.2390  -4.9666  -4.7523  -4.3466  -4.2385  -4.1074  -4.0114
    -3.9232  -3.7943  -2.7725  -2.6651  -2.6157  -2.4818  -2.3059  -2.1894
    -1.2565  -1.1341  -1.0866  -1.0272  -0.9029  -0.8338  -0.1761  -0.0317
     0.6319   0.9348

     occupation numbers 
     1.0000   1.0000   1.0000   1.0000   1.0000   1.0000   1.0000   1.0000
     1.0000   1.0000   1.0000   1.0000   1.0000   1.0000   1.0000   1.0000
     1.0000   1.0000   1.0000   1.0000   1.0000   1.0000   1.0000   1.0000
     1.0000   1.0000   1.0000   1.0000   1.0000   1.0000   1.0000   1.0000
     1.0000   1.0000   1.0000   1.0000   1.0000   1.0000   1.0000   1.0000
     1.0000   1.0000

          k = 0.0169 0.0643-0.0265 ( 36489 PWs)   bands (ev):

   -16.1474 -16.0326 -15.3941 -15.0883 -13.9803 -13.8504 -12.3897 -12.3657
   -11.2583 -11.1880  -8.8968  -8.8248  -8.1374  -8.0838  -6.3740  -6.2775
    -5.2950  -5.2075  -5.0425  -4.8736  -4.3440  -4.2709  -4.1117  -3.9271
    -3.2844  -3.1733  -2.6260  -2.5254  -2.4325  -2.3106  -2.1697  -2.0496
    -1.1040  -1.0023  -0.9139  -0.8671  -0.8238  -0.7636  -0.0515   0.0991
     0.5940   0.7846

     occupation numbers 
     1.0000   1.0000   1.0000   1.0000   1.0000   1.0000   1.0000   1.0000
     1.0000   1.0000   1.0000   1.0000   1.0000   1.0000   1.0000   1.0000
     1.0000   1.0000   1.0000   1.0000   1.0000   1.0000   1.0000   1.0000
     1.0000   1.0000   1.0000   1.0000   1.0000   1.0000   1.0000   1.0000
     1.0000   1.0000   1.0000   1.0000   1.0000   1.0000   1.0000   1.0000
     1.0000   1.0000

          k =-0.0169 0.0214-0.0407 ( 36525 PWs)   bands (ev):

   -16.1675 -16.0625 -15.3860 -15.0889 -13.9451 -13.8110 -12.3532 -12.3337
   -11.2495 -11.1831  -8.9743  -8.9159  -8.2326  -8.1499  -6.3465  -6.2073
    -5.3240  -5.2696  -5.0175  -4.7461  -4.2456  -4.1853  -4.0720  -3.7814
    -3.2153  -3.1262  -2.7108  -2.5972  -2.4038  -2.3032  -2.1536  -2.0785
    -1.2225  -1.1347  -1.0305  -0.9819  -0.8994  -0.7546  -0.0663   0.0754
     0.5151   0.7567

     occupation numbers 
     1.0000   1.0000   1.0000   1.0000   1.0000   1.0000   1.0000   1.0000
     1.0000   1.0000   1.0000   1.0000   1.0000   1.0000   1.0000   1.0000
     1.0000   1.0000   1.0000   1.0000   1.0000   1.0000   1.0000   1.0000
     1.0000   1.0000   1.0000   1.0000   1.0000   1.0000   1.0000   1.0000
     1.0000   1.0000   1.0000   1.0000   1.0000   1.0000   1.0000   1.0000
     1.0000   1.0000

          k =-0.0169 0.0214-0.1078 ( 36561 PWs)   bands (ev):

   -16.0649 -15.9862 -15.3421 -15.0433 -13.9178 -13.8099 -12.3580 -12.2884
   -11.2461 -11.2164  -8.9399  -8.8982  -8.1792  -8.1370  -6.3218  -6.2810
    -5.3248  -5.2664  -5.0572  -4.9067  -4.2992  -4.2535  -4.1248  -3.9229
    -3.7922  -3.7083  -2.7492  -2.7281  -2.5576  -2.4113  -2.3840  -2.2248
    -1.3133  -1.1548  -1.1103  -1.0364  -0.8986  -0.7732  -0.3236  -0.1442
     0.6272   0.9021

     occupation numbers 
     1.0000   1.0000   1.0000   1.0000   1.0000   1.0000   1.0000   1.0000
     1.0000   1.0000   1.0000   1.0000   1.0000   1.0000   1.0000   1.0000
     1.0000   1.0000   1.0000   1.0000   1.0000   1.0000   1.0000   1.0000
     1.0000   1.0000   1.0000   1.0000   1.0000   1.0000   1.0000   1.0000
     1.0000   1.0000   1.0000   1.0000   1.0000   1.0000   1.0000   1.0000
     1.0000   1.0000

          k =-0.0169 0.0214 0.0936 ( 36547 PWs)   bands (ev):

   -16.0606 -15.9886 -15.3411 -15.0462 -13.9118 -13.8243 -12.3495 -12.2914
   -11.2335 -11.2190  -8.9711  -8.8628  -8.2121  -8.0872  -6.3719  -6.2917
    -5.3320  -5.2567  -5.0904  -4.9166  -4.2387  -4.1807  -4.1451  -3.9684
    -3.7770  -3.7012  -2.7170  -2.7078  -2.5856  -2.4381  -2.3853  -2.3207
    -1.2739  -1.1556  -1.1199  -1.0311  -0.8815  -0.7568  -0.2525  -0.1735
     0.6329   0.9013

     occupation numbers 
     1.0000   1.0000   1.0000   1.0000   1.0000   1.0000   1.0000   1.0000
     1.0000   1.0000   1.0000   1.0000   1.0000   1.0000   1.0000   1.0000
     1.0000   1.0000   1.0000   1.0000   1.0000   1.0000   1.0000   1.0000
     1.0000   1.0000   1.0000   1.0000   1.0000   1.0000   1.0000   1.0000
     1.0000   1.0000   1.0000   1.0000   1.0000   1.0000   1.0000   1.0000
     1.0000   1.0000

          k =-0.0169 0.0214 0.0265 ( 36551 PWs)   bands (ev):

   -16.1643 -16.0639 -15.3857 -15.0907 -13.9395 -13.8247 -12.3466 -12.3351
   -11.2510 -11.1713  -9.0069  -8.8830  -8.2574  -8.1038  -6.3902  -6.2214
    -5.3360  -5.2640  -5.0479  -4.7468  -4.2418  -4.1940  -3.9518  -3.7858
    -3.2088  -3.1399  -2.7598  -2.5788  -2.3842  -2.3532  -2.2234  -2.0754
    -1.1478  -1.0988  -1.0605  -1.0028  -0.9020  -0.7276  -0.0856   0.1302
     0.5190   0.7603

     occupation numbers 
     1.0000   1.0000   1.0000   1.0000   1.0000   1.0000   1.0000   1.0000
     1.0000   1.0000   1.0000   1.0000   1.0000   1.0000   1.0000   1.0000
     1.0000   1.0000   1.0000   1.0000   1.0000   1.0000   1.0000   1.0000
     1.0000   1.0000   1.0000   1.0000   1.0000   1.0000   1.0000   1.0000
     1.0000   1.0000   1.0000   1.0000   1.0000   1.0000   1.0000   1.0000
     1.0000   1.0000

          k =-0.0169 0.0643-0.0407 ( 36518 PWs)   bands (ev):

   -16.1473 -16.0329 -15.3937 -15.0888 -13.9790 -13.8512 -12.3893 -12.3676
   -11.2562 -11.1877  -8.8948  -8.8295  -8.1440  -8.0802  -6.3555  -6.2718
    -5.2943  -5.2113  -5.0634  -4.8939  -4.3690  -4.2934  -4.1022  -3.8302
    -3.2936  -3.1726  -2.6285  -2.5844  -2.4390  -2.2692  -2.1771  -2.0428
    -1.0848  -0.9819  -0.9412  -0.8815  -0.8039  -0.7801  -0.0519   0.0963
     0.5906   0.7909

     occupation numbers 
     1.0000   1.0000   1.0000   1.0000   1.0000   1.0000   1.0000   1.0000
     1.0000   1.0000   1.0000   1.0000   1.0000   1.0000   1.0000   1.0000
     1.0000   1.0000   1.0000   1.0000   1.0000   1.0000   1.0000   1.0000
     1.0000   1.0000   1.0000   1.0000   1.0000   1.0000   1.0000   1.0000
     1.0000   1.0000   1.0000   1.0000   1.0000   1.0000   1.0000   1.0000
     1.0000   1.0000

          k =-0.0169 0.0643-0.1078 ( 36558 PWs)   bands (ev):

   -16.0565 -15.9649 -15.3459 -15.0343 -13.9383 -13.8268 -12.3726 -12.3108
   -11.2644 -11.2366  -8.9217  -8.8832  -8.1546  -8.1390  -6.3423  -6.2436
    -5.3101  -5.2437  -4.9613  -4.7823  -4.3517  -4.2200  -4.0985  -3.9762
    -3.9403  -3.8228  -2.7589  -2.6658  -2.6109  -2.4281  -2.3487  -2.2138
    -1.2829  -1.1139  -1.0719  -1.0194  -0.9216  -0.8258  -0.1748  -0.0312
     0.6299   0.9326

     occupation numbers 
     1.0000   1.0000   1.0000   1.0000   1.0000   1.0000   1.0000   1.0000
     1.0000   1.0000   1.0000   1.0000   1.0000   1.0000   1.0000   1.0000
     1.0000   1.0000   1.0000   1.0000   1.0000   1.0000   1.0000   1.0000
     1.0000   1.0000   1.0000   1.0000   1.0000   1.0000   1.0000   1.0000
     1.0000   1.0000   1.0000   1.0000   1.0000   1.0000   1.0000   1.0000
     1.0000   1.0000

          k =-0.0169 0.0643 0.0936 ( 36547 PWs)   bands (ev):

   -16.0515 -15.9684 -15.3440 -15.0375 -13.9347 -13.8390 -12.3639 -12.3129
   -11.2566 -11.2362  -8.9527  -8.8452  -8.1805  -8.0993  -6.3551  -6.3004
    -5.3190  -5.2321  -4.9178  -4.8491  -4.3127  -4.2164  -4.0560  -4.0053
    -3.9258  -3.8019  -2.7677  -2.6820  -2.6036  -2.5134  -2.3168  -2.2426
    -1.2167  -1.1184  -1.0755  -1.0292  -0.9070  -0.8314  -0.1103  -0.0590
     0.6379   0.9334

     occupation numbers 
     1.0000   1.0000   1.0000   1.0000   1.0000   1.0000   1.0000   1.0000
     1.0000   1.0000   1.0000   1.0000   1.0000   1.0000   1.0000   1.0000
     1.0000   1.0000   1.0000   1.0000   1.0000   1.0000   1.0000   1.0000
     1.0000   1.0000   1.0000   1.0000   1.0000   1.0000   1.0000   1.0000
     1.0000   1.0000   1.0000   1.0000   1.0000   1.0000   1.0000   1.0000
     1.0000   1.0000

          k =-0.0169 0.0643 0.0265 ( 36489 PWs)   bands (ev):

   -16.1430 -16.0359 -15.3923 -15.0911 -13.9759 -13.8626 -12.3810 -12.3698
   -11.2584 -11.1775  -8.9237  -8.7963  -8.1487  -8.0543  -6.3881  -6.3197
    -5.2941  -5.2107  -5.0304  -4.9298  -4.3216  -4.2001  -4.1412  -3.8895
    -3.2621  -3.2003  -2.6359  -2.5363  -2.4465  -2.3507  -2.1804  -2.0503
    -1.0512  -0.9940  -0.9402  -0.8679  -0.8249  -0.7457  -0.0641   0.1589
     0.5946   0.7885

     occupation numbers 
     1.0000   1.0000   1.0000   1.0000   1.0000   1.0000   1.0000   1.0000
     1.0000   1.0000   1.0000   1.0000   1.0000   1.0000   1.0000   1.0000
     1.0000   1.0000   1.0000   1.0000   1.0000   1.0000   1.0000   1.0000
     1.0000   1.0000   1.0000   1.0000   1.0000   1.0000   1.0000   1.0000
     1.0000   1.0000   1.0000   1.0000   1.0000   1.0000   1.0000   1.0000
     1.0000   1.0000

     highest occupied level (ev):     0.9348

!    total energy              =    -548.04288945 Ry
     Harris-Foulkes estimate   =    -548.04288948 Ry
     estimated scf accuracy    <       0.00000004 Ry

     total all-electron energy =     -4615.886377 Ry

     The total energy is the sum of the following terms:

     one-electron contribution =    -153.12012994 Ry
     hartree contribution      =     107.93376132 Ry
     xc contribution           =    -104.18589021 Ry
     ewald contribution        =    -142.88895169 Ry
     one-center paw contrib.   =    -255.78167892 Ry
      -> PAW hartree energy AE =      19.58366730 Ry
      -> PAW hartree energy PS =     -19.47846050 Ry
      -> PAW xc energy AE      =     -55.73379798 Ry
      -> PAW xc energy PS      =      10.18502540 Ry
      -> total E_H with PAW    =     108.03896812 Ry
      -> total E_XC with PAW   =    -149.73466279 Ry

     convergence has been achieved in  11 iterations
 writing file ./scratch/scf-333.save/charge-density
 writing file ./scratch/scf-333.save/charge-density
 writing file ./scratch/scf-333.save/charge-density
 writing file ./scratch/scf-333.save/charge-density
 writing file ./scratch/scf-333.save/charge-density
 writing file ./scratch/scf-333.save/charge-density
 writing file ./scratch/scf-333.save/charge-density
 writing file ./scratch/scf-333.save/charge-density
 writing file ./scratch/scf-333.save/charge-density
 writing file ./scratch/scf-333.save/charge-density
 writing file ./scratch/scf-333.save/charge-density
 writing file ./scratch/scf-333.save/charge-density
 writing file ./scratch/scf-333.save/charge-density
 writing file ./scratch/scf-333.save/charge-density
 writing file ./scratch/scf-333.save/charge-density
 writing file ./scratch/scf-333.save/charge-density
 writing file ./scratch/scf-333.save/charge-density
 writing file ./scratch/scf-333.save/charge-density
 writing file ./scratch/scf-333.save/charge-density
 writing file ./scratch/scf-333.save/charge-density
 writing file ./scratch/scf-333.save/charge-density
 writing file ./scratch/scf-333.save/charge-density
 writing file ./scratch/scf-333.save/charge-density
 writing file ./scratch/scf-333.save/charge-density
 writing file ./scratch/scf-333.save/charge-density
 writing file ./scratch/scf-333.save/charge-density
 writing file ./scratch/scf-333.save/charge-density
 writing file ./scratch/scf-333.save/charge-density
 writing file ./scratch/scf-333.save/charge-density
 writing file ./scratch/scf-333.save/charge-density
 writing file ./scratch/scf-333.save/charge-density
 writing file ./scratch/scf-333.save/charge-density

     Forces acting on atoms (cartesian axes, Ry/au):

     atom    1 type  2   force =     0.04003763   -0.03711242   -0.00882036
     atom    2 type  1   force =    -0.03207780    0.02491712    0.00838020
     atom    3 type  1   force =     0.00758609   -0.01157568    0.03219951
     atom    4 type  3   force =     0.00157596    0.01039781   -0.00256424
     atom    5 type  1   force =    -0.00664980    0.00985418   -0.03853937
     atom    6 type  3   force =    -0.00483636   -0.00232618    0.00279641
     atom    7 type  3   force =    -0.00252114    0.00300610    0.00417305
     atom    8 type  1   force =     0.00525073   -0.01305322   -0.01723694
     atom    9 type  3   force =     0.00200909   -0.00253526   -0.00359210
     atom   10 type  1   force =    -0.00755045    0.01504264    0.01550652
     atom   11 type  1   force =     0.00519462   -0.01437034   -0.02578582
     atom   12 type  2   force =     0.00071015    0.00175799    0.00858757
     atom   13 type  3   force =     0.00260236   -0.00105971    0.00344720
     atom   14 type  1   force =    -0.00168902    0.02462664   -0.00071137
     atom   15 type  3   force =     0.00215960    0.00177789   -0.00643028
     atom   16 type  1   force =    -0.01873024    0.02951393    0.02631500
     atom   17 type  1   force =    -0.03281537    0.00053981   -0.01253397
     atom   18 type  2   force =     0.05214798   -0.04634927   -0.00146954
     atom   19 type  3   force =     0.00144574   -0.00110462   -0.00294785
     atom   20 type  1   force =    -0.00801633    0.00601442    0.01241083
     atom   21 type  3   force =    -0.00169855    0.00099851    0.00421193
     atom   22 type  1   force =     0.00514998   -0.01046137   -0.01215657
     atom   23 type  1   force =    -0.01254531    0.01182535    0.02352688
     atom   24 type  2   force =     0.00326043   -0.00032431   -0.00876668
     The non-local contrib.  to forces
     atom    1 type  2   force =    -0.33167264    0.19713239    0.05414624
     atom    2 type  1   force =     0.38617508   -0.24227516   -0.07633706
     atom    3 type  1   force =    -0.03967734   -0.04642780    0.01532871
     atom    4 type  3   force =    -0.07087961   -0.01604963   -0.02936791
     atom    5 type  1   force =    -0.04803174   -0.03032069   -0.08621490
     atom    6 type  3   force =    -0.01156773   -0.06729278   -0.03944554
     atom    7 type  3   force =    -0.00114964   -0.06405493    0.04517029
     atom    8 type  1   force =     0.04357844   -0.06012736   -0.00025525
     atom    9 type  3   force =     0.06281978   -0.01960451    0.04268116
     atom   10 type  1   force =     0.00854530   -0.00916643    0.07636883
     atom   11 type  1   force =    -0.37029537   -0.33391001   -0.07683082
     atom   12 type  2   force =     0.30540614    0.24761725    0.04533572
     atom   13 type  3   force =     0.01061222    0.06694519    0.04061260
     atom   14 type  1   force =     0.03300544    0.08738840    0.02963215
     atom   15 type  3   force =     0.07258321    0.02200121    0.02289643
     atom   16 type  1   force =     0.03766165    0.09451928    0.08510913
     atom   17 type  1   force =    -0.43892438    0.29201467    0.04705201
     atom   18 type  2   force =     0.30097414   -0.24961028   -0.01682746
     atom   19 type  3   force =     0.00026110    0.06480627   -0.04405509
     atom   20 type  1   force =    -0.05310204    0.05466266   -0.01059109
     atom   21 type  3   force =    -0.06313475    0.02010288   -0.04257717
     atom   22 type  1   force =    -0.02055069    0.01391481   -0.07316859
     atom   23 type  1   force =     0.34489408    0.32682113    0.08019118
     atom   24 type  2   force =    -0.29406829   -0.26985478   -0.05649121
     The ionic contribution  to forces
     atom    1 type  2   force =     8.03545848   -4.19351619    0.66620680
     atom    2 type  1   force =     2.71627452   -1.49983815    0.27454287
     atom    3 type  1   force =     5.32879426    2.45172468    1.91326468
     atom    4 type  3   force =     2.48625540    0.74727461    1.06713353
     atom    5 type  1   force =     1.94459179    4.00099010    3.10103019
     atom    6 type  3   force =     0.73507052    1.90492328    1.27536928
     atom    7 type  3   force =    -0.35303344    1.92004965   -1.46284144
     atom    8 type  1   force =    -1.70277894    4.21738563   -2.60136215
     atom    9 type  3   force =    -2.07385139    0.76911724   -1.42077329
     atom   10 type  1   force =    -4.58464056    1.74442643   -3.34031066
     atom   11 type  1   force =    -3.18708364   -1.44583854   -0.23818328
     atom   12 type  2   force =    -6.32591437   -4.26554259   -1.22656577
     atom   13 type  3   force =    -0.35258300   -1.92398029   -1.11615629
     atom   14 type  1   force =    -0.90273402   -4.35760121   -1.72419657
     atom   15 type  3   force =    -2.08027245   -0.78701912   -0.77161851
     atom   16 type  1   force =    -3.98312421   -1.52660416   -1.77371579
     atom   17 type  1   force =    -2.34277022    1.90177204    0.17235742
     atom   18 type  2   force =    -4.55149845    3.69510743   -0.33466055
     atom   19 type  3   force =    -0.01106885   -1.92261786    1.27818716
     atom   20 type  1   force =     0.22677799   -4.17144217    2.04348999
     atom   21 type  3   force =     1.83020673   -0.70707682    1.31724154
     atom   22 type  1   force =     3.36104446   -1.72539968    2.71429870
     atom   23 type  1   force =     1.85244922    1.31044295   -0.31065481
     atom   24 type  2   force =     3.93443017    3.86326274    0.49791696
     The local contribution  to forces
     atom    1 type  2   force =    -7.67533257    3.96586286   -0.72744519
     atom    2 type  1   force =    -3.12529846    1.76102816   -0.19190492
     atom    3 type  1   force =    -5.28056504   -2.41628970   -1.89607540
     atom    4 type  3   force =    -2.41382999   -0.72082569   -1.04034023
     atom    5 type  1   force =    -1.90376801   -3.95970400   -3.05265362
     atom    6 type  3   force =    -0.72834453   -1.83998095   -1.23314004
     atom    7 type  3   force =     0.35167560   -1.85298668    1.42185231
     atom    8 type  1   force =     1.66490354   -4.16912765    2.58352260
     atom    9 type  3   force =     2.01302132   -0.75203381    1.37448737
     atom   10 type  1   force =     4.56722562   -1.71979794    3.27896927
     atom   11 type  1   force =     3.55259216    1.75722136    0.28830420
     atom   12 type  2   force =     6.03346699    4.02974330    1.19183523
     atom   13 type  3   force =     0.34457589    1.85596238    1.07898942
     atom   14 type  1   force =     0.86816653    4.29397579    1.69352798
     atom   15 type  3   force =     2.00984419    0.76679259    0.74229086
     atom   16 type  1   force =     3.92584574    1.46313314    1.71563457
     atom   17 type  1   force =     2.73684869   -2.18534398   -0.23073600
     atom   18 type  2   force =     4.31735092   -3.50404217    0.34930988
     atom   19 type  3   force =     0.01227596    1.85670266   -1.23707114
     atom   20 type  1   force =    -0.18209936    4.12161637   -2.01959577
     atom   21 type  3   force =    -1.76877644    0.68798320   -1.27045929
     atom   22 type  1   force =    -3.33405390    1.70073361   -2.65292097
     atom   23 type  1   force =    -2.20039910   -1.61760419    0.25510322
     atom   24 type  2   force =    -3.64865588   -3.60469202   -0.45268873
     The core correction contribution to forces
     atom    1 type  2   force =     0.01149240   -0.00654836   -0.00172018
     atom    2 type  1   force =    -0.00921453    0.00607396    0.00210419
     atom    3 type  1   force =    -0.00101533   -0.00051010   -0.00030998
     atom    4 type  3   force =     0.00000000    0.00000000    0.00000000
     atom    5 type  1   force =     0.00060073   -0.00111405   -0.00070346
     atom    6 type  3   force =     0.00000000    0.00000000    0.00000000
     atom    7 type  3   force =     0.00000000    0.00000000    0.00000000
     atom    8 type  1   force =    -0.00033764   -0.00110536    0.00089110
     atom    9 type  3   force =     0.00000000    0.00000000    0.00000000
     atom   10 type  1   force =     0.00131377   -0.00031615    0.00043059
     atom   11 type  1   force =     0.01001099    0.00811980    0.00094304
     atom   12 type  2   force =    -0.01243380   -0.01018076   -0.00209136
     atom   13 type  3   force =     0.00000000    0.00000000    0.00000000
     atom   14 type  1   force =    -0.00010406    0.00085066    0.00033079
     atom   15 type  3   force =     0.00000000    0.00000000    0.00000000
     atom   16 type  1   force =     0.00089632   -0.00151174   -0.00069434
     atom   17 type  1   force =     0.01211172   -0.00784074   -0.00115808
     atom   18 type  2   force =    -0.01459933    0.01224774    0.00074611
     atom   19 type  3   force =     0.00000000    0.00000000    0.00000000
     atom   20 type  1   force =     0.00058733    0.00114526   -0.00080257
     atom   21 type  3   force =     0.00000000    0.00000000    0.00000000
     atom   22 type  1   force =    -0.00118239    0.00032687   -0.00033296
     atom   23 type  1   force =    -0.00938770   -0.00783118   -0.00105660
     atom   24 type  2   force =     0.01150969    0.01086012    0.00251481
     The Hubbard contrib.    to forces
     atom    1 type  2   force =     0.00000000    0.00000000    0.00000000
     atom    2 type  1   force =     0.00000000    0.00000000    0.00000000
     atom    3 type  1   force =     0.00000000    0.00000000    0.00000000
     atom    4 type  3   force =     0.00000000    0.00000000    0.00000000
     atom    5 type  1   force =     0.00000000    0.00000000    0.00000000
     atom    6 type  3   force =     0.00000000    0.00000000    0.00000000
     atom    7 type  3   force =     0.00000000    0.00000000    0.00000000
     atom    8 type  1   force =     0.00000000    0.00000000    0.00000000
     atom    9 type  3   force =     0.00000000    0.00000000    0.00000000
     atom   10 type  1   force =     0.00000000    0.00000000    0.00000000
     atom   11 type  1   force =     0.00000000    0.00000000    0.00000000
     atom   12 type  2   force =     0.00000000    0.00000000    0.00000000
     atom   13 type  3   force =     0.00000000    0.00000000    0.00000000
     atom   14 type  1   force =     0.00000000    0.00000000    0.00000000
     atom   15 type  3   force =     0.00000000    0.00000000    0.00000000
     atom   16 type  1   force =     0.00000000    0.00000000    0.00000000
     atom   17 type  1   force =     0.00000000    0.00000000    0.00000000
     atom   18 type  2   force =     0.00000000    0.00000000    0.00000000
     atom   19 type  3   force =     0.00000000    0.00000000    0.00000000
     atom   20 type  1   force =     0.00000000    0.00000000    0.00000000
     atom   21 type  3   force =     0.00000000    0.00000000    0.00000000
     atom   22 type  1   force =     0.00000000    0.00000000    0.00000000
     atom   23 type  1   force =     0.00000000    0.00000000    0.00000000
     atom   24 type  2   force =     0.00000000    0.00000000    0.00000000
     The SCF correction term to forces
     atom    1 type  2   force =     0.00009241   -0.00004245   -0.00000732
     atom    2 type  1   force =    -0.00001396   -0.00007103   -0.00002418
     atom    3 type  1   force =     0.00004998   -0.00007210   -0.00000779
     atom    4 type  3   force =     0.00003061   -0.00000083    0.00001108
     atom    5 type  1   force =    -0.00004212    0.00000348    0.00000314
     atom    6 type  3   force =     0.00000584    0.00002494    0.00001341
     atom    7 type  3   force =    -0.00001322   -0.00000126   -0.00000740
     atom    8 type  1   force =    -0.00011423   -0.00007783   -0.00003253
     atom    9 type  3   force =     0.00001983   -0.00001352    0.00001337
     atom   10 type  1   force =     0.00000586   -0.00010260    0.00004920
     atom   11 type  1   force =    -0.00002907    0.00003770   -0.00001824
     atom   12 type  2   force =     0.00018566    0.00012145    0.00007445
     atom   13 type  3   force =    -0.00000230    0.00001369    0.00000219
     atom   14 type  1   force =    -0.00002245    0.00001366   -0.00000502
     atom   15 type  3   force =     0.00000509    0.00000388    0.00000164
     atom   16 type  1   force =    -0.00000929   -0.00002192   -0.00001787
     atom   17 type  1   force =    -0.00008073   -0.00006150   -0.00004862
     atom   18 type  2   force =    -0.00007885   -0.00005131   -0.00003681
     atom   19 type  3   force =    -0.00002203    0.00000497   -0.00000807
     atom   20 type  1   force =    -0.00017980    0.00003298   -0.00008901
     atom   21 type  3   force =     0.00000637   -0.00001009    0.00000756
     atom   22 type  1   force =    -0.00010704   -0.00003631   -0.00003205
     atom   23 type  1   force =    -0.00010136   -0.00000270   -0.00005540
     atom   24 type  2   force =     0.00004520    0.00010029   -0.00001780

     Total force =     0.141581     Total SCF correction =     0.000475

     Writing output data file scf-333.save
 writing file ./scratch/scf-333.save/charge-density
 writing file ./scratch/scf-333.save/charge-density
 writing file ./scratch/scf-333.save/charge-density
 writing file ./scratch/scf-333.save/charge-density
 writing file ./scratch/scf-333.save/charge-density
 writing file ./scratch/scf-333.save/charge-density
 writing file ./scratch/scf-333.save/charge-density
 writing file ./scratch/scf-333.save/charge-density
 writing file ./scratch/scf-333.save/charge-density
 writing file ./scratch/scf-333.save/charge-density
 writing file ./scratch/scf-333.save/charge-density
 writing file ./scratch/scf-333.save/charge-density
 writing file ./scratch/scf-333.save/charge-density
 writing file ./scratch/scf-333.save/charge-density
 writing file ./scratch/scf-333.save/charge-density
 writing file ./scratch/scf-333.save/charge-density
 writing file ./scratch/scf-333.save/charge-density
 writing file ./scratch/scf-333.save/charge-density
 writing file ./scratch/scf-333.save/charge-density
 writing file ./scratch/scf-333.save/charge-density
 writing file ./scratch/scf-333.save/charge-density
 writing file ./scratch/scf-333.save/charge-density
 writing file ./scratch/scf-333.save/charge-density
 writing file ./scratch/scf-333.save/charge-density
 writing file ./scratch/scf-333.save/charge-density
 writing file ./scratch/scf-333.save/charge-density
 writing file ./scratch/scf-333.save/charge-density
 writing file ./scratch/scf-333.save/charge-density
 writing file ./scratch/scf-333.save/charge-density
 writing file ./scratch/scf-333.save/charge-density
 writing file ./scratch/scf-333.save/charge-density
 writing file ./scratch/scf-333.save/charge-density
 
     init_run     :      4.40s CPU      4.59s WALL (       1 calls)
     electrons    :     49.78s CPU     52.59s WALL (       1 calls)
     forces       :      2.32s CPU      2.46s WALL (       1 calls)

     Called by init_run:
     wfcinit      :      1.60s CPU      1.61s WALL (       1 calls)
     wfcinit:atom :      0.01s CPU      0.02s WALL (      16 calls)
     wfcinit:wfcr :      1.48s CPU      1.49s WALL (      16 calls)
     potinit      :      0.88s CPU      0.91s WALL (       1 calls)

     Called by electrons:
     c_bands      :     38.86s CPU     39.14s WALL (      11 calls)
     sum_band     :      6.84s CPU      7.99s WALL (      11 calls)
     v_of_rho     :      0.91s CPU      0.97s WALL (      12 calls)
     v_h          :      0.06s CPU      0.06s WALL (      12 calls)
     v_xc         :      0.93s CPU      0.98s WALL (      13 calls)
     newd         :      1.52s CPU      2.87s WALL (      12 calls)
     PAW_pot      :      1.62s CPU      1.69s WALL (      12 calls)
     mix_rho      :      0.14s CPU      0.14s WALL (      11 calls)

     Called by c_bands:
     init_us_2    :      0.80s CPU      0.86s WALL (     384 calls)
     cegterg      :     36.54s CPU     36.76s WALL (     176 calls)

     Called by sum_band:
     sum_band:bec :      0.04s CPU      0.02s WALL (     176 calls)
     addusdens    :      1.58s CPU      2.69s WALL (      11 calls)

     Called by *egterg:
     h_psi        :     27.09s CPU     27.35s WALL (     872 calls)
     s_psi        :      2.10s CPU      2.05s WALL (     872 calls)
     g_psi        :      0.14s CPU      0.16s WALL (     680 calls)
     cdiaghg      :      3.48s CPU      3.48s WALL (     856 calls)
     cegterg:over :      1.63s CPU      1.62s WALL (     680 calls)
     cegterg:upda :      1.38s CPU      1.29s WALL (     680 calls)
     cegterg:last :      0.40s CPU      0.43s WALL (     192 calls)

     Called by h_psi:
     h_psi:pot    :     26.78s CPU     27.07s WALL (     872 calls)
     h_psi:calbec :      2.39s CPU      2.28s WALL (     872 calls)
     vloc_psi     :     22.55s CPU     22.79s WALL (     872 calls)
     add_vuspsi   :      1.83s CPU      2.00s WALL (     872 calls)

     General routines
     calbec       :      3.10s CPU      3.02s WALL (    1112 calls)
     fft          :      0.74s CPU      0.77s WALL (     199 calls)
     ffts         :      0.04s CPU      0.03s WALL (      23 calls)
     fftw         :     21.57s CPU     21.64s WALL (   55642 calls)
     interpolate  :      0.16s CPU      0.15s WALL (      23 calls)
     davcio       :      0.00s CPU      0.02s WALL (      16 calls)
 
     Parallel routines
     fft_scatter  :      8.03s CPU      7.85s WALL (   55864 calls)

     PAW routines
     PAW_pot      :      1.62s CPU      1.69s WALL (      12 calls)
 
     PWSCF        :  0m57.18s CPU     1m 0.74s WALL

 
   This run was terminated on:  12:16:22  20May2017            

=------------------------------------------------------------------------------=
   JOB DONE.
=------------------------------------------------------------------------------=
