
     Program PWSCF v.6.1 starts on 20May2017 at 16:23:54 

     This program is part of the open-source Quantum ESPRESSO suite
     for quantum simulation of materials; please cite
         "P. Giannozzi et al., J. Phys.:Condens. Matter 21 395502 (2009);
          URL http://www.quantum-espresso.org", 
     in publications or presentations arising from this work. More details at
     http://www.quantum-espresso.org/quote

     Parallel version (MPI & OpenMP), running on      32 processor cores
     Number of MPI processes:                32
     Threads/MPI process:                     1
     R & G space division:  proc/nbgrp/npool/nimage =      32
     Waiting for input...
     Reading input from standard input
Warning: card &IONS ignored
Warning: card     ION_TEMPERATURE   = 'INITIAL' ignored
Warning: card     TEMPW             = 586.D0 ignored
Warning: card     TOLP              = 100.D0 ignored
Warning: card     DELTA_T           = 1.D0 ignored
Warning: card     NRAISE            = 1 ignored
Warning: card / ignored
Warning: card &CELL ignored
Warning: card     CELL_DYNAMICS     = 'BFGS' ignored
Warning: card / ignored

     Current dimensions of program PWSCF are:
     Max number of different atomic species (ntypx) = 10
     Max number of k-points (npk) =  40000
     Max angular momentum in pseudopotentials (lmaxx) =  3
               file C.pbe-n-kjpaw_psl.1.0.0.UPF: wavefunction(s)  2S 2P renormalized
               file Cl.pbe-n-kjpaw_psl.1.0.0.UPF: wavefunction(s)  3S 3P renormalized
               file H.pbe-kjpaw_psl.1.0.0.UPF: wavefunction(s)  1S renormalized

     Subspace diagonalization in iterative solution of the eigenvalue problem:
     a serial algorithm will be used

 
     Parallelization info
     --------------------
     sticks:   dense  smooth     PW     G-vecs:    dense   smooth      PW
     Min         764     305     83                36108     9133    1292
     Max         765     306     84                36110     9135    1293
     Sum       24467    9791   2657              1155489   292295   41363
 


     bravais-lattice index     =            0
     lattice parameter (alat)  =       1.8897  a.u.
     unit-cell volume          =    2163.5316 (a.u.)^3
     number of atoms/cell      =           24
     number of atomic types    =            3
     number of electrons       =        84.00
     number of Kohn-Sham states=           42
     kinetic-energy cutoff     =     100.0000  Ry
     charge density cutoff     =    1000.0000  Ry
     convergence threshold     =      1.0E-07
     mixing beta               =       0.7000
     number of iterations used =            8  plain     mixing
     Exchange-correlation      =  SLA  PW   PBX  PBC ( 1  4  3  4 0 0)

     celldm(1)=   1.889726  celldm(2)=   0.000000  celldm(3)=   0.000000
     celldm(4)=   0.000000  celldm(5)=   0.000000  celldm(6)=   0.000000

     crystal axes: (cart. coord. in units of alat)
               a(1) = (  14.762000   0.000000   0.000000 )  
               a(2) = (   0.000000   5.832000   0.000000 )  
               a(3) = (  -1.563876   0.000000   3.723951 )  

     reciprocal axes: (cart. coord. in units 2 pi/alat)
               b(1) = (  0.067741  0.000000  0.028448 )  
               b(2) = (  0.000000  0.171468  0.000000 )  
               b(3) = (  0.000000  0.000000  0.268532 )  


     PseudoPot. # 1 for  C read from file:
     /global/cscratch1/sd/almno10/.data/PSEUDOPOTENTIALS/C.pbe-n-kjpaw_psl.1.0.0.UPF
     MD5 check sum: 2ba8448e293caca687844dde9a1b88a8
     Pseudo is Projector augmented-wave + core cor, Zval =  4.0
     Generated using "atomic" code by A. Dal Corso  v.5.3.0 svn rev. 11974
     Shape of augmentation charge: PSQ
     Using radial grid of 1073 points,  4 beta functions with: 
                l(1) =   0
                l(2) =   0
                l(3) =   1
                l(4) =   1
     Q(r) pseudized with 0 coefficients 


     PseudoPot. # 2 for Cl read from file:
     /global/cscratch1/sd/almno10/.data/PSEUDOPOTENTIALS/Cl.pbe-n-kjpaw_psl.1.0.0.UPF
     MD5 check sum: dca63699d6b897c5771335df08a09219
     Pseudo is Projector augmented-wave + core cor, Zval =  7.0
     Generated using "atomic" code by A. Dal Corso  v.5.3.0 svn rev. 11974
     Shape of augmentation charge: PSQ
     Using radial grid of 1157 points,  6 beta functions with: 
                l(1) =   0
                l(2) =   0
                l(3) =   1
                l(4) =   1
                l(5) =   2
                l(6) =   2
     Q(r) pseudized with 0 coefficients 


     PseudoPot. # 3 for  H read from file:
     /global/cscratch1/sd/almno10/.data/PSEUDOPOTENTIALS/H.pbe-kjpaw_psl.1.0.0.UPF
     MD5 check sum: bc0feb48a24907a0b97fa6ee2d589a29
     Pseudo is Projector augmented-wave, Zval =  1.0
     Generated using "atomic" code by A. Dal Corso  v.5.3.0 svn rev. 11974
     Shape of augmentation charge: PSQ
     Using radial grid of  929 points,  2 beta functions with: 
                l(1) =   0
                l(2) =   0
     Q(r) pseudized with 0 coefficients 


     atomic species   valence    mass     pseudopotential
        C              4.00    12.01100      C( 1.00)
        Cl             7.00    35.45270     Cl( 1.00)
        H              1.00     1.00790      H( 1.00)

     No symmetry found


                                    s                        frac. trans.

      isym =  1     identity                                     

 cryst.   s( 1) = (     1          0          0      )
                  (     0          1          0      )
                  (     0          0          1      )

 cart.    s( 1) = (  1.0000000  0.0000000 -0.0000000 )
                  (  0.0000000  1.0000000  0.0000000 )
                  (  0.0000000  0.0000000  1.0000000 )


   Cartesian axes

     site n.     atom                  positions (alat units)
         1           Cl  tau(   1) = (  16.3863805   0.8743112   1.7486287  )
         2           C   tau(   2) = (  15.0324716   1.9173428   1.7890867  )
         3           C   tau(   3) = (  15.0539035   3.1831813   2.3743282  )
         4           H   tau(   4) = (  15.9608967   3.4789677   2.8977256  )
         5           C   tau(   5) = (  13.9227190   3.9943378   2.4279412  )
         6           H   tau(   6) = (  13.9800065   4.9735958   2.8987386  )
         7           H   tau(   7) = (   6.6206881   2.4053283   0.7165447  )
         8           C   tau(   8) = (   6.6561823   1.4554645   1.2456562  )
         9           H   tau(   9) = (   4.6185785   0.9390982   0.7632628  )
        10           C   tau(  10) = (   5.5210143   0.6457682   1.2968968  )
        11           C   tau(  11) = (   5.5705920  -0.5744025   1.9690608  )
        12           Cl  tau(  12) = (   4.1034067  -1.6367924   2.1107715  )
        13           H   tau(  13) = (  13.8453490   0.4533202   0.6817972  )
        14           C   tau(  14) = (  13.8896478   1.4328704   1.1546107  )
        15           H   tau(  15) = (  11.8539635   1.9330170   0.6508416  )
        16           C   tau(  16) = (  12.7692016   2.2635173   1.1380107  )
        17           C   tau(  17) = (  12.7987331   3.5446110   1.7375158  )
        18           Cl  tau(  18) = (  11.3270968   4.5401648   1.7677707  )
        19           H   tau(  19) = (   6.7583957  -1.9361356   3.1686857  )
        20           C   tau(  20) = (   6.7164215  -0.9767544   2.6557497  )
        21           H   tau(  21) = (   8.7596219  -0.4697682   3.1145031  )
        22           C   tau(  22) = (   7.8562774  -0.1780894   2.5831566  )
        23           C   tau(  23) = (   7.7994404   1.0528008   1.9328511  )
        24           Cl  tau(  24) = (   9.3011654   1.9614319   1.8339972  )

   Crystallographic axes

     site n.     atom                  positions (cryst. coord.)
         1           Cl  tau(   1) = (  1.1597831  0.1499162  0.4695627  )
         2           C   tau(   2) = (  1.0692182  0.3287625  0.4804270  )
         3           C   tau(   3) = (  1.0873191  0.5458130  0.6375830  )
         4           H   tau(   4) = (  1.1636498  0.5965308  0.7781320  )
         5           C   tau(   5) = (  1.0122161  0.6849002  0.6519798  )
         6           H   tau(   6) = (  1.0294901  0.8528114  0.7784040  )
         7           H   tau(   7) = (  0.4688797  0.4124363  0.1924152  )
         8           C   tau(   8) = (  0.4863363  0.2495653  0.3344985  )
         9           H   tau(   9) = (  0.3345828  0.1610251  0.2049605  )
        10           C   tau(  10) = (  0.4108960  0.1107284  0.3482583  )
        11           C   tau(  11) = (  0.4333763 -0.0984915  0.5287558  )
        12           Cl  tau(  12) = (  0.3380183 -0.2806571  0.5668096  )
        13           H   tau(  13) = (  0.9573005  0.0777298  0.1830843  )
        14           C   tau(  14) = (  0.9737520  0.2456911  0.3100499  )
        15           H   tau(  15) = (  0.8215204  0.3314501  0.1747718  )
        16           C   tau(  16) = (  0.8973791  0.3881203  0.3055922  )
        17           C   tau(  17) = (  0.9164344  0.6077865  0.4665785  )
        18           Cl  tau(  18) = (  0.8176042  0.7784919  0.4747029  )
        19           H   tau(  19) = (  0.5479669 -0.3319848  0.8508934  )
        20           C   tau(  20) = (  0.5305314 -0.1674819  0.7131537  )
        21           H   tau(  21) = (  0.6819916 -0.0805501  0.8363437  )
        22           C   tau(  22) = (  0.6056819 -0.0305366  0.6936601  )
        23           C   tau(  23) = (  0.5833317  0.1805214  0.5190323  )
        24           Cl  tau(  24) = (  0.6822486  0.3363223  0.4924869  )

     number of k points=    16
                       cart. coord. in units 2pi/alat
        k(    1) = (   0.0169354   0.0214335   0.0406785), wk =   0.1250000
        k(    2) = (   0.0169354   0.0214335   0.1078115), wk =   0.1250000
        k(    3) = (   0.0169354   0.0214335  -0.0935875), wk =   0.1250000
        k(    4) = (   0.0169354   0.0214335  -0.0264545), wk =   0.1250000
        k(    5) = (   0.0169354   0.0643004   0.0406785), wk =   0.1250000
        k(    6) = (   0.0169354   0.0643004   0.1078115), wk =   0.1250000
        k(    7) = (   0.0169354   0.0643004  -0.0935875), wk =   0.1250000
        k(    8) = (   0.0169354   0.0643004  -0.0264545), wk =   0.1250000
        k(    9) = (  -0.0169354   0.0214335  -0.0406785), wk =   0.1250000
        k(   10) = (  -0.0169354   0.0214335  -0.1078115), wk =   0.1250000
        k(   11) = (  -0.0169354   0.0214335   0.0935875), wk =   0.1250000
        k(   12) = (  -0.0169354   0.0214335   0.0264545), wk =   0.1250000
        k(   13) = (  -0.0169354   0.0643004  -0.0406785), wk =   0.1250000
        k(   14) = (  -0.0169354   0.0643004  -0.1078115), wk =   0.1250000
        k(   15) = (  -0.0169354   0.0643004   0.0935875), wk =   0.1250000
        k(   16) = (  -0.0169354   0.0643004   0.0264545), wk =   0.1250000

                       cryst. coord.
        k(    1) = (   0.2500000   0.1250000   0.1250000), wk =   0.1250000
        k(    2) = (   0.2500000   0.1250000   0.3750000), wk =   0.1250000
        k(    3) = (   0.2500000   0.1250000  -0.3750000), wk =   0.1250000
        k(    4) = (   0.2500000   0.1250000  -0.1250000), wk =   0.1250000
        k(    5) = (   0.2500000   0.3750000   0.1250000), wk =   0.1250000
        k(    6) = (   0.2500000   0.3750000   0.3750000), wk =   0.1250000
        k(    7) = (   0.2500000   0.3750000  -0.3750000), wk =   0.1250000
        k(    8) = (   0.2500000   0.3750000  -0.1250000), wk =   0.1250000
        k(    9) = (  -0.2500000   0.1250000  -0.1250000), wk =   0.1250000
        k(   10) = (  -0.2500000   0.1250000  -0.3750000), wk =   0.1250000
        k(   11) = (  -0.2500000   0.1250000   0.3750000), wk =   0.1250000
        k(   12) = (  -0.2500000   0.1250000   0.1250000), wk =   0.1250000
        k(   13) = (  -0.2500000   0.3750000  -0.1250000), wk =   0.1250000
        k(   14) = (  -0.2500000   0.3750000  -0.3750000), wk =   0.1250000
        k(   15) = (  -0.2500000   0.3750000   0.3750000), wk =   0.1250000
        k(   16) = (  -0.2500000   0.3750000   0.1250000), wk =   0.1250000

     Dense  grid:  1155489 G-vectors     FFT dimensions: ( 288, 120,  80)

     Smooth grid:   292295 G-vectors     FFT dimensions: ( 180,  72,  50)

     Estimated max dynamical RAM per process >     147.21MB

     Estimated total allocated dynamical RAM >    4710.62MB

     Initial potential from superposition of free atoms

     starting charge   83.99939, renormalised to   84.00000
     Starting wfc are   72 randomized atomic wfcs
     Checking if some PAW data can be deallocated... 
       node    0, deallocated PAW data for type:  1
       node    0, deallocated PAW data for type:  3
       node    1, deallocated PAW data for type:  1
       node    1, deallocated PAW data for type:  3
       node    2, deallocated PAW data for type:  2
       node    2, deallocated PAW data for type:  3
       node    3, deallocated PAW data for type:  2
       node    3, deallocated PAW data for type:  3
       node    4, deallocated PAW data for type:  2
       node    4, deallocated PAW data for type:  3
       node    5, deallocated PAW data for type:  2
       node    5, deallocated PAW data for type:  3
       node    6, deallocated PAW data for type:  1
       node    6, deallocated PAW data for type:  2
       node    7, deallocated PAW data for type:  1
       node    7, deallocated PAW data for type:  2
       node    8, deallocated PAW data for type:  2
       node    8, deallocated PAW data for type:  3
       node    9, deallocated PAW data for type:  2
       node    9, deallocated PAW data for type:  3
       node   10, deallocated PAW data for type:  1
       node   10, deallocated PAW data for type:  2
       node   11, deallocated PAW data for type:  1
       node   11, deallocated PAW data for type:  2
       node   12, deallocated PAW data for type:  1
       node   12, deallocated PAW data for type:  2
       node   13, deallocated PAW data for type:  1
       node   13, deallocated PAW data for type:  2
       node   14, deallocated PAW data for type:  2
       node   14, deallocated PAW data for type:  3
       node   15, deallocated PAW data for type:  2
       node   15, deallocated PAW data for type:  3
       node   16, deallocated PAW data for type:  1
       node   16, deallocated PAW data for type:  2
       node   17, deallocated PAW data for type:  2
       node   17, deallocated PAW data for type:  3
       node   18, deallocated PAW data for type:  2
       node   18, deallocated PAW data for type:  3
       node   19, deallocated PAW data for type:  1
       node   19, deallocated PAW data for type:  3
       node   20, deallocated PAW data for type:  1
       node   20, deallocated PAW data for type:  2
       node   21, deallocated PAW data for type:  2
       node   21, deallocated PAW data for type:  3
       node   22, deallocated PAW data for type:  1
       node   22, deallocated PAW data for type:  2
       node   23, deallocated PAW data for type:  2
       node   23, deallocated PAW data for type:  3
       node   24, deallocated PAW data for type:  2
       node   24, deallocated PAW data for type:  3
       node   25, deallocated PAW data for type:  1
       node   25, deallocated PAW data for type:  3
       node   26, deallocated PAW data for type:  1
       node   26, deallocated PAW data for type:  2
       node   27, deallocated PAW data for type:  2
       node   27, deallocated PAW data for type:  3
       node   28, deallocated PAW data for type:  1
       node   28, deallocated PAW data for type:  2
       node   29, deallocated PAW data for type:  2
       node   29, deallocated PAW data for type:  3
       node   30, deallocated PAW data for type:  2
       node   30, deallocated PAW data for type:  3
       node   31, deallocated PAW data for type:  1
       node   31, deallocated PAW data for type:  3

     total cpu time spent up to now is        5.2 secs

     per-process dynamical memory:    20.7 Mb

     Self-consistent Calculation

     iteration #  1     ecut=   100.00 Ry     beta= 0.70
     Davidson diagonalization with overlap
     ethr =  1.00E-04,  avg # of iterations =  5.0

     total cpu time spent up to now is       11.8 secs

     total energy              =    -547.15233650 Ry
     Harris-Foulkes estimate   =    -548.98615262 Ry
     estimated scf accuracy    <       2.69313065 Ry

     iteration #  2     ecut=   100.00 Ry     beta= 0.70
     Davidson diagonalization with overlap
     ethr =  3.21E-03,  avg # of iterations =  3.0

     total cpu time spent up to now is       16.6 secs

     total energy              =    -547.54559904 Ry
     Harris-Foulkes estimate   =    -548.60316518 Ry
     estimated scf accuracy    <       1.90773773 Ry

     iteration #  3     ecut=   100.00 Ry     beta= 0.70
     Davidson diagonalization with overlap
     ethr =  2.27E-03,  avg # of iterations =  3.0

     total cpu time spent up to now is       20.9 secs

     total energy              =    -548.02119278 Ry
     Harris-Foulkes estimate   =    -548.06180809 Ry
     estimated scf accuracy    <       0.08199490 Ry

     iteration #  4     ecut=   100.00 Ry     beta= 0.70
     Davidson diagonalization with overlap
     ethr =  9.76E-05,  avg # of iterations =  3.9

     total cpu time spent up to now is       25.7 secs

     total energy              =    -548.04756914 Ry
     Harris-Foulkes estimate   =    -548.05797380 Ry
     estimated scf accuracy    <       0.02072375 Ry

     iteration #  5     ecut=   100.00 Ry     beta= 0.70
     Davidson diagonalization with overlap
     ethr =  2.47E-05,  avg # of iterations =  3.0

     total cpu time spent up to now is       30.0 secs

     total energy              =    -548.05182866 Ry
     Harris-Foulkes estimate   =    -548.05222508 Ry
     estimated scf accuracy    <       0.00084862 Ry

     iteration #  6     ecut=   100.00 Ry     beta= 0.70
     Davidson diagonalization with overlap
     ethr =  1.01E-06,  avg # of iterations =  4.0

     total cpu time spent up to now is       34.8 secs

     total energy              =    -548.05204612 Ry
     Harris-Foulkes estimate   =    -548.05218453 Ry
     estimated scf accuracy    <       0.00026737 Ry

     iteration #  7     ecut=   100.00 Ry     beta= 0.70
     Davidson diagonalization with overlap
     ethr =  3.18E-07,  avg # of iterations =  4.0

     total cpu time spent up to now is       39.4 secs

     total energy              =    -548.05210399 Ry
     Harris-Foulkes estimate   =    -548.05216523 Ry
     estimated scf accuracy    <       0.00016408 Ry

     iteration #  8     ecut=   100.00 Ry     beta= 0.70
     Davidson diagonalization with overlap
     ethr =  1.95E-07,  avg # of iterations =  4.0

     total cpu time spent up to now is       43.6 secs

     total energy              =    -548.05213395 Ry
     Harris-Foulkes estimate   =    -548.05213998 Ry
     estimated scf accuracy    <       0.00001416 Ry

     iteration #  9     ecut=   100.00 Ry     beta= 0.70
     Davidson diagonalization with overlap
     ethr =  1.69E-08,  avg # of iterations =  4.0

     total cpu time spent up to now is       48.1 secs

     total energy              =    -548.05213710 Ry
     Harris-Foulkes estimate   =    -548.05213808 Ry
     estimated scf accuracy    <       0.00000219 Ry

     iteration # 10     ecut=   100.00 Ry     beta= 0.70
     Davidson diagonalization with overlap
     ethr =  2.61E-09,  avg # of iterations =  4.0

     total cpu time spent up to now is       52.7 secs

     total energy              =    -548.05213762 Ry
     Harris-Foulkes estimate   =    -548.05213777 Ry
     estimated scf accuracy    <       0.00000033 Ry

     iteration # 11     ecut=   100.00 Ry     beta= 0.70
     Davidson diagonalization with overlap
     ethr =  3.90E-10,  avg # of iterations =  4.0

     total cpu time spent up to now is       57.2 secs

     End of self-consistent calculation

          k = 0.0169 0.0214 0.0407 ( 36525 PWs)   bands (ev):

   -16.1019 -15.9307 -15.3650 -15.1006 -13.9384 -13.8535 -12.3527 -12.3467
   -11.3014 -11.2001  -8.9879  -8.9791  -8.2589  -8.1575  -6.3717  -6.2702
    -5.3588  -5.2840  -5.0035  -4.7391  -4.2532  -4.1085  -3.9813  -3.8692
    -3.2076  -3.0981  -2.7418  -2.6010  -2.4268  -2.3257  -2.2008  -2.0371
    -1.2656  -1.1068  -1.0091  -0.9367  -0.8652  -0.7246  -0.0398   0.0160
     0.5069   0.7331

     occupation numbers 
     1.0000   1.0000   1.0000   1.0000   1.0000   1.0000   1.0000   1.0000
     1.0000   1.0000   1.0000   1.0000   1.0000   1.0000   1.0000   1.0000
     1.0000   1.0000   1.0000   1.0000   1.0000   1.0000   1.0000   1.0000
     1.0000   1.0000   1.0000   1.0000   1.0000   1.0000   1.0000   1.0000
     1.0000   1.0000   1.0000   1.0000   1.0000   1.0000   1.0000   1.0000
     1.0000   1.0000

          k = 0.0169 0.0214 0.1078 ( 36561 PWs)   bands (ev):

   -16.0310 -15.8435 -15.3171 -15.0511 -13.9253 -13.8336 -12.3337 -12.3212
   -11.3172 -11.1934  -8.9536  -8.9334  -8.1986  -8.1588  -6.3564  -6.3033
    -5.3405  -5.2760  -5.0490  -4.8692  -4.3382  -4.1822  -4.1010  -3.9260
    -3.7459  -3.6718  -2.7981  -2.7024  -2.6176  -2.4536  -2.3480  -2.2460
    -1.3430  -1.1907  -1.0996  -0.9748  -0.8914  -0.7032  -0.3124  -0.2630
     0.6296   0.7379

     occupation numbers 
     1.0000   1.0000   1.0000   1.0000   1.0000   1.0000   1.0000   1.0000
     1.0000   1.0000   1.0000   1.0000   1.0000   1.0000   1.0000   1.0000
     1.0000   1.0000   1.0000   1.0000   1.0000   1.0000   1.0000   1.0000
     1.0000   1.0000   1.0000   1.0000   1.0000   1.0000   1.0000   1.0000
     1.0000   1.0000   1.0000   1.0000   1.0000   1.0000   1.0000   1.0000
     1.0000   1.0000

          k = 0.0169 0.0214-0.0936 ( 36547 PWs)   bands (ev):

   -16.0348 -15.8376 -15.3179 -15.0522 -13.9202 -13.8406 -12.3393 -12.3169
   -11.3100 -11.1976  -8.9751  -8.9116  -8.2153  -8.1365  -6.3625  -6.2984
    -5.3398  -5.2732  -5.0398  -4.8761  -4.3024  -4.1901  -4.1285  -3.9605
    -3.7290  -3.6858  -2.7488  -2.7049  -2.5928  -2.4368  -2.3940  -2.3209
    -1.2728  -1.2070  -1.1054  -1.0030  -0.8765  -0.6960  -0.3102  -0.2577
     0.6294   0.7386

     occupation numbers 
     1.0000   1.0000   1.0000   1.0000   1.0000   1.0000   1.0000   1.0000
     1.0000   1.0000   1.0000   1.0000   1.0000   1.0000   1.0000   1.0000
     1.0000   1.0000   1.0000   1.0000   1.0000   1.0000   1.0000   1.0000
     1.0000   1.0000   1.0000   1.0000   1.0000   1.0000   1.0000   1.0000
     1.0000   1.0000   1.0000   1.0000   1.0000   1.0000   1.0000   1.0000
     1.0000   1.0000

          k = 0.0169 0.0214-0.0265 ( 36551 PWs)   bands (ev):

   -16.1060 -15.9244 -15.3669 -15.1007 -13.9335 -13.8598 -12.3604 -12.3410
   -11.2979 -11.2000  -9.0174  -8.9518  -8.2852  -8.1192  -6.4078  -6.2340
    -5.3653  -5.2813  -5.0401  -4.6996  -4.2327  -4.1480  -3.9707  -3.8401
    -3.2185  -3.1182  -2.7925  -2.5963  -2.3867  -2.3405  -2.2035  -2.0583
    -1.2294  -1.1009  -1.0141  -0.9200  -0.8951  -0.7117  -0.0246   0.0024
     0.5131   0.7312

     occupation numbers 
     1.0000   1.0000   1.0000   1.0000   1.0000   1.0000   1.0000   1.0000
     1.0000   1.0000   1.0000   1.0000   1.0000   1.0000   1.0000   1.0000
     1.0000   1.0000   1.0000   1.0000   1.0000   1.0000   1.0000   1.0000
     1.0000   1.0000   1.0000   1.0000   1.0000   1.0000   1.0000   1.0000
     1.0000   1.0000   1.0000   1.0000   1.0000   1.0000   1.0000   1.0000
     1.0000   1.0000

          k = 0.0169 0.0643 0.0407 ( 36518 PWs)   bands (ev):

   -16.0704 -15.9041 -15.3733 -15.1096 -13.9671 -13.8816 -12.4057 -12.3947
   -11.3139 -11.2196  -8.8867  -8.8543  -8.1714  -8.1010  -6.3293  -6.2828
    -5.2983  -5.2393  -5.1510  -4.9070  -4.4249  -4.2522  -3.9997  -3.9210
    -3.2711  -3.1561  -2.6300  -2.5410  -2.4166  -2.3582  -2.1426  -1.9905
    -1.0837  -0.9971  -0.9525  -0.9050  -0.8520  -0.7720   0.0234   0.0880
     0.5809   0.7580

     occupation numbers 
     1.0000   1.0000   1.0000   1.0000   1.0000   1.0000   1.0000   1.0000
     1.0000   1.0000   1.0000   1.0000   1.0000   1.0000   1.0000   1.0000
     1.0000   1.0000   1.0000   1.0000   1.0000   1.0000   1.0000   1.0000
     1.0000   1.0000   1.0000   1.0000   1.0000   1.0000   1.0000   1.0000
     1.0000   1.0000   1.0000   1.0000   1.0000   1.0000   1.0000   1.0000
     1.0000   1.0000

          k = 0.0169 0.0643 0.1078 ( 36558 PWs)   bands (ev):

   -16.0083 -15.8270 -15.3201 -15.0530 -13.9367 -13.8547 -12.3645 -12.3566
   -11.3355 -11.2204  -8.9081  -8.8655  -8.1904  -8.1333  -6.3229  -6.2863
    -5.3024  -5.2595  -5.0465  -4.8120  -4.3734  -4.2136  -4.0648  -3.9653
    -3.8770  -3.8096  -2.7631  -2.6695  -2.5830  -2.4753  -2.3583  -2.2858
    -1.2672  -1.1396  -1.0683  -0.9993  -0.9216  -0.7972  -0.1400  -0.1020
     0.6778   0.7566

     occupation numbers 
     1.0000   1.0000   1.0000   1.0000   1.0000   1.0000   1.0000   1.0000
     1.0000   1.0000   1.0000   1.0000   1.0000   1.0000   1.0000   1.0000
     1.0000   1.0000   1.0000   1.0000   1.0000   1.0000   1.0000   1.0000
     1.0000   1.0000   1.0000   1.0000   1.0000   1.0000   1.0000   1.0000
     1.0000   1.0000   1.0000   1.0000   1.0000   1.0000   1.0000   1.0000
     1.0000   1.0000

          k = 0.0169 0.0643-0.0936 ( 36547 PWs)   bands (ev):

   -16.0119 -15.8217 -15.3194 -15.0550 -13.9351 -13.8581 -12.3635 -12.3582
   -11.3316 -11.2227  -8.8949  -8.8754  -8.1702  -8.1518  -6.3251  -6.2963
    -5.3053  -5.2570  -4.9339  -4.8760  -4.3599  -4.2102  -4.1232  -4.0393
    -3.8282  -3.7797  -2.8385  -2.6425  -2.5828  -2.5513  -2.2885  -2.2513
    -1.2427  -1.1278  -1.0808  -1.0326  -0.9086  -0.7929  -0.1557  -0.0883
     0.6889   0.7540

     occupation numbers 
     1.0000   1.0000   1.0000   1.0000   1.0000   1.0000   1.0000   1.0000
     1.0000   1.0000   1.0000   1.0000   1.0000   1.0000   1.0000   1.0000
     1.0000   1.0000   1.0000   1.0000   1.0000   1.0000   1.0000   1.0000
     1.0000   1.0000   1.0000   1.0000   1.0000   1.0000   1.0000   1.0000
     1.0000   1.0000   1.0000   1.0000   1.0000   1.0000   1.0000   1.0000
     1.0000   1.0000

          k = 0.0169 0.0643-0.0265 ( 36489 PWs)   bands (ev):

   -16.0739 -15.8990 -15.3730 -15.1110 -13.9658 -13.8850 -12.4028 -12.3970
   -11.3115 -11.2224  -8.8821  -8.8550  -8.1649  -8.1012  -6.3522  -6.2891
    -5.2935  -5.2403  -5.0361  -4.9622  -4.4138  -4.2221  -4.0674  -3.9727
    -3.2506  -3.1784  -2.6359  -2.5000  -2.4244  -2.3467  -2.1403  -2.0156
    -1.1086  -1.0327  -0.9479  -0.8737  -0.8395  -0.7492   0.0471   0.0776
     0.5815   0.7512

     occupation numbers 
     1.0000   1.0000   1.0000   1.0000   1.0000   1.0000   1.0000   1.0000
     1.0000   1.0000   1.0000   1.0000   1.0000   1.0000   1.0000   1.0000
     1.0000   1.0000   1.0000   1.0000   1.0000   1.0000   1.0000   1.0000
     1.0000   1.0000   1.0000   1.0000   1.0000   1.0000   1.0000   1.0000
     1.0000   1.0000   1.0000   1.0000   1.0000   1.0000   1.0000   1.0000
     1.0000   1.0000

          k =-0.0169 0.0214-0.0407 ( 36525 PWs)   bands (ev):

   -16.1047 -15.9270 -15.3630 -15.1033 -13.9359 -13.8576 -12.3579 -12.3427
   -11.2973 -11.2020  -9.0171  -8.9485  -8.2572  -8.1563  -6.3744  -6.2646
    -5.3630  -5.2739  -4.9754  -4.7806  -4.1910  -4.1520  -4.0521  -3.8118
    -3.1988  -3.1185  -2.7580  -2.6247  -2.4119  -2.3327  -2.1802  -2.0412
    -1.2689  -1.1055  -1.0060  -0.9355  -0.8572  -0.7211  -0.0177  -0.0008
     0.5065   0.7329

     occupation numbers 
     1.0000   1.0000   1.0000   1.0000   1.0000   1.0000   1.0000   1.0000
     1.0000   1.0000   1.0000   1.0000   1.0000   1.0000   1.0000   1.0000
     1.0000   1.0000   1.0000   1.0000   1.0000   1.0000   1.0000   1.0000
     1.0000   1.0000   1.0000   1.0000   1.0000   1.0000   1.0000   1.0000
     1.0000   1.0000   1.0000   1.0000   1.0000   1.0000   1.0000   1.0000
     1.0000   1.0000

          k =-0.0169 0.0214-0.1078 ( 36561 PWs)   bands (ev):

   -16.0343 -15.8388 -15.3156 -15.0539 -13.9222 -13.8384 -12.3399 -12.3160
   -11.3124 -11.1956  -8.9760  -8.9101  -8.1966  -8.1577  -6.3482  -6.3075
    -5.3469  -5.2675  -4.9955  -4.9326  -4.3258  -4.2015  -4.0956  -3.9338
    -3.7367  -3.6733  -2.8095  -2.7239  -2.6102  -2.4359  -2.3638  -2.2459
    -1.3469  -1.1910  -1.1082  -0.9596  -0.8869  -0.6920  -0.3121  -0.2600
     0.6319   0.7353

     occupation numbers 
     1.0000   1.0000   1.0000   1.0000   1.0000   1.0000   1.0000   1.0000
     1.0000   1.0000   1.0000   1.0000   1.0000   1.0000   1.0000   1.0000
     1.0000   1.0000   1.0000   1.0000   1.0000   1.0000   1.0000   1.0000
     1.0000   1.0000   1.0000   1.0000   1.0000   1.0000   1.0000   1.0000
     1.0000   1.0000   1.0000   1.0000   1.0000   1.0000   1.0000   1.0000
     1.0000   1.0000

          k =-0.0169 0.0214 0.0936 ( 36547 PWs)   bands (ev):

   -16.0317 -15.8421 -15.3195 -15.0496 -13.9198 -13.8393 -12.3332 -12.3222
   -11.3125 -11.1970  -8.9500  -8.9387  -8.2231  -8.1312  -6.3770  -6.2819
    -5.3445  -5.2759  -5.0758  -4.8356  -4.3277  -4.1701  -4.1256  -3.9608
    -3.7172  -3.6788  -2.7419  -2.6834  -2.5911  -2.4760  -2.3683  -2.3250
    -1.2810  -1.1931  -1.1147  -1.0014  -0.8857  -0.7004  -0.3082  -0.2645
     0.6315   0.7366

     occupation numbers 
     1.0000   1.0000   1.0000   1.0000   1.0000   1.0000   1.0000   1.0000
     1.0000   1.0000   1.0000   1.0000   1.0000   1.0000   1.0000   1.0000
     1.0000   1.0000   1.0000   1.0000   1.0000   1.0000   1.0000   1.0000
     1.0000   1.0000   1.0000   1.0000   1.0000   1.0000   1.0000   1.0000
     1.0000   1.0000   1.0000   1.0000   1.0000   1.0000   1.0000   1.0000
     1.0000   1.0000

          k =-0.0169 0.0214 0.0265 ( 36551 PWs)   bands (ev):

   -16.1031 -15.9285 -15.3678 -15.0990 -13.9350 -13.8565 -12.3554 -12.3454
   -11.3005 -11.1992  -8.9962  -8.9741  -8.2878  -8.1201  -6.4198  -6.2205
    -5.3689  -5.2866  -5.0389  -4.6959  -4.2585  -4.1708  -3.9419  -3.8013
    -3.2038  -3.1163  -2.7757  -2.6278  -2.3927  -2.3340  -2.1859  -2.0671
    -1.2351  -1.0892  -1.0267  -0.9310  -0.8871  -0.7163  -0.0432   0.0169
     0.5142   0.7295

     occupation numbers 
     1.0000   1.0000   1.0000   1.0000   1.0000   1.0000   1.0000   1.0000
     1.0000   1.0000   1.0000   1.0000   1.0000   1.0000   1.0000   1.0000
     1.0000   1.0000   1.0000   1.0000   1.0000   1.0000   1.0000   1.0000
     1.0000   1.0000   1.0000   1.0000   1.0000   1.0000   1.0000   1.0000
     1.0000   1.0000   1.0000   1.0000   1.0000   1.0000   1.0000   1.0000
     1.0000   1.0000

          k =-0.0169 0.0643-0.0407 ( 36518 PWs)   bands (ev):

   -16.0734 -15.9001 -15.3711 -15.1126 -13.9641 -13.8860 -12.4025 -12.3990
   -11.3098 -11.2216  -8.8824  -8.8572  -8.1539  -8.1168  -6.3396  -6.2720
    -5.3009  -5.2387  -5.0367  -5.0006  -4.4076  -4.3156  -4.0578  -3.8401
    -3.2436  -3.1840  -2.6245  -2.5831  -2.4527  -2.3205  -2.1048  -2.0163
    -1.0946  -0.9970  -0.9528  -0.8947  -0.8419  -0.7654   0.0502   0.0669
     0.5818   0.7561

     occupation numbers 
     1.0000   1.0000   1.0000   1.0000   1.0000   1.0000   1.0000   1.0000
     1.0000   1.0000   1.0000   1.0000   1.0000   1.0000   1.0000   1.0000
     1.0000   1.0000   1.0000   1.0000   1.0000   1.0000   1.0000   1.0000
     1.0000   1.0000   1.0000   1.0000   1.0000   1.0000   1.0000   1.0000
     1.0000   1.0000   1.0000   1.0000   1.0000   1.0000   1.0000   1.0000
     1.0000   1.0000

          k =-0.0169 0.0643-0.1078 ( 36558 PWs)   bands (ev):

   -16.0118 -15.8221 -15.3184 -15.0560 -13.9325 -13.8605 -12.3648 -12.3574
   -11.3308 -11.2227  -8.8978  -8.8742  -8.1668  -8.1561  -6.3195  -6.2886
    -5.3071  -5.2523  -4.9395  -4.9030  -4.3755  -4.2472  -4.0821  -3.9593
    -3.8494  -3.8173  -2.8150  -2.6432  -2.5863  -2.4568  -2.3471  -2.3031
    -1.2951  -1.1169  -1.0414  -0.9949  -0.9599  -0.7702  -0.1510  -0.0851
     0.6814   0.7517

     occupation numbers 
     1.0000   1.0000   1.0000   1.0000   1.0000   1.0000   1.0000   1.0000
     1.0000   1.0000   1.0000   1.0000   1.0000   1.0000   1.0000   1.0000
     1.0000   1.0000   1.0000   1.0000   1.0000   1.0000   1.0000   1.0000
     1.0000   1.0000   1.0000   1.0000   1.0000   1.0000   1.0000   1.0000
     1.0000   1.0000   1.0000   1.0000   1.0000   1.0000   1.0000   1.0000
     1.0000   1.0000

          k =-0.0169 0.0643 0.0936 ( 36547 PWs)   bands (ev):

   -16.0086 -15.8264 -15.3212 -15.0522 -13.9351 -13.8563 -12.3641 -12.3569
   -11.3339 -11.2223  -8.9065  -8.8666  -8.1989  -8.1232  -6.3462  -6.2694
    -5.3089  -5.2611  -5.0438  -4.7821  -4.3655  -4.2442  -4.0722  -4.0151
    -3.8326  -3.7733  -2.7750  -2.6782  -2.6215  -2.5408  -2.2929  -2.2429
    -1.2200  -1.1359  -1.1241  -0.9959  -0.9315  -0.7907  -0.1355  -0.1142
     0.6907   0.7518

     occupation numbers 
     1.0000   1.0000   1.0000   1.0000   1.0000   1.0000   1.0000   1.0000
     1.0000   1.0000   1.0000   1.0000   1.0000   1.0000   1.0000   1.0000
     1.0000   1.0000   1.0000   1.0000   1.0000   1.0000   1.0000   1.0000
     1.0000   1.0000   1.0000   1.0000   1.0000   1.0000   1.0000   1.0000
     1.0000   1.0000   1.0000   1.0000   1.0000   1.0000   1.0000   1.0000
     1.0000   1.0000

          k =-0.0169 0.0643 0.0265 ( 36489 PWs)   bands (ev):

   -16.0707 -15.9035 -15.3740 -15.1091 -13.9674 -13.8816 -12.4056 -12.3935
   -11.3139 -11.2218  -8.8858  -8.8532  -8.1730  -8.0947  -6.3688  -6.2693
    -5.2926  -5.2402  -5.1347  -4.8816  -4.3763  -4.2625  -4.1067  -3.8948
    -3.2678  -3.1599  -2.6129  -2.5139  -2.4386  -2.3425  -2.1439  -2.0088
    -1.0934  -1.0301  -0.9751  -0.8935  -0.8070  -0.7650   0.0273   0.0913
     0.5825   0.7502

     occupation numbers 
     1.0000   1.0000   1.0000   1.0000   1.0000   1.0000   1.0000   1.0000
     1.0000   1.0000   1.0000   1.0000   1.0000   1.0000   1.0000   1.0000
     1.0000   1.0000   1.0000   1.0000   1.0000   1.0000   1.0000   1.0000
     1.0000   1.0000   1.0000   1.0000   1.0000   1.0000   1.0000   1.0000
     1.0000   1.0000   1.0000   1.0000   1.0000   1.0000   1.0000   1.0000
     1.0000   1.0000

     highest occupied level (ev):     0.7580

!    total energy              =    -548.05213770 Ry
     Harris-Foulkes estimate   =    -548.05213772 Ry
     estimated scf accuracy    <       0.00000003 Ry

     total all-electron energy =     -4615.895625 Ry

     The total energy is the sum of the following terms:

     one-electron contribution =    -150.14514710 Ry
     hartree contribution      =     106.41930758 Ry
     xc contribution           =    -104.16241878 Ry
     ewald contribution        =    -144.38341235 Ry
     one-center paw contrib.   =    -255.78046705 Ry
      -> PAW hartree energy AE =      19.45311726 Ry
      -> PAW hartree energy PS =     -19.34811569 Ry
      -> PAW xc energy AE      =     -55.70947913 Ry
      -> PAW xc energy PS      =      10.16150248 Ry
      -> total E_H with PAW    =     106.52430914 Ry
      -> total E_XC with PAW   =    -149.71039544 Ry

     convergence has been achieved in  11 iterations
 writing file ./scratch/scf-1071.save/charge-density
 writing file ./scratch/scf-1071.save/charge-density
 writing file ./scratch/scf-1071.save/charge-density
 writing file ./scratch/scf-1071.save/charge-density
 writing file ./scratch/scf-1071.save/charge-density
 writing file ./scratch/scf-1071.save/charge-density
 writing file ./scratch/scf-1071.save/charge-density
 writing file ./scratch/scf-1071.save/charge-density
 writing file ./scratch/scf-1071.save/charge-density
 writing file ./scratch/scf-1071.save/charge-density
 writing file ./scratch/scf-1071.save/charge-density
 writing file ./scratch/scf-1071.save/charge-density
 writing file ./scratch/scf-1071.save/charge-density
 writing file ./scratch/scf-1071.save/charge-density
 writing file ./scratch/scf-1071.save/charge-density
 writing file ./scratch/scf-1071.save/charge-density
 writing file ./scratch/scf-1071.save/charge-density
 writing file ./scratch/scf-1071.save/charge-density
 writing file ./scratch/scf-1071.save/charge-density
 writing file ./scratch/scf-1071.save/charge-density
 writing file ./scratch/scf-1071.save/charge-density
 writing file ./scratch/scf-1071.save/charge-density
 writing file ./scratch/scf-1071.save/charge-density
 writing file ./scratch/scf-1071.save/charge-density
 writing file ./scratch/scf-1071.save/charge-density
 writing file ./scratch/scf-1071.save/charge-density
 writing file ./scratch/scf-1071.save/charge-density
 writing file ./scratch/scf-1071.save/charge-density
 writing file ./scratch/scf-1071.save/charge-density
 writing file ./scratch/scf-1071.save/charge-density
 writing file ./scratch/scf-1071.save/charge-density
 writing file ./scratch/scf-1071.save/charge-density

     Forces acting on atoms (cartesian axes, Ry/au):

     atom    1 type  2   force =     0.03618459   -0.00759333    0.01018797
     atom    2 type  1   force =    -0.02632178    0.00305401   -0.01798421
     atom    3 type  1   force =     0.02256228   -0.01471788    0.02591651
     atom    4 type  3   force =     0.00239316    0.00746085   -0.00087406
     atom    5 type  1   force =     0.00503486   -0.00804272   -0.02938317
     atom    6 type  3   force =    -0.00462437   -0.00286859    0.00310758
     atom    7 type  3   force =     0.00033142   -0.00063564   -0.00261074
     atom    8 type  1   force =     0.00038072    0.00560936    0.01302508
     atom    9 type  3   force =    -0.00068435    0.00215663    0.00145170
     atom   10 type  1   force =    -0.01162213   -0.01302956   -0.00954639
     atom   11 type  1   force =    -0.02519119   -0.01614151    0.02230928
     atom   12 type  2   force =     0.03709045    0.03056560   -0.01269852
     atom   13 type  3   force =     0.00304114    0.00188645    0.00115443
     atom   14 type  1   force =    -0.02272967    0.03048439    0.00470850
     atom   15 type  3   force =     0.00169169   -0.00005940   -0.00039598
     atom   16 type  1   force =    -0.01299493    0.02463028    0.00311699
     atom   17 type  1   force =    -0.01846669   -0.01752466    0.00956005
     atom   18 type  2   force =     0.02497501   -0.01217567   -0.00363736
     atom   19 type  3   force =    -0.00145058    0.00216355    0.00316740
     atom   20 type  1   force =     0.00185443   -0.00755862   -0.01657128
     atom   21 type  3   force =     0.00082184   -0.00367992   -0.00307851
     atom   22 type  1   force =    -0.00885527    0.00666433    0.01741034
     atom   23 type  1   force =     0.01984421   -0.01432922   -0.01769988
     atom   24 type  2   force =    -0.02326485    0.00368123   -0.00063574
     The non-local contrib.  to forces
     atom    1 type  2   force =    -0.30061436    0.25830340    0.02055992
     atom    2 type  1   force =     0.38049296   -0.27263991   -0.02252307
     atom    3 type  1   force =    -0.01624475   -0.07543595   -0.00219279
     atom    4 type  3   force =    -0.06518621   -0.02116510   -0.03810908
     atom    5 type  1   force =    -0.00721024   -0.04061861   -0.07946265
     atom    6 type  3   force =    -0.00491998   -0.07087270   -0.03402618
     atom    7 type  3   force =     0.00308968   -0.06875158    0.03832085
     atom    8 type  1   force =     0.01915074   -0.03354683    0.07137004
     atom    9 type  3   force =     0.06521346   -0.02111815    0.03885117
     atom   10 type  1   force =     0.03704953   -0.07155178    0.02486125
     atom   11 type  1   force =    -0.43789040   -0.29121302    0.06120235
     atom   12 type  2   force =     0.31552689    0.23406746   -0.04216650
     atom   13 type  3   force =     0.00399665    0.07060346    0.03440808
     atom   14 type  1   force =    -0.00839705    0.06308764    0.03222353
     atom   15 type  3   force =     0.06631872    0.02411816    0.03567962
     atom   16 type  1   force =     0.03259224    0.10415691    0.04287947
     atom   17 type  1   force =    -0.43501720    0.24775361    0.01943663
     atom   18 type  2   force =     0.33404788   -0.22007270   -0.01506631
     atom   19 type  3   force =    -0.00361263    0.06922910   -0.03693473
     atom   20 type  1   force =    -0.02729921    0.02197318   -0.06883302
     atom   21 type  3   force =    -0.06535022    0.02133228   -0.03907746
     atom   22 type  1   force =    -0.06526650    0.05571709   -0.00369004
     atom   23 type  1   force =     0.42371039    0.24645748   -0.05912174
     atom   24 type  2   force =    -0.34699641   -0.20474887    0.02141705
     The ionic contribution  to forces
     atom    1 type  2   force =     7.06121043   -3.82489036    0.90721689
     atom    2 type  1   force =     3.12077077   -1.10769119    0.91900982
     atom    3 type  1   force =     5.04565161    2.26051716    2.43177212
     atom    4 type  3   force =     2.23689610    0.79306146    1.31259195
     atom    5 type  1   force =     1.50860815    4.04437098    2.81328934
     atom    6 type  3   force =     0.44662207    1.95134951    1.22255345
     atom    7 type  3   force =    -0.45333431    1.98821354   -1.27845813
     atom    8 type  1   force =    -1.69439391    4.17812856   -2.71866448
     atom    9 type  3   force =    -2.15413990    0.83250275   -1.25780562
     atom   10 type  1   force =    -5.01795303    2.09921234   -2.60279191
     atom   11 type  1   force =    -3.38378788   -1.89912663   -0.90402045
     atom   12 type  2   force =    -6.27001707   -3.93919805   -0.77602474
     atom   13 type  3   force =    -0.09668216   -1.99113768   -1.07306483
     atom   14 type  1   force =    -0.27190794   -4.17538369   -1.80377962
     atom   15 type  3   force =    -1.81130320   -0.86699098   -1.01033721
     atom   16 type  1   force =    -3.32574814   -1.92544176   -1.91672165
     atom   17 type  1   force =    -1.70676192    1.68438728   -0.47448027
     atom   18 type  2   force =    -4.62243069    3.75938653   -0.09968638
     atom   19 type  3   force =     0.08448685   -2.01226986    1.09215018
     atom   20 type  1   force =     0.08397571   -4.10451988    2.11889548
     atom   21 type  3   force =     1.88978058   -0.76391422    1.09831404
     atom   22 type  1   force =     3.52523225   -2.19012057    1.86424585
     atom   23 type  1   force =     1.45124815    1.98204137    0.29355809
     atom   24 type  2   force =     4.35397745    3.22751336   -0.15776192
     The local contribution  to forces
     atom    1 type  2   force =    -6.73501217    3.56894976   -0.91650089
     atom    2 type  1   force =    -3.51784177    1.37686837   -0.91446437
     atom    3 type  1   force =    -5.00543004   -2.19997056   -2.40323980
     atom    4 type  3   force =    -2.16932127   -0.76443837   -1.27535970
     atom    5 type  1   force =    -1.49641423   -4.01046549   -2.76282320
     atom    6 type  3   force =    -0.44631730   -1.88333850   -1.18541609
     atom    7 type  3   force =     0.45059050   -1.92009645    1.23753556
     atom    8 type  1   force =     1.67583136   -4.13772952    2.66016738
     atom    9 type  3   force =     2.08824492   -0.80922466    1.22040652
     atom   10 type  1   force =     4.96820756   -2.04094519    2.56796872
     atom   11 type  1   force =     3.78485236    2.16606983    0.86607154
     atom   12 type  2   force =     6.00617989    3.74655983    0.80332784
     atom   13 type  3   force =     0.09572516    1.92241981    1.03981145
     atom   14 type  1   force =     0.25725702    4.14154405    1.77568762
     atom   15 type  3   force =     1.74665600    0.84280346    0.97425127
     atom   16 type  1   force =     3.27911679    1.84722572    1.87691931
     atom   17 type  1   force =     2.11202374   -1.94306568    0.46420648
     atom   18 type  2   force =     4.32771470   -3.56083596    0.11030293
     atom   19 type  3   force =    -0.08231816    1.94522178   -1.05205266
     atom   20 type  1   force =    -0.05515929    4.07361443   -2.06623643
     atom   21 type  3   force =    -1.82363048    0.73890655   -1.06232491
     atom   22 type  1   force =    -3.46807041    2.14092079   -1.84251589
     atom   23 type  1   force =    -1.84445102   -2.23574849   -0.25290514
     atom   24 type  2   force =    -4.04491487   -3.02752516    0.13650264
     The core correction contribution to forces
     atom    1 type  2   force =     0.01061874   -0.00993957   -0.00105109
     atom    2 type  1   force =    -0.00969387    0.00651341    0.00002034
     atom    3 type  1   force =    -0.00133998    0.00018159   -0.00039344
     atom    4 type  3   force =     0.00000000    0.00000000    0.00000000
     atom    5 type  1   force =     0.00014374   -0.00128733   -0.00034478
     atom    6 type  3   force =     0.00000000    0.00000000    0.00000000
     atom    7 type  3   force =     0.00000000    0.00000000    0.00000000
     atom    8 type  1   force =    -0.00012653   -0.00123683    0.00018383
     atom    9 type  3   force =     0.00000000    0.00000000    0.00000000
     atom   10 type  1   force =     0.00114091    0.00024601    0.00044790
     atom   11 type  1   force =     0.01173752    0.00809519   -0.00088973
     atom   12 type  2   force =    -0.01447872   -0.01085524    0.00219207
     atom   13 type  3   force =     0.00000000    0.00000000    0.00000000
     atom   14 type  1   force =     0.00033489    0.00117298    0.00056777
     atom   15 type  3   force =     0.00000000    0.00000000    0.00000000
     atom   16 type  1   force =     0.00098953   -0.00138691   -0.00000564
     atom   17 type  1   force =     0.01126413   -0.00657483    0.00038247
     atom   18 type  2   force =    -0.01457490    0.00945197    0.00072393
     atom   19 type  3   force =     0.00000000    0.00000000    0.00000000
     atom   20 type  1   force =     0.00039585    0.00138805   -0.00038276
     atom   21 type  3   force =     0.00000000    0.00000000    0.00000000
     atom   22 type  1   force =    -0.00076577    0.00012691   -0.00062901
     atom   23 type  1   force =    -0.01064995   -0.00711955    0.00078736
     atom   24 type  2   force =     0.01454742    0.00838286   -0.00080353
     The Hubbard contrib.    to forces
     atom    1 type  2   force =     0.00000000    0.00000000    0.00000000
     atom    2 type  1   force =     0.00000000    0.00000000    0.00000000
     atom    3 type  1   force =     0.00000000    0.00000000    0.00000000
     atom    4 type  3   force =     0.00000000    0.00000000    0.00000000
     atom    5 type  1   force =     0.00000000    0.00000000    0.00000000
     atom    6 type  3   force =     0.00000000    0.00000000    0.00000000
     atom    7 type  3   force =     0.00000000    0.00000000    0.00000000
     atom    8 type  1   force =     0.00000000    0.00000000    0.00000000
     atom    9 type  3   force =     0.00000000    0.00000000    0.00000000
     atom   10 type  1   force =     0.00000000    0.00000000    0.00000000
     atom   11 type  1   force =     0.00000000    0.00000000    0.00000000
     atom   12 type  2   force =     0.00000000    0.00000000    0.00000000
     atom   13 type  3   force =     0.00000000    0.00000000    0.00000000
     atom   14 type  1   force =     0.00000000    0.00000000    0.00000000
     atom   15 type  3   force =     0.00000000    0.00000000    0.00000000
     atom   16 type  1   force =     0.00000000    0.00000000    0.00000000
     atom   17 type  1   force =     0.00000000    0.00000000    0.00000000
     atom   18 type  2   force =     0.00000000    0.00000000    0.00000000
     atom   19 type  3   force =     0.00000000    0.00000000    0.00000000
     atom   20 type  1   force =     0.00000000    0.00000000    0.00000000
     atom   21 type  3   force =     0.00000000    0.00000000    0.00000000
     atom   22 type  1   force =     0.00000000    0.00000000    0.00000000
     atom   23 type  1   force =     0.00000000    0.00000000    0.00000000
     atom   24 type  2   force =     0.00000000    0.00000000    0.00000000
     The SCF correction term to forces
     atom    1 type  2   force =    -0.00001788   -0.00001575   -0.00003625
     atom    2 type  1   force =    -0.00004971    0.00000414   -0.00002630
     atom    3 type  1   force =    -0.00007439   -0.00000930   -0.00002896
     atom    4 type  3   force =     0.00000471    0.00000367    0.00000338
     atom    5 type  1   force =    -0.00009241   -0.00004145   -0.00004126
     atom    6 type  3   force =    -0.00000899   -0.00000608   -0.00000298
     atom    7 type  3   force =    -0.00001429   -0.00000034   -0.00000841
     atom    8 type  1   force =    -0.00008077   -0.00000520   -0.00003107
     atom    9 type  3   force =    -0.00000266   -0.00000249    0.00000024
     atom   10 type  1   force =    -0.00006694    0.00000988   -0.00003172
     atom   11 type  1   force =    -0.00010261    0.00003393   -0.00005381
     atom   12 type  2   force =    -0.00012038   -0.00000758   -0.00002656
     atom   13 type  3   force =     0.00000165    0.00000167    0.00000035
     atom   14 type  1   force =    -0.00001642    0.00006422    0.00000982
     atom   15 type  3   force =     0.00002033    0.00001077    0.00001096
     atom   16 type  1   force =     0.00005482    0.00007712    0.00004612
     atom   17 type  1   force =     0.00002473   -0.00002422    0.00001537
     atom   18 type  2   force =     0.00021819   -0.00010470    0.00008909
     atom   19 type  3   force =    -0.00000648   -0.00001665    0.00000523
     atom   20 type  1   force =    -0.00005847   -0.00001358   -0.00001392
     atom   21 type  3   force =     0.00002213   -0.00000372    0.00001043
     atom   22 type  1   force =     0.00001532    0.00002092    0.00000005
     atom   23 type  1   force =    -0.00001319    0.00004078   -0.00001783
     atom   24 type  2   force =     0.00012173    0.00005985    0.00001064

     Total force =     0.124454     Total SCF correction =     0.000421

     Writing output data file scf-1071.save
 writing file ./scratch/scf-1071.save/charge-density
 writing file ./scratch/scf-1071.save/charge-density
 writing file ./scratch/scf-1071.save/charge-density
 writing file ./scratch/scf-1071.save/charge-density
 writing file ./scratch/scf-1071.save/charge-density
 writing file ./scratch/scf-1071.save/charge-density
 writing file ./scratch/scf-1071.save/charge-density
 writing file ./scratch/scf-1071.save/charge-density
 writing file ./scratch/scf-1071.save/charge-density
 writing file ./scratch/scf-1071.save/charge-density
 writing file ./scratch/scf-1071.save/charge-density
 writing file ./scratch/scf-1071.save/charge-density
 writing file ./scratch/scf-1071.save/charge-density
 writing file ./scratch/scf-1071.save/charge-density
 writing file ./scratch/scf-1071.save/charge-density
 writing file ./scratch/scf-1071.save/charge-density
 writing file ./scratch/scf-1071.save/charge-density
 writing file ./scratch/scf-1071.save/charge-density
 writing file ./scratch/scf-1071.save/charge-density
 writing file ./scratch/scf-1071.save/charge-density
 writing file ./scratch/scf-1071.save/charge-density
 writing file ./scratch/scf-1071.save/charge-density
 writing file ./scratch/scf-1071.save/charge-density
 writing file ./scratch/scf-1071.save/charge-density
 writing file ./scratch/scf-1071.save/charge-density
 writing file ./scratch/scf-1071.save/charge-density
 writing file ./scratch/scf-1071.save/charge-density
 writing file ./scratch/scf-1071.save/charge-density
 writing file ./scratch/scf-1071.save/charge-density
 writing file ./scratch/scf-1071.save/charge-density
 writing file ./scratch/scf-1071.save/charge-density
 writing file ./scratch/scf-1071.save/charge-density
 
     init_run     :      4.36s CPU      4.57s WALL (       1 calls)
     electrons    :     49.31s CPU     52.09s WALL (       1 calls)
     forces       :      2.30s CPU      2.45s WALL (       1 calls)

     Called by init_run:
     wfcinit      :      1.58s CPU      1.60s WALL (       1 calls)
     wfcinit:atom :      0.01s CPU      0.02s WALL (      16 calls)
     wfcinit:wfcr :      1.47s CPU      1.48s WALL (      16 calls)
     potinit      :      0.90s CPU      0.91s WALL (       1 calls)

     Called by electrons:
     c_bands      :     38.57s CPU     38.79s WALL (      11 calls)
     sum_band     :      6.67s CPU      7.85s WALL (      11 calls)
     v_of_rho     :      0.92s CPU      0.97s WALL (      12 calls)
     v_h          :      0.07s CPU      0.06s WALL (      12 calls)
     v_xc         :      0.92s CPU      0.98s WALL (      13 calls)
     newd         :      1.50s CPU      2.85s WALL (      12 calls)
     PAW_pot      :      1.62s CPU      1.70s WALL (      12 calls)
     mix_rho      :      0.14s CPU      0.14s WALL (      11 calls)

     Called by c_bands:
     init_us_2    :      0.85s CPU      0.86s WALL (     384 calls)
     cegterg      :     36.23s CPU     36.41s WALL (     176 calls)

     Called by sum_band:
     sum_band:bec :      0.02s CPU      0.02s WALL (     176 calls)
     addusdens    :      1.54s CPU      2.66s WALL (      11 calls)

     Called by *egterg:
     h_psi        :     26.79s CPU     26.95s WALL (     863 calls)
     s_psi        :      2.00s CPU      2.03s WALL (     863 calls)
     g_psi        :      0.17s CPU      0.16s WALL (     671 calls)
     cdiaghg      :      3.46s CPU      3.45s WALL (     847 calls)
     cegterg:over :      1.70s CPU      1.66s WALL (     671 calls)
     cegterg:upda :      1.27s CPU      1.27s WALL (     671 calls)
     cegterg:last :      0.43s CPU      0.43s WALL (     192 calls)

     Called by h_psi:
     h_psi:pot    :     26.50s CPU     26.68s WALL (     863 calls)
     h_psi:calbec :      2.28s CPU      2.27s WALL (     863 calls)
     vloc_psi     :     22.28s CPU     22.42s WALL (     863 calls)
     add_vuspsi   :      1.94s CPU      1.99s WALL (     863 calls)

     General routines
     calbec       :      2.99s CPU      3.01s WALL (    1103 calls)
     fft          :      0.76s CPU      0.78s WALL (     199 calls)
     ffts         :      0.02s CPU      0.03s WALL (      23 calls)
     fftw         :     21.32s CPU     21.32s WALL (   55730 calls)
     interpolate  :      0.14s CPU      0.15s WALL (      23 calls)
     davcio       :      0.00s CPU      0.01s WALL (      16 calls)
 
     Parallel routines
     fft_scatter  :      7.27s CPU      7.46s WALL (   55952 calls)

     PAW routines
     PAW_pot      :      1.62s CPU      1.70s WALL (      12 calls)
 
     PWSCF        :  0m56.66s CPU     1m 0.22s WALL

 
   This run was terminated on:  16:24:54  20May2017            

=------------------------------------------------------------------------------=
   JOB DONE.
=------------------------------------------------------------------------------=

     Program PWSCF v.6.1 starts on 20May2017 at 16:28:15 

     This program is part of the open-source Quantum ESPRESSO suite
     for quantum simulation of materials; please cite
         "P. Giannozzi et al., J. Phys.:Condens. Matter 21 395502 (2009);
          URL http://www.quantum-espresso.org", 
     in publications or presentations arising from this work. More details at
     http://www.quantum-espresso.org/quote

     Parallel version (MPI & OpenMP), running on      32 processor cores
     Number of MPI processes:                32
     Threads/MPI process:                     1
     R & G space division:  proc/nbgrp/npool/nimage =      32
     Waiting for input...
     Reading input from standard input
Warning: card &IONS ignored
Warning: card     ION_TEMPERATURE   = 'INITIAL' ignored
Warning: card     TEMPW             = 586.D0 ignored
Warning: card     TOLP              = 100.D0 ignored
Warning: card     DELTA_T           = 1.D0 ignored
Warning: card     NRAISE            = 1 ignored
Warning: card / ignored
Warning: card &CELL ignored
Warning: card     CELL_DYNAMICS     = 'BFGS' ignored
Warning: card / ignored

     Current dimensions of program PWSCF are:
     Max number of different atomic species (ntypx) = 10
     Max number of k-points (npk) =  40000
     Max angular momentum in pseudopotentials (lmaxx) =  3
               file C.pbe-n-kjpaw_psl.1.0.0.UPF: wavefunction(s)  2S 2P renormalized
               file Cl.pbe-n-kjpaw_psl.1.0.0.UPF: wavefunction(s)  3S 3P renormalized
               file H.pbe-kjpaw_psl.1.0.0.UPF: wavefunction(s)  1S renormalized

     Subspace diagonalization in iterative solution of the eigenvalue problem:
     a serial algorithm will be used

 
     Parallelization info
     --------------------
     sticks:   dense  smooth     PW     G-vecs:    dense   smooth      PW
     Min         764     305     83                36108     9133    1292
     Max         765     306     84                36110     9135    1293
     Sum       24467    9791   2657              1155489   292295   41363
 


     bravais-lattice index     =            0
     lattice parameter (alat)  =       1.8897  a.u.
     unit-cell volume          =    2163.5316 (a.u.)^3
     number of atoms/cell      =           24
     number of atomic types    =            3
     number of electrons       =        84.00
     number of Kohn-Sham states=           42
     kinetic-energy cutoff     =     100.0000  Ry
     charge density cutoff     =    1000.0000  Ry
     convergence threshold     =      1.0E-07
     mixing beta               =       0.7000
     number of iterations used =            8  plain     mixing
     Exchange-correlation      =  SLA  PW   PBX  PBC ( 1  4  3  4 0 0)

     celldm(1)=   1.889726  celldm(2)=   0.000000  celldm(3)=   0.000000
     celldm(4)=   0.000000  celldm(5)=   0.000000  celldm(6)=   0.000000

     crystal axes: (cart. coord. in units of alat)
               a(1) = (  14.762000   0.000000   0.000000 )  
               a(2) = (   0.000000   5.832000   0.000000 )  
               a(3) = (  -1.563876   0.000000   3.723951 )  

     reciprocal axes: (cart. coord. in units 2 pi/alat)
               b(1) = (  0.067741  0.000000  0.028448 )  
               b(2) = (  0.000000  0.171468  0.000000 )  
               b(3) = (  0.000000  0.000000  0.268532 )  


     PseudoPot. # 1 for  C read from file:
     /global/cscratch1/sd/almno10/.data/PSEUDOPOTENTIALS/C.pbe-n-kjpaw_psl.1.0.0.UPF
     MD5 check sum: 2ba8448e293caca687844dde9a1b88a8
     Pseudo is Projector augmented-wave + core cor, Zval =  4.0
     Generated using "atomic" code by A. Dal Corso  v.5.3.0 svn rev. 11974
     Shape of augmentation charge: PSQ
     Using radial grid of 1073 points,  4 beta functions with: 
                l(1) =   0
                l(2) =   0
                l(3) =   1
                l(4) =   1
     Q(r) pseudized with 0 coefficients 


     PseudoPot. # 2 for Cl read from file:
     /global/cscratch1/sd/almno10/.data/PSEUDOPOTENTIALS/Cl.pbe-n-kjpaw_psl.1.0.0.UPF
     MD5 check sum: dca63699d6b897c5771335df08a09219
     Pseudo is Projector augmented-wave + core cor, Zval =  7.0
     Generated using "atomic" code by A. Dal Corso  v.5.3.0 svn rev. 11974
     Shape of augmentation charge: PSQ
     Using radial grid of 1157 points,  6 beta functions with: 
                l(1) =   0
                l(2) =   0
                l(3) =   1
                l(4) =   1
                l(5) =   2
                l(6) =   2
     Q(r) pseudized with 0 coefficients 


     PseudoPot. # 3 for  H read from file:
     /global/cscratch1/sd/almno10/.data/PSEUDOPOTENTIALS/H.pbe-kjpaw_psl.1.0.0.UPF
     MD5 check sum: bc0feb48a24907a0b97fa6ee2d589a29
     Pseudo is Projector augmented-wave, Zval =  1.0
     Generated using "atomic" code by A. Dal Corso  v.5.3.0 svn rev. 11974
     Shape of augmentation charge: PSQ
     Using radial grid of  929 points,  2 beta functions with: 
                l(1) =   0
                l(2) =   0
     Q(r) pseudized with 0 coefficients 


     atomic species   valence    mass     pseudopotential
        C              4.00    12.01100      C( 1.00)
        Cl             7.00    35.45270     Cl( 1.00)
        H              1.00     1.00790      H( 1.00)

     No symmetry found


                                    s                        frac. trans.

      isym =  1     identity                                     

 cryst.   s( 1) = (     1          0          0      )
                  (     0          1          0      )
                  (     0          0          1      )

 cart.    s( 1) = (  1.0000000  0.0000000 -0.0000000 )
                  (  0.0000000  1.0000000  0.0000000 )
                  (  0.0000000  0.0000000  1.0000000 )


   Cartesian axes

     site n.     atom                  positions (alat units)
         1           Cl  tau(   1) = (  16.3863805   0.8743112   1.7486287  )
         2           C   tau(   2) = (  15.0324716   1.9173428   1.7890867  )
         3           C   tau(   3) = (  15.0539035   3.1831813   2.3743282  )
         4           H   tau(   4) = (  15.9608967   3.4789677   2.8977256  )
         5           C   tau(   5) = (  13.9227190   3.9943378   2.4279412  )
         6           H   tau(   6) = (  13.9800065   4.9735958   2.8987386  )
         7           H   tau(   7) = (   6.6206881   2.4053283   0.7165447  )
         8           C   tau(   8) = (   6.6561823   1.4554645   1.2456562  )
         9           H   tau(   9) = (   4.6185785   0.9390982   0.7632628  )
        10           C   tau(  10) = (   5.5210143   0.6457682   1.2968968  )
        11           C   tau(  11) = (   5.5705920  -0.5744025   1.9690608  )
        12           Cl  tau(  12) = (   4.1034067  -1.6367924   2.1107715  )
        13           H   tau(  13) = (  13.8453490   0.4533202   0.6817972  )
        14           C   tau(  14) = (  13.8896478   1.4328704   1.1546107  )
        15           H   tau(  15) = (  11.8539635   1.9330170   0.6508416  )
        16           C   tau(  16) = (  12.7692016   2.2635173   1.1380107  )
        17           C   tau(  17) = (  12.7987331   3.5446110   1.7375158  )
        18           Cl  tau(  18) = (  11.3270968   4.5401648   1.7677707  )
        19           H   tau(  19) = (   6.7583957  -1.9361356   3.1686857  )
        20           C   tau(  20) = (   6.7164215  -0.9767544   2.6557497  )
        21           H   tau(  21) = (   8.7596219  -0.4697682   3.1145031  )
        22           C   tau(  22) = (   7.8562774  -0.1780894   2.5831566  )
        23           C   tau(  23) = (   7.7994404   1.0528008   1.9328511  )
        24           Cl  tau(  24) = (   9.3011654   1.9614319   1.8339972  )

   Crystallographic axes

     site n.     atom                  positions (cryst. coord.)
         1           Cl  tau(   1) = (  1.1597831  0.1499162  0.4695627  )
         2           C   tau(   2) = (  1.0692182  0.3287625  0.4804270  )
         3           C   tau(   3) = (  1.0873191  0.5458130  0.6375830  )
         4           H   tau(   4) = (  1.1636498  0.5965308  0.7781320  )
         5           C   tau(   5) = (  1.0122161  0.6849002  0.6519798  )
         6           H   tau(   6) = (  1.0294901  0.8528114  0.7784040  )
         7           H   tau(   7) = (  0.4688797  0.4124363  0.1924152  )
         8           C   tau(   8) = (  0.4863363  0.2495653  0.3344985  )
         9           H   tau(   9) = (  0.3345828  0.1610251  0.2049605  )
        10           C   tau(  10) = (  0.4108960  0.1107284  0.3482583  )
        11           C   tau(  11) = (  0.4333763 -0.0984915  0.5287558  )
        12           Cl  tau(  12) = (  0.3380183 -0.2806571  0.5668096  )
        13           H   tau(  13) = (  0.9573005  0.0777298  0.1830843  )
        14           C   tau(  14) = (  0.9737520  0.2456911  0.3100499  )
        15           H   tau(  15) = (  0.8215204  0.3314501  0.1747718  )
        16           C   tau(  16) = (  0.8973791  0.3881203  0.3055922  )
        17           C   tau(  17) = (  0.9164344  0.6077865  0.4665785  )
        18           Cl  tau(  18) = (  0.8176042  0.7784919  0.4747029  )
        19           H   tau(  19) = (  0.5479669 -0.3319848  0.8508934  )
        20           C   tau(  20) = (  0.5305314 -0.1674819  0.7131537  )
        21           H   tau(  21) = (  0.6819916 -0.0805501  0.8363437  )
        22           C   tau(  22) = (  0.6056819 -0.0305366  0.6936601  )
        23           C   tau(  23) = (  0.5833317  0.1805214  0.5190323  )
        24           Cl  tau(  24) = (  0.6822486  0.3363223  0.4924869  )

     number of k points=    16
                       cart. coord. in units 2pi/alat
        k(    1) = (   0.0169354   0.0214335   0.0406785), wk =   0.1250000
        k(    2) = (   0.0169354   0.0214335   0.1078115), wk =   0.1250000
        k(    3) = (   0.0169354   0.0214335  -0.0935875), wk =   0.1250000
        k(    4) = (   0.0169354   0.0214335  -0.0264545), wk =   0.1250000
        k(    5) = (   0.0169354   0.0643004   0.0406785), wk =   0.1250000
        k(    6) = (   0.0169354   0.0643004   0.1078115), wk =   0.1250000
        k(    7) = (   0.0169354   0.0643004  -0.0935875), wk =   0.1250000
        k(    8) = (   0.0169354   0.0643004  -0.0264545), wk =   0.1250000
        k(    9) = (  -0.0169354   0.0214335  -0.0406785), wk =   0.1250000
        k(   10) = (  -0.0169354   0.0214335  -0.1078115), wk =   0.1250000
        k(   11) = (  -0.0169354   0.0214335   0.0935875), wk =   0.1250000
        k(   12) = (  -0.0169354   0.0214335   0.0264545), wk =   0.1250000
        k(   13) = (  -0.0169354   0.0643004  -0.0406785), wk =   0.1250000
        k(   14) = (  -0.0169354   0.0643004  -0.1078115), wk =   0.1250000
        k(   15) = (  -0.0169354   0.0643004   0.0935875), wk =   0.1250000
        k(   16) = (  -0.0169354   0.0643004   0.0264545), wk =   0.1250000

                       cryst. coord.
        k(    1) = (   0.2500000   0.1250000   0.1250000), wk =   0.1250000
        k(    2) = (   0.2500000   0.1250000   0.3750000), wk =   0.1250000
        k(    3) = (   0.2500000   0.1250000  -0.3750000), wk =   0.1250000
        k(    4) = (   0.2500000   0.1250000  -0.1250000), wk =   0.1250000
        k(    5) = (   0.2500000   0.3750000   0.1250000), wk =   0.1250000
        k(    6) = (   0.2500000   0.3750000   0.3750000), wk =   0.1250000
        k(    7) = (   0.2500000   0.3750000  -0.3750000), wk =   0.1250000
        k(    8) = (   0.2500000   0.3750000  -0.1250000), wk =   0.1250000
        k(    9) = (  -0.2500000   0.1250000  -0.1250000), wk =   0.1250000
        k(   10) = (  -0.2500000   0.1250000  -0.3750000), wk =   0.1250000
        k(   11) = (  -0.2500000   0.1250000   0.3750000), wk =   0.1250000
        k(   12) = (  -0.2500000   0.1250000   0.1250000), wk =   0.1250000
        k(   13) = (  -0.2500000   0.3750000  -0.1250000), wk =   0.1250000
        k(   14) = (  -0.2500000   0.3750000  -0.3750000), wk =   0.1250000
        k(   15) = (  -0.2500000   0.3750000   0.3750000), wk =   0.1250000
        k(   16) = (  -0.2500000   0.3750000   0.1250000), wk =   0.1250000

     Dense  grid:  1155489 G-vectors     FFT dimensions: ( 288, 120,  80)

     Smooth grid:   292295 G-vectors     FFT dimensions: ( 180,  72,  50)

     Estimated max dynamical RAM per process >     147.21MB

     Estimated total allocated dynamical RAM >    4710.62MB

     Initial potential from superposition of free atoms

     starting charge   83.99939, renormalised to   84.00000
     Starting wfc are   72 randomized atomic wfcs
     Checking if some PAW data can be deallocated... 
       node    0, deallocated PAW data for type:  1
       node    0, deallocated PAW data for type:  3
       node    1, deallocated PAW data for type:  1
       node    1, deallocated PAW data for type:  3
       node    2, deallocated PAW data for type:  2
       node    2, deallocated PAW data for type:  3
       node    3, deallocated PAW data for type:  2
       node    3, deallocated PAW data for type:  3
       node    4, deallocated PAW data for type:  2
       node    4, deallocated PAW data for type:  3
       node    5, deallocated PAW data for type:  2
       node    5, deallocated PAW data for type:  3
       node    6, deallocated PAW data for type:  1
       node    6, deallocated PAW data for type:  2
       node    7, deallocated PAW data for type:  1
       node    7, deallocated PAW data for type:  2
       node    8, deallocated PAW data for type:  2
       node    8, deallocated PAW data for type:  3
       node    9, deallocated PAW data for type:  2
       node    9, deallocated PAW data for type:  3
       node   10, deallocated PAW data for type:  1
       node   10, deallocated PAW data for type:  2
       node   11, deallocated PAW data for type:  1
       node   11, deallocated PAW data for type:  2
       node   12, deallocated PAW data for type:  1
       node   12, deallocated PAW data for type:  2
       node   13, deallocated PAW data for type:  1
       node   13, deallocated PAW data for type:  2
       node   14, deallocated PAW data for type:  2
       node   14, deallocated PAW data for type:  3
       node   15, deallocated PAW data for type:  2
       node   15, deallocated PAW data for type:  3
       node   16, deallocated PAW data for type:  1
       node   16, deallocated PAW data for type:  2
       node   17, deallocated PAW data for type:  2
       node   17, deallocated PAW data for type:  3
       node   18, deallocated PAW data for type:  2
       node   18, deallocated PAW data for type:  3
       node   19, deallocated PAW data for type:  1
       node   19, deallocated PAW data for type:  3
       node   20, deallocated PAW data for type:  1
       node   20, deallocated PAW data for type:  2
       node   21, deallocated PAW data for type:  2
       node   21, deallocated PAW data for type:  3
       node   22, deallocated PAW data for type:  1
       node   22, deallocated PAW data for type:  2
       node   23, deallocated PAW data for type:  2
       node   23, deallocated PAW data for type:  3
       node   24, deallocated PAW data for type:  2
       node   24, deallocated PAW data for type:  3
       node   25, deallocated PAW data for type:  1
       node   25, deallocated PAW data for type:  3
       node   26, deallocated PAW data for type:  1
       node   26, deallocated PAW data for type:  2
       node   27, deallocated PAW data for type:  2
       node   27, deallocated PAW data for type:  3
       node   28, deallocated PAW data for type:  1
       node   28, deallocated PAW data for type:  2
       node   29, deallocated PAW data for type:  2
       node   29, deallocated PAW data for type:  3
       node   30, deallocated PAW data for type:  2
       node   30, deallocated PAW data for type:  3
       node   31, deallocated PAW data for type:  1
       node   31, deallocated PAW data for type:  3

     total cpu time spent up to now is        5.4 secs

     per-process dynamical memory:    20.7 Mb

     Self-consistent Calculation

     iteration #  1     ecut=   100.00 Ry     beta= 0.70
     Davidson diagonalization with overlap
     ethr =  1.00E-04,  avg # of iterations =  5.0

     total cpu time spent up to now is       12.1 secs

     total energy              =    -547.15233650 Ry
     Harris-Foulkes estimate   =    -548.98615262 Ry
     estimated scf accuracy    <       2.69313065 Ry

     iteration #  2     ecut=   100.00 Ry     beta= 0.70
     Davidson diagonalization with overlap
     ethr =  3.21E-03,  avg # of iterations =  3.0

     total cpu time spent up to now is       17.0 secs

     total energy              =    -547.54559904 Ry
     Harris-Foulkes estimate   =    -548.60316518 Ry
     estimated scf accuracy    <       1.90773773 Ry

     iteration #  3     ecut=   100.00 Ry     beta= 0.70
     Davidson diagonalization with overlap
     ethr =  2.27E-03,  avg # of iterations =  3.0

     total cpu time spent up to now is       21.3 secs

     total energy              =    -548.02119278 Ry
     Harris-Foulkes estimate   =    -548.06180809 Ry
     estimated scf accuracy    <       0.08199490 Ry

     iteration #  4     ecut=   100.00 Ry     beta= 0.70
     Davidson diagonalization with overlap
     ethr =  9.76E-05,  avg # of iterations =  3.9

     total cpu time spent up to now is       26.1 secs

     total energy              =    -548.04756914 Ry
     Harris-Foulkes estimate   =    -548.05797380 Ry
     estimated scf accuracy    <       0.02072375 Ry

     iteration #  5     ecut=   100.00 Ry     beta= 0.70
     Davidson diagonalization with overlap
     ethr =  2.47E-05,  avg # of iterations =  3.0

     total cpu time spent up to now is       30.5 secs

     total energy              =    -548.05182866 Ry
     Harris-Foulkes estimate   =    -548.05222508 Ry
     estimated scf accuracy    <       0.00084862 Ry

     iteration #  6     ecut=   100.00 Ry     beta= 0.70
     Davidson diagonalization with overlap
     ethr =  1.01E-06,  avg # of iterations =  4.0

     total cpu time spent up to now is       35.4 secs

     total energy              =    -548.05204612 Ry
     Harris-Foulkes estimate   =    -548.05218453 Ry
     estimated scf accuracy    <       0.00026737 Ry

     iteration #  7     ecut=   100.00 Ry     beta= 0.70
     Davidson diagonalization with overlap
     ethr =  3.18E-07,  avg # of iterations =  4.0

     total cpu time spent up to now is       40.0 secs

     total energy              =    -548.05210399 Ry
     Harris-Foulkes estimate   =    -548.05216523 Ry
     estimated scf accuracy    <       0.00016408 Ry

     iteration #  8     ecut=   100.00 Ry     beta= 0.70
     Davidson diagonalization with overlap
     ethr =  1.95E-07,  avg # of iterations =  4.0

     total cpu time spent up to now is       44.3 secs

     total energy              =    -548.05213395 Ry
     Harris-Foulkes estimate   =    -548.05213998 Ry
     estimated scf accuracy    <       0.00001416 Ry

     iteration #  9     ecut=   100.00 Ry     beta= 0.70
     Davidson diagonalization with overlap
     ethr =  1.69E-08,  avg # of iterations =  4.0

     total cpu time spent up to now is       48.8 secs

     total energy              =    -548.05213710 Ry
     Harris-Foulkes estimate   =    -548.05213808 Ry
     estimated scf accuracy    <       0.00000219 Ry

     iteration # 10     ecut=   100.00 Ry     beta= 0.70
     Davidson diagonalization with overlap
     ethr =  2.61E-09,  avg # of iterations =  4.0

     total cpu time spent up to now is       53.5 secs

     total energy              =    -548.05213762 Ry
     Harris-Foulkes estimate   =    -548.05213777 Ry
     estimated scf accuracy    <       0.00000033 Ry

     iteration # 11     ecut=   100.00 Ry     beta= 0.70
     Davidson diagonalization with overlap
     ethr =  3.90E-10,  avg # of iterations =  4.0

     total cpu time spent up to now is       58.0 secs

     End of self-consistent calculation

          k = 0.0169 0.0214 0.0407 ( 36525 PWs)   bands (ev):

   -16.1019 -15.9307 -15.3650 -15.1006 -13.9384 -13.8535 -12.3527 -12.3467
   -11.3014 -11.2001  -8.9879  -8.9791  -8.2589  -8.1575  -6.3717  -6.2702
    -5.3588  -5.2840  -5.0035  -4.7391  -4.2532  -4.1085  -3.9813  -3.8692
    -3.2076  -3.0981  -2.7418  -2.6010  -2.4268  -2.3257  -2.2008  -2.0371
    -1.2656  -1.1068  -1.0091  -0.9367  -0.8652  -0.7246  -0.0398   0.0160
     0.5069   0.7331

     occupation numbers 
     1.0000   1.0000   1.0000   1.0000   1.0000   1.0000   1.0000   1.0000
     1.0000   1.0000   1.0000   1.0000   1.0000   1.0000   1.0000   1.0000
     1.0000   1.0000   1.0000   1.0000   1.0000   1.0000   1.0000   1.0000
     1.0000   1.0000   1.0000   1.0000   1.0000   1.0000   1.0000   1.0000
     1.0000   1.0000   1.0000   1.0000   1.0000   1.0000   1.0000   1.0000
     1.0000   1.0000

          k = 0.0169 0.0214 0.1078 ( 36561 PWs)   bands (ev):

   -16.0310 -15.8435 -15.3171 -15.0511 -13.9253 -13.8336 -12.3337 -12.3212
   -11.3172 -11.1934  -8.9536  -8.9334  -8.1986  -8.1588  -6.3564  -6.3033
    -5.3405  -5.2760  -5.0490  -4.8692  -4.3382  -4.1822  -4.1010  -3.9260
    -3.7459  -3.6718  -2.7981  -2.7024  -2.6176  -2.4536  -2.3480  -2.2460
    -1.3430  -1.1907  -1.0996  -0.9748  -0.8914  -0.7032  -0.3124  -0.2630
     0.6296   0.7379

     occupation numbers 
     1.0000   1.0000   1.0000   1.0000   1.0000   1.0000   1.0000   1.0000
     1.0000   1.0000   1.0000   1.0000   1.0000   1.0000   1.0000   1.0000
     1.0000   1.0000   1.0000   1.0000   1.0000   1.0000   1.0000   1.0000
     1.0000   1.0000   1.0000   1.0000   1.0000   1.0000   1.0000   1.0000
     1.0000   1.0000   1.0000   1.0000   1.0000   1.0000   1.0000   1.0000
     1.0000   1.0000

          k = 0.0169 0.0214-0.0936 ( 36547 PWs)   bands (ev):

   -16.0348 -15.8376 -15.3179 -15.0522 -13.9202 -13.8406 -12.3393 -12.3169
   -11.3100 -11.1976  -8.9751  -8.9116  -8.2153  -8.1365  -6.3625  -6.2984
    -5.3398  -5.2732  -5.0398  -4.8761  -4.3024  -4.1901  -4.1285  -3.9605
    -3.7290  -3.6858  -2.7488  -2.7049  -2.5928  -2.4368  -2.3940  -2.3209
    -1.2728  -1.2070  -1.1054  -1.0030  -0.8765  -0.6960  -0.3102  -0.2577
     0.6294   0.7386

     occupation numbers 
     1.0000   1.0000   1.0000   1.0000   1.0000   1.0000   1.0000   1.0000
     1.0000   1.0000   1.0000   1.0000   1.0000   1.0000   1.0000   1.0000
     1.0000   1.0000   1.0000   1.0000   1.0000   1.0000   1.0000   1.0000
     1.0000   1.0000   1.0000   1.0000   1.0000   1.0000   1.0000   1.0000
     1.0000   1.0000   1.0000   1.0000   1.0000   1.0000   1.0000   1.0000
     1.0000   1.0000

          k = 0.0169 0.0214-0.0265 ( 36551 PWs)   bands (ev):

   -16.1060 -15.9244 -15.3669 -15.1007 -13.9335 -13.8598 -12.3604 -12.3410
   -11.2979 -11.2000  -9.0174  -8.9518  -8.2852  -8.1192  -6.4078  -6.2340
    -5.3653  -5.2813  -5.0401  -4.6996  -4.2327  -4.1480  -3.9707  -3.8401
    -3.2185  -3.1182  -2.7925  -2.5963  -2.3867  -2.3405  -2.2035  -2.0583
    -1.2294  -1.1009  -1.0141  -0.9200  -0.8951  -0.7117  -0.0246   0.0024
     0.5131   0.7312

     occupation numbers 
     1.0000   1.0000   1.0000   1.0000   1.0000   1.0000   1.0000   1.0000
     1.0000   1.0000   1.0000   1.0000   1.0000   1.0000   1.0000   1.0000
     1.0000   1.0000   1.0000   1.0000   1.0000   1.0000   1.0000   1.0000
     1.0000   1.0000   1.0000   1.0000   1.0000   1.0000   1.0000   1.0000
     1.0000   1.0000   1.0000   1.0000   1.0000   1.0000   1.0000   1.0000
     1.0000   1.0000

          k = 0.0169 0.0643 0.0407 ( 36518 PWs)   bands (ev):

   -16.0704 -15.9041 -15.3733 -15.1096 -13.9671 -13.8816 -12.4057 -12.3947
   -11.3139 -11.2196  -8.8867  -8.8543  -8.1714  -8.1010  -6.3293  -6.2828
    -5.2983  -5.2393  -5.1510  -4.9070  -4.4249  -4.2522  -3.9997  -3.9210
    -3.2711  -3.1561  -2.6300  -2.5410  -2.4166  -2.3582  -2.1426  -1.9905
    -1.0837  -0.9971  -0.9525  -0.9050  -0.8520  -0.7720   0.0234   0.0880
     0.5809   0.7580

     occupation numbers 
     1.0000   1.0000   1.0000   1.0000   1.0000   1.0000   1.0000   1.0000
     1.0000   1.0000   1.0000   1.0000   1.0000   1.0000   1.0000   1.0000
     1.0000   1.0000   1.0000   1.0000   1.0000   1.0000   1.0000   1.0000
     1.0000   1.0000   1.0000   1.0000   1.0000   1.0000   1.0000   1.0000
     1.0000   1.0000   1.0000   1.0000   1.0000   1.0000   1.0000   1.0000
     1.0000   1.0000

          k = 0.0169 0.0643 0.1078 ( 36558 PWs)   bands (ev):

   -16.0083 -15.8270 -15.3201 -15.0530 -13.9367 -13.8547 -12.3645 -12.3566
   -11.3355 -11.2204  -8.9081  -8.8655  -8.1904  -8.1333  -6.3229  -6.2863
    -5.3024  -5.2595  -5.0465  -4.8120  -4.3734  -4.2136  -4.0648  -3.9653
    -3.8770  -3.8096  -2.7631  -2.6695  -2.5830  -2.4753  -2.3583  -2.2858
    -1.2672  -1.1396  -1.0683  -0.9993  -0.9216  -0.7972  -0.1400  -0.1020
     0.6778   0.7566

     occupation numbers 
     1.0000   1.0000   1.0000   1.0000   1.0000   1.0000   1.0000   1.0000
     1.0000   1.0000   1.0000   1.0000   1.0000   1.0000   1.0000   1.0000
[...]
      -> PAW hartree energy PS =     -19.34811569 Ry
      -> PAW xc energy AE      =     -55.70947913 Ry
      -> PAW xc energy PS      =      10.16150248 Ry
      -> total E_H with PAW    =     106.52430914 Ry
      -> total E_XC with PAW   =    -149.71039544 Ry

     convergence has been achieved in  11 iterations
 writing file ./scratch/scf-1071.save/charge-density
 writing file ./scratch/scf-1071.save/charge-density
 writing file ./scratch/scf-1071.save/charge-density
 writing file ./scratch/scf-1071.save/charge-density
 writing file ./scratch/scf-1071.save/charge-density
 writing file ./scratch/scf-1071.save/charge-density
 writing file ./scratch/scf-1071.save/charge-density
 writing file ./scratch/scf-1071.save/charge-density
 writing file ./scratch/scf-1071.save/charge-density
 writing file ./scratch/scf-1071.save/charge-density
 writing file ./scratch/scf-1071.save/charge-density
 writing file ./scratch/scf-1071.save/charge-density
 writing file ./scratch/scf-1071.save/charge-density
 writing file ./scratch/scf-1071.save/charge-density
 writing file ./scratch/scf-1071.save/charge-density
 writing file ./scratch/scf-1071.save/charge-density
 writing file ./scratch/scf-1071.save/charge-density
 writing file ./scratch/scf-1071.save/charge-density
 writing file ./scratch/scf-1071.save/charge-density
 writing file ./scratch/scf-1071.save/charge-density
 writing file ./scratch/scf-1071.save/charge-density
 writing file ./scratch/scf-1071.save/charge-density
 writing file ./scratch/scf-1071.save/charge-density
 writing file ./scratch/scf-1071.save/charge-density
 writing file ./scratch/scf-1071.save/charge-density
 writing file ./scratch/scf-1071.save/charge-density
 writing file ./scratch/scf-1071.save/charge-density
 writing file ./scratch/scf-1071.save/charge-density
 writing file ./scratch/scf-1071.save/charge-density
 writing file ./scratch/scf-1071.save/charge-density
 writing file ./scratch/scf-1071.save/charge-density
 writing file ./scratch/scf-1071.save/charge-density

     Forces acting on atoms (cartesian axes, Ry/au):

     atom    1 type  2   force =     0.03618459   -0.00759333    0.01018797
     atom    2 type  1   force =    -0.02632178    0.00305401   -0.01798421
     atom    3 type  1   force =     0.02256228   -0.01471788    0.02591651
     atom    4 type  3   force =     0.00239316    0.00746085   -0.00087406
     atom    5 type  1   force =     0.00503486   -0.00804272   -0.02938317
     atom    6 type  3   force =    -0.00462437   -0.00286859    0.00310758
     atom    7 type  3   force =     0.00033142   -0.00063564   -0.00261074
     atom    8 type  1   force =     0.00038072    0.00560936    0.01302508
     atom    9 type  3   force =    -0.00068435    0.00215663    0.00145170
     atom   10 type  1   force =    -0.01162213   -0.01302956   -0.00954639
     atom   11 type  1   force =    -0.02519119   -0.01614151    0.02230928
     atom   12 type  2   force =     0.03709045    0.03056560   -0.01269852
     atom   13 type  3   force =     0.00304114    0.00188645    0.00115443
     atom   14 type  1   force =    -0.02272967    0.03048439    0.00470850
     atom   15 type  3   force =     0.00169169   -0.00005940   -0.00039598
     atom   16 type  1   force =    -0.01299493    0.02463028    0.00311699
     atom   17 type  1   force =    -0.01846669   -0.01752466    0.00956005
     atom   18 type  2   force =     0.02497501   -0.01217567   -0.00363736
     atom   19 type  3   force =    -0.00145058    0.00216355    0.00316740
     atom   20 type  1   force =     0.00185443   -0.00755862   -0.01657128
     atom   21 type  3   force =     0.00082184   -0.00367992   -0.00307851
     atom   22 type  1   force =    -0.00885527    0.00666433    0.01741034
     atom   23 type  1   force =     0.01984421   -0.01432922   -0.01769988
     atom   24 type  2   force =    -0.02326485    0.00368123   -0.00063574
     The non-local contrib.  to forces
     atom    1 type  2   force =    -0.30061436    0.25830340    0.02055992
     atom    2 type  1   force =     0.38049296   -0.27263991   -0.02252307
     atom    3 type  1   force =    -0.01624475   -0.07543595   -0.00219279
     atom    4 type  3   force =    -0.06518621   -0.02116510   -0.03810908
     atom    5 type  1   force =    -0.00721024   -0.04061861   -0.07946265
     atom    6 type  3   force =    -0.00491998   -0.07087270   -0.03402618
     atom    7 type  3   force =     0.00308968   -0.06875158    0.03832085
     atom    8 type  1   force =     0.01915074   -0.03354683    0.07137004
     atom    9 type  3   force =     0.06521346   -0.02111815    0.03885117
     atom   10 type  1   force =     0.03704953   -0.07155178    0.02486125
     atom   11 type  1   force =    -0.43789040   -0.29121302    0.06120235
     atom   12 type  2   force =     0.31552689    0.23406746   -0.04216650
     atom   13 type  3   force =     0.00399665    0.07060346    0.03440808
     atom   14 type  1   force =    -0.00839705    0.06308764    0.03222353
     atom   15 type  3   force =     0.06631872    0.02411816    0.03567962
     atom   16 type  1   force =     0.03259224    0.10415691    0.04287947
     atom   17 type  1   force =    -0.43501720    0.24775361    0.01943663
     atom   18 type  2   force =     0.33404788   -0.22007270   -0.01506631
     atom   19 type  3   force =    -0.00361263    0.06922910   -0.03693473
     atom   20 type  1   force =    -0.02729921    0.02197318   -0.06883302
     atom   21 type  3   force =    -0.06535022    0.02133228   -0.03907746
     atom   22 type  1   force =    -0.06526650    0.05571709   -0.00369004
     atom   23 type  1   force =     0.42371039    0.24645748   -0.05912174
     atom   24 type  2   force =    -0.34699641   -0.20474887    0.02141705
     The ionic contribution  to forces
     atom    1 type  2   force =     7.06121043   -3.82489036    0.90721689
     atom    2 type  1   force =     3.12077077   -1.10769119    0.91900982
     atom    3 type  1   force =     5.04565161    2.26051716    2.43177212
     atom    4 type  3   force =     2.23689610    0.79306146    1.31259195
     atom    5 type  1   force =     1.50860815    4.04437098    2.81328934
     atom    6 type  3   force =     0.44662207    1.95134951    1.22255345
     atom    7 type  3   force =    -0.45333431    1.98821354   -1.27845813
     atom    8 type  1   force =    -1.69439391    4.17812856   -2.71866448
     atom    9 type  3   force =    -2.15413990    0.83250275   -1.25780562
     atom   10 type  1   force =    -5.01795303    2.09921234   -2.60279191
     atom   11 type  1   force =    -3.38378788   -1.89912663   -0.90402045
     atom   12 type  2   force =    -6.27001707   -3.93919805   -0.77602474
     atom   13 type  3   force =    -0.09668216   -1.99113768   -1.07306483
     atom   14 type  1   force =    -0.27190794   -4.17538369   -1.80377962
     atom   15 type  3   force =    -1.81130320   -0.86699098   -1.01033721
     atom   16 type  1   force =    -3.32574814   -1.92544176   -1.91672165
     atom   17 type  1   force =    -1.70676192    1.68438728   -0.47448027
     atom   18 type  2   force =    -4.62243069    3.75938653   -0.09968638
     atom   19 type  3   force =     0.08448685   -2.01226986    1.09215018
     atom   20 type  1   force =     0.08397571   -4.10451988    2.11889548
     atom   21 type  3   force =     1.88978058   -0.76391422    1.09831404
     atom   22 type  1   force =     3.52523225   -2.19012057    1.86424585
     atom   23 type  1   force =     1.45124815    1.98204137    0.29355809
     atom   24 type  2   force =     4.35397745    3.22751336   -0.15776192
     The local contribution  to forces
     atom    1 type  2   force =    -6.73501217    3.56894976   -0.91650089
     atom    2 type  1   force =    -3.51784177    1.37686837   -0.91446437
     atom    3 type  1   force =    -5.00543004   -2.19997056   -2.40323980
     atom    4 type  3   force =    -2.16932127   -0.76443837   -1.27535970
     atom    5 type  1   force =    -1.49641423   -4.01046549   -2.76282320
     atom    6 type  3   force =    -0.44631730   -1.88333850   -1.18541609
     atom    7 type  3   force =     0.45059050   -1.92009645    1.23753556
     atom    8 type  1   force =     1.67583136   -4.13772952    2.66016738
     atom    9 type  3   force =     2.08824492   -0.80922466    1.22040652
     atom   10 type  1   force =     4.96820756   -2.04094519    2.56796872
     atom   11 type  1   force =     3.78485236    2.16606983    0.86607154
     atom   12 type  2   force =     6.00617989    3.74655983    0.80332784
     atom   13 type  3   force =     0.09572516    1.92241981    1.03981145
     atom   14 type  1   force =     0.25725702    4.14154405    1.77568762
     atom   15 type  3   force =     1.74665600    0.84280346    0.97425127
     atom   16 type  1   force =     3.27911679    1.84722572    1.87691931
     atom   17 type  1   force =     2.11202374   -1.94306568    0.46420648
     atom   18 type  2   force =     4.32771470   -3.56083596    0.11030293
     atom   19 type  3   force =    -0.08231816    1.94522178   -1.05205266
     atom   20 type  1   force =    -0.05515929    4.07361443   -2.06623643
     atom   21 type  3   force =    -1.82363048    0.73890655   -1.06232491
     atom   22 type  1   force =    -3.46807041    2.14092079   -1.84251589
     atom   23 type  1   force =    -1.84445102   -2.23574849   -0.25290514
     atom   24 type  2   force =    -4.04491487   -3.02752516    0.13650264
     The core correction contribution to forces
     atom    1 type  2   force =     0.01061874   -0.00993957   -0.00105109
     atom    2 type  1   force =    -0.00969387    0.00651341    0.00002034
     atom    3 type  1   force =    -0.00133998    0.00018159   -0.00039344
     atom    4 type  3   force =     0.00000000    0.00000000    0.00000000
     atom    5 type  1   force =     0.00014374   -0.00128733   -0.00034478
     atom    6 type  3   force =     0.00000000    0.00000000    0.00000000
     atom    7 type  3   force =     0.00000000    0.00000000    0.00000000
     atom    8 type  1   force =    -0.00012653   -0.00123683    0.00018383
     atom    9 type  3   force =     0.00000000    0.00000000    0.00000000
     atom   10 type  1   force =     0.00114091    0.00024601    0.00044790
     atom   11 type  1   force =     0.01173752    0.00809519   -0.00088973
     atom   12 type  2   force =    -0.01447872   -0.01085524    0.00219207
     atom   13 type  3   force =     0.00000000    0.00000000    0.00000000
     atom   14 type  1   force =     0.00033489    0.00117298    0.00056777
     atom   15 type  3   force =     0.00000000    0.00000000    0.00000000
     atom   16 type  1   force =     0.00098953   -0.00138691   -0.00000564
     atom   17 type  1   force =     0.01126413   -0.00657483    0.00038247
     atom   18 type  2   force =    -0.01457490    0.00945197    0.00072393
     atom   19 type  3   force =     0.00000000    0.00000000    0.00000000
     atom   20 type  1   force =     0.00039585    0.00138805   -0.00038276
     atom   21 type  3   force =     0.00000000    0.00000000    0.00000000
     atom   22 type  1   force =    -0.00076577    0.00012691   -0.00062901
     atom   23 type  1   force =    -0.01064995   -0.00711955    0.00078736
     atom   24 type  2   force =     0.01454742    0.00838286   -0.00080353
     The Hubbard contrib.    to forces
     atom    1 type  2   force =     0.00000000    0.00000000    0.00000000
     atom    2 type  1   force =     0.00000000    0.00000000    0.00000000
     atom    3 type  1   force =     0.00000000    0.00000000    0.00000000
     atom    4 type  3   force =     0.00000000    0.00000000    0.00000000
     atom    5 type  1   force =     0.00000000    0.00000000    0.00000000
     atom    6 type  3   force =     0.00000000    0.00000000    0.00000000
     atom    7 type  3   force =     0.00000000    0.00000000    0.00000000
     atom    8 type  1   force =     0.00000000    0.00000000    0.00000000
     atom    9 type  3   force =     0.00000000    0.00000000    0.00000000
     atom   10 type  1   force =     0.00000000    0.00000000    0.00000000
     atom   11 type  1   force =     0.00000000    0.00000000    0.00000000
     atom   12 type  2   force =     0.00000000    0.00000000    0.00000000
     atom   13 type  3   force =     0.00000000    0.00000000    0.00000000
     atom   14 type  1   force =     0.00000000    0.00000000    0.00000000
     atom   15 type  3   force =     0.00000000    0.00000000    0.00000000
     atom   16 type  1   force =     0.00000000    0.00000000    0.00000000
     atom   17 type  1   force =     0.00000000    0.00000000    0.00000000
     atom   18 type  2   force =     0.00000000    0.00000000    0.00000000
     atom   19 type  3   force =     0.00000000    0.00000000    0.00000000
     atom   20 type  1   force =     0.00000000    0.00000000    0.00000000
     atom   21 type  3   force =     0.00000000    0.00000000    0.00000000
     atom   22 type  1   force =     0.00000000    0.00000000    0.00000000
     atom   23 type  1   force =     0.00000000    0.00000000    0.00000000
     atom   24 type  2   force =     0.00000000    0.00000000    0.00000000
     The SCF correction term to forces
     atom    1 type  2   force =    -0.00001788   -0.00001575   -0.00003625
     atom    2 type  1   force =    -0.00004971    0.00000414   -0.00002630
     atom    3 type  1   force =    -0.00007439   -0.00000930   -0.00002896
     atom    4 type  3   force =     0.00000471    0.00000367    0.00000338
     atom    5 type  1   force =    -0.00009241   -0.00004145   -0.00004126
     atom    6 type  3   force =    -0.00000899   -0.00000608   -0.00000298
     atom    7 type  3   force =    -0.00001429   -0.00000034   -0.00000841
     atom    8 type  1   force =    -0.00008077   -0.00000520   -0.00003107
     atom    9 type  3   force =    -0.00000266   -0.00000249    0.00000024
     atom   10 type  1   force =    -0.00006694    0.00000988   -0.00003172
     atom   11 type  1   force =    -0.00010261    0.00003393   -0.00005381
     atom   12 type  2   force =    -0.00012038   -0.00000758   -0.00002656
     atom   13 type  3   force =     0.00000165    0.00000167    0.00000035
     atom   14 type  1   force =    -0.00001642    0.00006422    0.00000982
     atom   15 type  3   force =     0.00002033    0.00001077    0.00001096
     atom   16 type  1   force =     0.00005482    0.00007712    0.00004612
     atom   17 type  1   force =     0.00002473   -0.00002422    0.00001537
     atom   18 type  2   force =     0.00021819   -0.00010470    0.00008909
     atom   19 type  3   force =    -0.00000648   -0.00001665    0.00000523
     atom   20 type  1   force =    -0.00005847   -0.00001358   -0.00001392
     atom   21 type  3   force =     0.00002213   -0.00000372    0.00001043
     atom   22 type  1   force =     0.00001532    0.00002092    0.00000005
     atom   23 type  1   force =    -0.00001319    0.00004078   -0.00001783
     atom   24 type  2   force =     0.00012173    0.00005985    0.00001064

     Total force =     0.124454     Total SCF correction =     0.000421

     Writing output data file scf-1071.save
 writing file ./scratch/scf-1071.save/charge-density
 writing file ./scratch/scf-1071.save/charge-density
 writing file ./scratch/scf-1071.save/charge-density
 writing file ./scratch/scf-1071.save/charge-density
 writing file ./scratch/scf-1071.save/charge-density
 writing file ./scratch/scf-1071.save/charge-density
 writing file ./scratch/scf-1071.save/charge-density
 writing file ./scratch/scf-1071.save/charge-density
 writing file ./scratch/scf-1071.save/charge-density
 writing file ./scratch/scf-1071.save/charge-density
 writing file ./scratch/scf-1071.save/charge-density
 writing file ./scratch/scf-1071.save/charge-density
 writing file ./scratch/scf-1071.save/charge-density
 writing file ./scratch/scf-1071.save/charge-density
 writing file ./scratch/scf-1071.save/charge-density
 writing file ./scratch/scf-1071.save/charge-density
 writing file ./scratch/scf-1071.save/charge-density
 writing file ./scratch/scf-1071.save/charge-density
 writing file ./scratch/scf-1071.save/charge-density
 writing file ./scratch/scf-1071.save/charge-density
 writing file ./scratch/scf-1071.save/charge-density
 writing file ./scratch/scf-1071.save/charge-density
 writing file ./scratch/scf-1071.save/charge-density
 writing file ./scratch/scf-1071.save/charge-density
 writing file ./scratch/scf-1071.save/charge-density
 writing file ./scratch/scf-1071.save/charge-density
 writing file ./scratch/scf-1071.save/charge-density
 writing file ./scratch/scf-1071.save/charge-density
 writing file ./scratch/scf-1071.save/charge-density
 writing file ./scratch/scf-1071.save/charge-density
 writing file ./scratch/scf-1071.save/charge-density
 writing file ./scratch/scf-1071.save/charge-density
 
     init_run     :      4.45s CPU      4.72s WALL (       1 calls)
     electrons    :     49.96s CPU     52.81s WALL (       1 calls)
     forces       :      3.28s CPU      3.42s WALL (       1 calls)

     Called by init_run:
     wfcinit      :      1.60s CPU      1.63s WALL (       1 calls)
     wfcinit:atom :      0.02s CPU      0.02s WALL (      16 calls)
     wfcinit:wfcr :      1.48s CPU      1.51s WALL (      16 calls)
     potinit      :      0.99s CPU      1.01s WALL (       1 calls)

     Called by electrons:
     c_bands      :     39.01s CPU     39.31s WALL (      11 calls)
     sum_band     :      6.84s CPU      8.04s WALL (      11 calls)
     v_of_rho     :      0.91s CPU      0.97s WALL (      12 calls)
     v_h          :      0.05s CPU      0.06s WALL (      12 calls)
     v_xc         :      0.92s CPU      0.98s WALL (      13 calls)
     newd         :      1.50s CPU      2.84s WALL (      12 calls)
     PAW_pot      :      1.66s CPU      1.70s WALL (      12 calls)
     mix_rho      :      0.14s CPU      0.14s WALL (      11 calls)

     Called by c_bands:
     init_us_2    :      0.90s CPU      0.86s WALL (     384 calls)
     cegterg      :     36.73s CPU     36.93s WALL (     176 calls)

     Called by sum_band:
     sum_band:bec :      0.02s CPU      0.02s WALL (     176 calls)
     addusdens    :      1.54s CPU      2.67s WALL (      11 calls)

     Called by *egterg:
     h_psi        :     27.32s CPU     27.45s WALL (     863 calls)
     s_psi        :      2.02s CPU      2.06s WALL (     863 calls)
     g_psi        :      0.16s CPU      0.16s WALL (     671 calls)
     cdiaghg      :      3.40s CPU      3.44s WALL (     847 calls)
     cegterg:over :      1.66s CPU      1.65s WALL (     671 calls)
     cegterg:upda :      1.22s CPU      1.29s WALL (     671 calls)
     cegterg:last :      0.43s CPU      0.44s WALL (     192 calls)

     Called by h_psi:
     h_psi:pot    :     27.05s CPU     27.17s WALL (     863 calls)
     h_psi:calbec :      2.21s CPU      2.28s WALL (     863 calls)
     vloc_psi     :     22.76s CPU     22.89s WALL (     863 calls)
     add_vuspsi   :      2.08s CPU      2.00s WALL (     863 calls)

     General routines
     calbec       :      2.95s CPU      3.03s WALL (    1103 calls)
     fft          :      0.82s CPU      0.88s WALL (     199 calls)
     ffts         :      0.03s CPU      0.03s WALL (      23 calls)
     fftw         :     21.06s CPU     21.24s WALL (   55730 calls)
     interpolate  :      0.16s CPU      0.15s WALL (      23 calls)
     davcio       :      0.00s CPU      0.16s WALL (      16 calls)
 
     Parallel routines
     fft_scatter  :      7.13s CPU      7.49s WALL (   55952 calls)

     PAW routines
     PAW_pot      :      1.66s CPU      1.70s WALL (      12 calls)
 
     PWSCF        :  0m58.48s CPU     1m 2.54s WALL

 
   This run was terminated on:  16:29:17  20May2017            

=------------------------------------------------------------------------------=
   JOB DONE.
=------------------------------------------------------------------------------=
