
     Program PWSCF v.6.1 starts on 20May2017 at 13: 3:10 

     This program is part of the open-source Quantum ESPRESSO suite
     for quantum simulation of materials; please cite
         "P. Giannozzi et al., J. Phys.:Condens. Matter 21 395502 (2009);
          URL http://www.quantum-espresso.org", 
     in publications or presentations arising from this work. More details at
     http://www.quantum-espresso.org/quote

     Parallel version (MPI & OpenMP), running on      32 processor cores
     Number of MPI processes:                32
     Threads/MPI process:                     1
     R & G space division:  proc/nbgrp/npool/nimage =      32
     Waiting for input...
     Reading input from standard input
Warning: card &IONS ignored
Warning: card     ION_TEMPERATURE   = 'INITIAL' ignored
Warning: card     TEMPW             = 586.D0 ignored
Warning: card     TOLP              = 100.D0 ignored
Warning: card     DELTA_T           = 1.D0 ignored
Warning: card     NRAISE            = 1 ignored
Warning: card / ignored
Warning: card &CELL ignored
Warning: card     CELL_DYNAMICS     = 'BFGS' ignored
Warning: card / ignored

     Current dimensions of program PWSCF are:
     Max number of different atomic species (ntypx) = 10
     Max number of k-points (npk) =  40000
     Max angular momentum in pseudopotentials (lmaxx) =  3
               file C.pbe-n-kjpaw_psl.1.0.0.UPF: wavefunction(s)  2S 2P renormalized
               file Cl.pbe-n-kjpaw_psl.1.0.0.UPF: wavefunction(s)  3S 3P renormalized
               file H.pbe-kjpaw_psl.1.0.0.UPF: wavefunction(s)  1S renormalized

     Subspace diagonalization in iterative solution of the eigenvalue problem:
     a serial algorithm will be used

 
     Parallelization info
     --------------------
     sticks:   dense  smooth     PW     G-vecs:    dense   smooth      PW
     Min         764     305     83                36108     9133    1292
     Max         765     306     84                36110     9135    1293
     Sum       24467    9791   2657              1155489   292295   41363
 


     bravais-lattice index     =            0
     lattice parameter (alat)  =       1.8897  a.u.
     unit-cell volume          =    2163.5316 (a.u.)^3
     number of atoms/cell      =           24
     number of atomic types    =            3
     number of electrons       =        84.00
     number of Kohn-Sham states=           42
     kinetic-energy cutoff     =     100.0000  Ry
     charge density cutoff     =    1000.0000  Ry
     convergence threshold     =      1.0E-07
     mixing beta               =       0.7000
     number of iterations used =            8  plain     mixing
     Exchange-correlation      =  SLA  PW   PBX  PBC ( 1  4  3  4 0 0)

     celldm(1)=   1.889726  celldm(2)=   0.000000  celldm(3)=   0.000000
     celldm(4)=   0.000000  celldm(5)=   0.000000  celldm(6)=   0.000000

     crystal axes: (cart. coord. in units of alat)
               a(1) = (  14.762000   0.000000   0.000000 )  
               a(2) = (   0.000000   5.832000   0.000000 )  
               a(3) = (  -1.563876   0.000000   3.723951 )  

     reciprocal axes: (cart. coord. in units 2 pi/alat)
               b(1) = (  0.067741  0.000000  0.028448 )  
               b(2) = (  0.000000  0.171468  0.000000 )  
               b(3) = (  0.000000  0.000000  0.268532 )  


     PseudoPot. # 1 for  C read from file:
     /global/cscratch1/sd/almno10/.data/PSEUDOPOTENTIALS/C.pbe-n-kjpaw_psl.1.0.0.UPF
     MD5 check sum: 2ba8448e293caca687844dde9a1b88a8
     Pseudo is Projector augmented-wave + core cor, Zval =  4.0
     Generated using "atomic" code by A. Dal Corso  v.5.3.0 svn rev. 11974
     Shape of augmentation charge: PSQ
     Using radial grid of 1073 points,  4 beta functions with: 
                l(1) =   0
                l(2) =   0
                l(3) =   1
                l(4) =   1
     Q(r) pseudized with 0 coefficients 


     PseudoPot. # 2 for Cl read from file:
     /global/cscratch1/sd/almno10/.data/PSEUDOPOTENTIALS/Cl.pbe-n-kjpaw_psl.1.0.0.UPF
     MD5 check sum: dca63699d6b897c5771335df08a09219
     Pseudo is Projector augmented-wave + core cor, Zval =  7.0
     Generated using "atomic" code by A. Dal Corso  v.5.3.0 svn rev. 11974
     Shape of augmentation charge: PSQ
     Using radial grid of 1157 points,  6 beta functions with: 
                l(1) =   0
                l(2) =   0
                l(3) =   1
                l(4) =   1
                l(5) =   2
                l(6) =   2
     Q(r) pseudized with 0 coefficients 


     PseudoPot. # 3 for  H read from file:
     /global/cscratch1/sd/almno10/.data/PSEUDOPOTENTIALS/H.pbe-kjpaw_psl.1.0.0.UPF
     MD5 check sum: bc0feb48a24907a0b97fa6ee2d589a29
     Pseudo is Projector augmented-wave, Zval =  1.0
     Generated using "atomic" code by A. Dal Corso  v.5.3.0 svn rev. 11974
     Shape of augmentation charge: PSQ
     Using radial grid of  929 points,  2 beta functions with: 
                l(1) =   0
                l(2) =   0
     Q(r) pseudized with 0 coefficients 


     atomic species   valence    mass     pseudopotential
        C              4.00    12.01100      C( 1.00)
        Cl             7.00    35.45270     Cl( 1.00)
        H              1.00     1.00790      H( 1.00)

     No symmetry found


                                    s                        frac. trans.

      isym =  1     identity                                     

 cryst.   s( 1) = (     1          0          0      )
                  (     0          1          0      )
                  (     0          0          1      )

 cart.    s( 1) = (  1.0000000  0.0000000 -0.0000000 )
                  (  0.0000000  1.0000000  0.0000000 )
                  (  0.0000000  0.0000000  1.0000000 )


   Cartesian axes

     site n.     atom                  positions (alat units)
         1           Cl  tau(   1) = (  16.5084774   0.6024596   1.9744683  )
         2           C   tau(   2) = (  15.1197112   1.8473381   1.9536555  )
         3           C   tau(   3) = (  15.1634920   3.0479921   2.6609165  )
         4           H   tau(   4) = (  16.0495041   3.3271458   3.2290119  )
         5           C   tau(   5) = (  14.0565816   3.8946140   2.6353385  )
         6           H   tau(   6) = (  14.0779998   4.8320621   3.1889130  )
         7           H   tau(   7) = (   6.5423363   2.4356386   0.6268658  )
         8           C   tau(   8) = (   6.5014875   1.4953156   1.1717697  )
         9           H   tau(   9) = (   4.5167500   1.0069501   0.4826795  )
        10           C   tau(  10) = (   5.3821072   0.6710041   1.0522076  )
        11           C   tau(  11) = (   5.3801153  -0.5280452   1.7648255  )
        12           Cl  tau(  12) = (   4.1236134  -1.6429198   1.7794732  )
        13           H   tau(  13) = (  13.9975527   0.5761169   0.6120170  )
        14           C   tau(  14) = (  14.0000443   1.4898954   1.2029473  )
        15           H   tau(  15) = (  12.0293087   2.0854166   0.5662971  )
        16           C   tau(  16) = (  12.9055512   2.3523140   1.1526829  )
        17           C   tau(  17) = (  12.9261773   3.5223211   1.9091675  )
        18           Cl  tau(  18) = (  11.5816907   4.5644677   1.8109515  )
        19           H   tau(  19) = (   6.4195347  -1.8305445   3.1230109  )
        20           C   tau(  20) = (   6.4669272  -0.9020697   2.5560562  )
        21           H   tau(  21) = (   8.4433561  -0.4046492   3.2516886  )
        22           C   tau(  22) = (   7.6058994  -0.1031496   2.6272137  )
        23           C   tau(  23) = (   7.6192564   1.0790015   1.8912220  )
        24           Cl  tau(  24) = (   9.0689886   2.1721082   1.7983829  )

   Crystallographic axes

     site n.     atom                  positions (cryst. coord.)
         1           Cl  tau(   1) = (  1.1744788  0.1033024  0.5302079  )
         2           C   tau(   2) = (  1.0798096  0.3167589  0.5246190  )
         3           C   tau(   3) = (  1.1028956  0.5226324  0.7145411  )
         4           H   tau(   4) = (  1.1790767  0.5704983  0.8670929  )
         5           C   tau(   5) = (  1.0271842  0.6678008  0.7076726  )
         6           H   tau(   6) = (  1.0443833  0.8285429  0.8563251  )
         7           H   tau(   7) = (  0.4610208  0.4176335  0.1683335  )
         8           C   tau(   8) = (  0.4737551  0.2563984  0.3146576  )
         9           H   tau(   9) = (  0.3197027  0.1726595  0.1296149  )
        10           C   tau(  10) = (  0.3945253  0.1150556  0.2825514  )
        11           C   tau(  11) = (  0.4146630 -0.0905427  0.4739121  )
        12           Cl  tau(  12) = (  0.3299624 -0.2817078  0.4778455  )
        13           H   tau(  13) = (  0.9656259  0.0987855  0.1643461  )
        14           C   tau(  14) = (  0.9826055  0.2554690  0.3230298  )
        15           H   tau(  15) = (  0.8309935  0.3575817  0.1520689  )
        16           C   tau(  16) = (  0.9070330  0.4033460  0.3095322  )
        17           C   tau(  17) = (  0.9299508  0.6039645  0.5126725  )
        18           Cl  tau(  18) = (  0.8360792  0.7826591  0.4862984  )
        19           H   tau(  19) = (  0.5237126 -0.3138794  0.8386283  )
        20           C   tau(  20) = (  0.5107942 -0.1546759  0.6863828  )
        21           H   tau(  21) = (  0.6644699 -0.0693843  0.8731823  )
        22           C   tau(  22) = (  0.5899742 -0.0176868  0.7054909  )
        23           C   tau(  23) = (  0.5699415  0.1850140  0.5078536  )
        24           Cl  tau(  24) = (  0.6655074  0.3724465  0.4829233  )

     number of k points=    16
                       cart. coord. in units 2pi/alat
        k(    1) = (   0.0169354   0.0214335   0.0406785), wk =   0.1250000
        k(    2) = (   0.0169354   0.0214335   0.1078115), wk =   0.1250000
        k(    3) = (   0.0169354   0.0214335  -0.0935875), wk =   0.1250000
        k(    4) = (   0.0169354   0.0214335  -0.0264545), wk =   0.1250000
        k(    5) = (   0.0169354   0.0643004   0.0406785), wk =   0.1250000
        k(    6) = (   0.0169354   0.0643004   0.1078115), wk =   0.1250000
        k(    7) = (   0.0169354   0.0643004  -0.0935875), wk =   0.1250000
        k(    8) = (   0.0169354   0.0643004  -0.0264545), wk =   0.1250000
        k(    9) = (  -0.0169354   0.0214335  -0.0406785), wk =   0.1250000
        k(   10) = (  -0.0169354   0.0214335  -0.1078115), wk =   0.1250000
        k(   11) = (  -0.0169354   0.0214335   0.0935875), wk =   0.1250000
        k(   12) = (  -0.0169354   0.0214335   0.0264545), wk =   0.1250000
        k(   13) = (  -0.0169354   0.0643004  -0.0406785), wk =   0.1250000
        k(   14) = (  -0.0169354   0.0643004  -0.1078115), wk =   0.1250000
        k(   15) = (  -0.0169354   0.0643004   0.0935875), wk =   0.1250000
        k(   16) = (  -0.0169354   0.0643004   0.0264545), wk =   0.1250000

                       cryst. coord.
        k(    1) = (   0.2500000   0.1250000   0.1250000), wk =   0.1250000
        k(    2) = (   0.2500000   0.1250000   0.3750000), wk =   0.1250000
        k(    3) = (   0.2500000   0.1250000  -0.3750000), wk =   0.1250000
        k(    4) = (   0.2500000   0.1250000  -0.1250000), wk =   0.1250000
        k(    5) = (   0.2500000   0.3750000   0.1250000), wk =   0.1250000
        k(    6) = (   0.2500000   0.3750000   0.3750000), wk =   0.1250000
        k(    7) = (   0.2500000   0.3750000  -0.3750000), wk =   0.1250000
        k(    8) = (   0.2500000   0.3750000  -0.1250000), wk =   0.1250000
        k(    9) = (  -0.2500000   0.1250000  -0.1250000), wk =   0.1250000
        k(   10) = (  -0.2500000   0.1250000  -0.3750000), wk =   0.1250000
        k(   11) = (  -0.2500000   0.1250000   0.3750000), wk =   0.1250000
        k(   12) = (  -0.2500000   0.1250000   0.1250000), wk =   0.1250000
        k(   13) = (  -0.2500000   0.3750000  -0.1250000), wk =   0.1250000
        k(   14) = (  -0.2500000   0.3750000  -0.3750000), wk =   0.1250000
        k(   15) = (  -0.2500000   0.3750000   0.3750000), wk =   0.1250000
        k(   16) = (  -0.2500000   0.3750000   0.1250000), wk =   0.1250000

     Dense  grid:  1155489 G-vectors     FFT dimensions: ( 288, 120,  80)

     Smooth grid:   292295 G-vectors     FFT dimensions: ( 180,  72,  50)

     Estimated max dynamical RAM per process >     147.21MB

     Estimated total allocated dynamical RAM >    4710.62MB

     Initial potential from superposition of free atoms

     starting charge   83.99939, renormalised to   84.00000
     Starting wfc are   72 randomized atomic wfcs
     Checking if some PAW data can be deallocated... 
       node    0, deallocated PAW data for type:  1
       node    0, deallocated PAW data for type:  3
       node    1, deallocated PAW data for type:  1
       node    1, deallocated PAW data for type:  3
       node    2, deallocated PAW data for type:  2
       node    2, deallocated PAW data for type:  3
       node    3, deallocated PAW data for type:  2
       node    3, deallocated PAW data for type:  3
       node    4, deallocated PAW data for type:  2
       node    4, deallocated PAW data for type:  3
       node    5, deallocated PAW data for type:  2
       node    5, deallocated PAW data for type:  3
       node    6, deallocated PAW data for type:  1
       node    6, deallocated PAW data for type:  2
       node    7, deallocated PAW data for type:  1
       node    7, deallocated PAW data for type:  2
       node    8, deallocated PAW data for type:  2
       node    8, deallocated PAW data for type:  3
       node    9, deallocated PAW data for type:  2
       node    9, deallocated PAW data for type:  3
       node   10, deallocated PAW data for type:  1
       node   10, deallocated PAW data for type:  2
       node   11, deallocated PAW data for type:  1
       node   11, deallocated PAW data for type:  2
       node   12, deallocated PAW data for type:  1
       node   12, deallocated PAW data for type:  2
       node   13, deallocated PAW data for type:  1
       node   13, deallocated PAW data for type:  2
       node   14, deallocated PAW data for type:  2
       node   14, deallocated PAW data for type:  3
       node   15, deallocated PAW data for type:  2
       node   15, deallocated PAW data for type:  3
       node   16, deallocated PAW data for type:  1
       node   16, deallocated PAW data for type:  2
       node   17, deallocated PAW data for type:  2
       node   17, deallocated PAW data for type:  3
       node   18, deallocated PAW data for type:  2
       node   18, deallocated PAW data for type:  3
       node   19, deallocated PAW data for type:  1
       node   19, deallocated PAW data for type:  3
       node   20, deallocated PAW data for type:  1
       node   20, deallocated PAW data for type:  2
       node   21, deallocated PAW data for type:  2
       node   21, deallocated PAW data for type:  3
       node   22, deallocated PAW data for type:  1
       node   22, deallocated PAW data for type:  2
       node   23, deallocated PAW data for type:  2
       node   23, deallocated PAW data for type:  3
       node   24, deallocated PAW data for type:  2
       node   24, deallocated PAW data for type:  3
       node   25, deallocated PAW data for type:  1
       node   25, deallocated PAW data for type:  3
       node   26, deallocated PAW data for type:  1
       node   26, deallocated PAW data for type:  2
       node   27, deallocated PAW data for type:  2
       node   27, deallocated PAW data for type:  3
       node   28, deallocated PAW data for type:  1
       node   28, deallocated PAW data for type:  2
       node   29, deallocated PAW data for type:  2
       node   29, deallocated PAW data for type:  3
       node   30, deallocated PAW data for type:  2
       node   30, deallocated PAW data for type:  3
       node   31, deallocated PAW data for type:  1
       node   31, deallocated PAW data for type:  3

     total cpu time spent up to now is        5.3 secs

     per-process dynamical memory:    20.7 Mb

     Self-consistent Calculation

     iteration #  1     ecut=   100.00 Ry     beta= 0.70
     Davidson diagonalization with overlap
     ethr =  1.00E-04,  avg # of iterations =  5.0

     total cpu time spent up to now is       12.1 secs

     total energy              =    -547.12092012 Ry
     Harris-Foulkes estimate   =    -548.98655452 Ry
     estimated scf accuracy    <       2.73077289 Ry

     iteration #  2     ecut=   100.00 Ry     beta= 0.70
     Davidson diagonalization with overlap

     Program PWSCF v.6.1 starts on 20May2017 at 13: 3:25 

     This program is part of the open-source Quantum ESPRESSO suite
     for quantum simulation of materials; please cite
         "P. Giannozzi et al., J. Phys.:Condens. Matter 21 395502 (2009);
          URL http://www.quantum-espresso.org", 
     in publications or presentations arising from this work. More details at
     http://www.quantum-espresso.org/quote

     Parallel version (MPI & OpenMP), running on      32 processor cores
     Number of MPI processes:                32
     Threads/MPI process:                     1
     R & G space division:  proc/nbgrp/npool/nimage =      32
     Waiting for input...
     Reading input from standard input
Warning: card &IONS ignored
Warning: card     ION_TEMPERATURE   = 'INITIAL' ignored
Warning: card     TEMPW             = 586.D0 ignored
Warning: card     TOLP              = 100.D0 ignored
Warning: card     DELTA_T           = 1.D0 ignored
Warning: card     NRAISE            = 1 ignored
Warning: card / ignored
Warning: card &CELL ignored
Warning: card     CELL_DYNAMICS     = 'BFGS' ignored
Warning: card / ignored

     Current dimensions of program PWSCF are:
     Max number of different atomic species (ntypx) = 10
     Max number of k-points (npk) =  40000
     Max angular momentum in pseudopotentials (lmaxx) =  3
               file C.pbe-n-kjpaw_psl.1.0.0.UPF: wavefunction(s)  2S 2P renormalized
     ethr =  3.25E-03,  avg # of iterations =  3.0
               file Cl.pbe-n-kjpaw_psl.1.0.0.UPF: wavefunction(s)  3S 3P renormalized
               file H.pbe-kjpaw_psl.1.0.0.UPF: wavefunction(s)  1S renormalized

     Subspace diagonalization in iterative solution of the eigenvalue problem:
     a serial algorithm will be used

 
     Parallelization info
     --------------------
     sticks:   dense  smooth     PW     G-vecs:    dense   smooth      PW
     Min         764     305     83                36108     9133    1292
     Max         765     306     84                36110     9135    1293
     Sum       24467    9791   2657              1155489   292295   41363
 


     bravais-lattice index     =            0
     lattice parameter (alat)  =       1.8897  a.u.
     unit-cell volume          =    2163.5316 (a.u.)^3
     number of atoms/cell      =           24
     number of atomic types    =            3
     number of electrons       =        84.00
     number of Kohn-Sham states=           42
     kinetic-energy cutoff     =     100.0000  Ry
     charge density cutoff     =    1000.0000  Ry
     convergence threshold     =      1.0E-07
     mixing beta               =       0.7000
     number of iterations used =            8  plain     mixing
     Exchange-correlation      =  SLA  PW   PBX  PBC ( 1  4  3  4 0 0)

     celldm(1)=   1.889726  celldm(2)=   0.000000  celldm(3)=   0.000000
     celldm(4)=   0.000000  celldm(5)=   0.000000  celldm(6)=   0.000000

     crystal axes: (cart. coord. in units of alat)
               a(1) = (  14.762000   0.000000   0.000000 )  
               a(2) = (   0.000000   5.832000   0.000000 )  
               a(3) = (  -1.563876   0.000000   3.723951 )  

     reciprocal axes: (cart. coord. in units 2 pi/alat)
               b(1) = (  0.067741  0.000000  0.028448 )  
               b(2) = (  0.000000  0.171468  0.000000 )  
               b(3) = (  0.000000  0.000000  0.268532 )  


     PseudoPot. # 1 for  C read from file:
     /global/cscratch1/sd/almno10/.data/PSEUDOPOTENTIALS/C.pbe-n-kjpaw_psl.1.0.0.UPF
     MD5 check sum: 2ba8448e293caca687844dde9a1b88a8
     Pseudo is Projector augmented-wave + core cor, Zval =  4.0
     Generated using "atomic" code by A. Dal Corso  v.5.3.0 svn rev. 11974
     Shape of augmentation charge: PSQ
     Using radial grid of 1073 points,  4 beta functions with: 
                l(1) =   0
                l(2) =   0
                l(3) =   1
                l(4) =   1
     Q(r) pseudized with 0 coefficients 


     PseudoPot. # 2 for Cl read from file:
     /global/cscratch1/sd/almno10/.data/PSEUDOPOTENTIALS/Cl.pbe-n-kjpaw_psl.1.0.0.UPF
     MD5 check sum: dca63699d6b897c5771335df08a09219
     Pseudo is Projector augmented-wave + core cor, Zval =  7.0
     Generated using "atomic" code by A. Dal Corso  v.5.3.0 svn rev. 11974
     Shape of augmentation charge: PSQ
     Using radial grid of 1157 points,  6 beta functions with: 
                l(1) =   0
                l(2) =   0
                l(3) =   1
                l(4) =   1
                l(5) =   2
                l(6) =   2
     Q(r) pseudized with 0 coefficients 


     PseudoPot. # 3 for  H read from file:
     /global/cscratch1/sd/almno10/.data/PSEUDOPOTENTIALS/H.pbe-kjpaw_psl.1.0.0.UPF
     MD5 check sum: bc0feb48a24907a0b97fa6ee2d589a29
     Pseudo is Projector augmented-wave, Zval =  1.0
     Generated using "atomic" code by A. Dal Corso  v.5.3.0 svn rev. 11974
     Shape of augmentation charge: PSQ
     Using radial grid of  929 points,  2 beta functions with: 
                l(1) =   0
                l(2) =   0
     Q(r) pseudized with 0 coefficients 


     atomic species   valence    mass     pseudopotential
        C              4.00    12.01100      C( 1.00)
        Cl             7.00    35.45270     Cl( 1.00)
        H              1.00     1.00790      H( 1.00)

     No symmetry found


                                    s                        frac. trans.

      isym =  1     identity                                     

 cryst.   s( 1) = (     1          0          0      )
                  (     0          1          0      )
                  (     0          0          1      )

 cart.    s( 1) = (  1.0000000  0.0000000 -0.0000000 )
                  (  0.0000000  1.0000000  0.0000000 )
                  (  0.0000000  0.0000000  1.0000000 )


   Cartesian axes

     site n.     atom                  positions (alat units)
         1           Cl  tau(   1) = (  16.5084774   0.6024596   1.9744683  )
         2           C   tau(   2) = (  15.1197112   1.8473381   1.9536555  )
         3           C   tau(   3) = (  15.1634920   3.0479921   2.6609165  )
         4           H   tau(   4) = (  16.0495041   3.3271458   3.2290119  )
         5           C   tau(   5) = (  14.0565816   3.8946140   2.6353385  )
         6           H   tau(   6) = (  14.0779998   4.8320621   3.1889130  )
         7           H   tau(   7) = (   6.5423363   2.4356386   0.6268658  )
         8           C   tau(   8) = (   6.5014875   1.4953156   1.1717697  )
         9           H   tau(   9) = (   4.5167500   1.0069501   0.4826795  )
        10           C   tau(  10) = (   5.3821072   0.6710041   1.0522076  )
        11           C   tau(  11) = (   5.3801153  -0.5280452   1.7648255  )
        12           Cl  tau(  12) = (   4.1236134  -1.6429198   1.7794732  )
        13           H   tau(  13) = (  13.9975527   0.5761169   0.6120170  )
        14           C   tau(  14) = (  14.0000443   1.4898954   1.2029473  )
        15           H   tau(  15) = (  12.0293087   2.0854166   0.5662971  )
        16           C   tau(  16) = (  12.9055512   2.3523140   1.1526829  )
        17           C   tau(  17) = (  12.9261773   3.5223211   1.9091675  )
        18           Cl  tau(  18) = (  11.5816907   4.5644677   1.8109515  )
        19           H   tau(  19) = (   6.4195347  -1.8305445   3.1230109  )
        20           C   tau(  20) = (   6.4669272  -0.9020697   2.5560562  )
        21           H   tau(  21) = (   8.4433561  -0.4046492   3.2516886  )
        22           C   tau(  22) = (   7.6058994  -0.1031496   2.6272137  )
        23           C   tau(  23) = (   7.6192564   1.0790015   1.8912220  )
        24           Cl  tau(  24) = (   9.0689886   2.1721082   1.7983829  )

   Crystallographic axes

     site n.     atom                  positions (cryst. coord.)
         1           Cl  tau(   1) = (  1.1744788  0.1033024  0.5302079  )
         2           C   tau(   2) = (  1.0798096  0.3167589  0.5246190  )
         3           C   tau(   3) = (  1.1028956  0.5226324  0.7145411  )
         4           H   tau(   4) = (  1.1790767  0.5704983  0.8670929  )
         5           C   tau(   5) = (  1.0271842  0.6678008  0.7076726  )
         6           H   tau(   6) = (  1.0443833  0.8285429  0.8563251  )
         7           H   tau(   7) = (  0.4610208  0.4176335  0.1683335  )
         8           C   tau(   8) = (  0.4737551  0.2563984  0.3146576  )
         9           H   tau(   9) = (  0.3197027  0.1726595  0.1296149  )
        10           C   tau(  10) = (  0.3945253  0.1150556  0.2825514  )
        11           C   tau(  11) = (  0.4146630 -0.0905427  0.4739121  )
        12           Cl  tau(  12) = (  0.3299624 -0.2817078  0.4778455  )
        13           H   tau(  13) = (  0.9656259  0.0987855  0.1643461  )
        14           C   tau(  14) = (  0.9826055  0.2554690  0.3230298  )
        15           H   tau(  15) = (  0.8309935  0.3575817  0.1520689  )
        16           C   tau(  16) = (  0.9070330  0.4033460  0.3095322  )
        17           C   tau(  17) = (  0.9299508  0.6039645  0.5126725  )
        18           Cl  tau(  18) = (  0.8360792  0.7826591  0.4862984  )
        19           H   tau(  19) = (  0.5237126 -0.3138794  0.8386283  )
        20           C   tau(  20) = (  0.5107942 -0.1546759  0.6863828  )
        21           H   tau(  21) = (  0.6644699 -0.0693843  0.8731823  )
        22           C   tau(  22) = (  0.5899742 -0.0176868  0.7054909  )
        23           C   tau(  23) = (  0.5699415  0.1850140  0.5078536  )
        24           Cl  tau(  24) = (  0.6655074  0.3724465  0.4829233  )

     number of k points=    16
                       cart. coord. in units 2pi/alat
        k(    1) = (   0.0169354   0.0214335   0.0406785), wk =   0.1250000
        k(    2) = (   0.0169354   0.0214335   0.1078115), wk =   0.1250000
        k(    3) = (   0.0169354   0.0214335  -0.0935875), wk =   0.1250000
        k(    4) = (   0.0169354   0.0214335  -0.0264545), wk =   0.1250000
        k(    5) = (   0.0169354   0.0643004   0.0406785), wk =   0.1250000
        k(    6) = (   0.0169354   0.0643004   0.1078115), wk =   0.1250000
        k(    7) = (   0.0169354   0.0643004  -0.0935875), wk =   0.1250000
        k(    8) = (   0.0169354   0.0643004  -0.0264545), wk =   0.1250000
        k(    9) = (  -0.0169354   0.0214335  -0.0406785), wk =   0.1250000
        k(   10) = (  -0.0169354   0.0214335  -0.1078115), wk =   0.1250000
        k(   11) = (  -0.0169354   0.0214335   0.0935875), wk =   0.1250000
        k(   12) = (  -0.0169354   0.0214335   0.0264545), wk =   0.1250000
        k(   13) = (  -0.0169354   0.0643004  -0.0406785), wk =   0.1250000
        k(   14) = (  -0.0169354   0.0643004  -0.1078115), wk =   0.1250000
        k(   15) = (  -0.0169354   0.0643004   0.0935875), wk =   0.1250000
        k(   16) = (  -0.0169354   0.0643004   0.0264545), wk =   0.1250000

                       cryst. coord.
        k(    1) = (   0.2500000   0.1250000   0.1250000), wk =   0.1250000
        k(    2) = (   0.2500000   0.1250000   0.3750000), wk =   0.1250000
        k(    3) = (   0.2500000   0.1250000  -0.3750000), wk =   0.1250000
        k(    4) = (   0.2500000   0.1250000  -0.1250000), wk =   0.1250000
        k(    5) = (   0.2500000   0.3750000   0.1250000), wk =   0.1250000
        k(    6) = (   0.2500000   0.3750000   0.3750000), wk =   0.1250000
        k(    7) = (   0.2500000   0.3750000  -0.3750000), wk =   0.1250000
        k(    8) = (   0.2500000   0.3750000  -0.1250000), wk =   0.1250000
        k(    9) = (  -0.2500000   0.1250000  -0.1250000), wk =   0.1250000
        k(   10) = (  -0.2500000   0.1250000  -0.3750000), wk =   0.1250000
        k(   11) = (  -0.2500000   0.1250000   0.3750000), wk =   0.1250000
        k(   12) = (  -0.2500000   0.1250000   0.1250000), wk =   0.1250000
        k(   13) = (  -0.2500000   0.3750000  -0.1250000), wk =   0.1250000
        k(   14) = (  -0.2500000   0.3750000  -0.3750000), wk =   0.1250000
        k(   15) = (  -0.2500000   0.3750000   0.3750000), wk =   0.1250000
        k(   16) = (  -0.2500000   0.3750000   0.1250000), wk =   0.1250000

     Dense  grid:  1155489 G-vectors     FFT dimensions: ( 288, 120,  80)

     Smooth grid:   292295 G-vectors     FFT dimensions: ( 180,  72,  50)

     Estimated max dynamical RAM per process >     147.21MB

     Estimated total allocated dynamical RAM >    4710.62MB

     total cpu time spent up to now is       17.0 secs

     total energy              =    -547.51814425 Ry
     Harris-Foulkes estimate   =    -548.61027239 Ry
     estimated scf accuracy    <       1.97584111 Ry

     iteration #  3     ecut=   100.00 Ry     beta= 0.70
     Davidson diagonalization with overlap

     Initial potential from superposition of free atoms

     starting charge   83.99939, renormalised to   84.00000
     Starting wfc are   72 randomized atomic wfcs
     ethr =  2.35E-03,  avg # of iterations =  3.0
     Checking if some PAW data can be deallocated... 
       node    0, deallocated PAW data for type:  1
       node    0, deallocated PAW data for type:  3
       node    1, deallocated PAW data for type:  1
       node    1, deallocated PAW data for type:  3
       node    2, deallocated PAW data for type:  2
       node    2, deallocated PAW data for type:  3
       node    3, deallocated PAW data for type:  2
       node    3, deallocated PAW data for type:  3
       node    4, deallocated PAW data for type:  2
       node    4, deallocated PAW data for type:  3
       node    5, deallocated PAW data for type:  2
       node    5, deallocated PAW data for type:  3
       node    6, deallocated PAW data for type:  1
       node    6, deallocated PAW data for type:  2
       node    7, deallocated PAW data for type:  1
       node    7, deallocated PAW data for type:  2
       node    8, deallocated PAW data for type:  2
       node    8, deallocated PAW data for type:  3
       node    9, deallocated PAW data for type:  2
       node    9, deallocated PAW data for type:  3
       node   10, deallocated PAW data for type:  1
       node   10, deallocated PAW data for type:  2
       node   11, deallocated PAW data for type:  1
       node   11, deallocated PAW data for type:  2
       node   12, deallocated PAW data for type:  1
       node   12, deallocated PAW data for type:  2
       node   13, deallocated PAW data for type:  1
       node   13, deallocated PAW data for type:  2
       node   14, deallocated PAW data for type:  2
       node   14, deallocated PAW data for type:  3
       node   15, deallocated PAW data for type:  2
       node   15, deallocated PAW data for type:  3
       node   16, deallocated PAW data for type:  1
       node   16, deallocated PAW data for type:  2
       node   17, deallocated PAW data for type:  2
       node   17, deallocated PAW data for type:  3
       node   18, deallocated PAW data for type:  2
       node   18, deallocated PAW data for type:  3
       node   19, deallocated PAW data for type:  1
       node   19, deallocated PAW data for type:  3
       node   20, deallocated PAW data for type:  1
       node   20, deallocated PAW data for type:  2
       node   21, deallocated PAW data for type:  2
       node   21, deallocated PAW data for type:  3
       node   22, deallocated PAW data for type:  1
       node   22, deallocated PAW data for type:  2
       node   23, deallocated PAW data for type:  2
       node   23, deallocated PAW data for type:  3
       node   24, deallocated PAW data for type:  2
       node   24, deallocated PAW data for type:  3
       node   25, deallocated PAW data for type:  1
       node   25, deallocated PAW data for type:  3
       node   26, deallocated PAW data for type:  1
       node   26, deallocated PAW data for type:  2
       node   27, deallocated PAW data for type:  2
       node   27, deallocated PAW data for type:  3
       node   28, deallocated PAW data for type:  1
       node   28, deallocated PAW data for type:  2
       node   29, deallocated PAW data for type:  2
       node   29, deallocated PAW data for type:  3
       node   30, deallocated PAW data for type:  2
       node   30, deallocated PAW data for type:  3
       node   31, deallocated PAW data for type:  1
       node   31, deallocated PAW data for type:  3

     total cpu time spent up to now is        5.4 secs

     per-process dynamical memory:    20.7 Mb

     Self-consistent Calculation

     iteration #  1     ecut=   100.00 Ry     beta= 0.70
     Davidson diagonalization with overlap

     total cpu time spent up to now is       21.4 secs

     total energy              =    -548.00909203 Ry
     Harris-Foulkes estimate   =    -548.05139088 Ry
     estimated scf accuracy    <       0.08513283 Ry

     iteration #  4     ecut=   100.00 Ry     beta= 0.70
     Davidson diagonalization with overlap
     ethr =  1.01E-04,  avg # of iterations =  3.7
     ethr =  1.00E-04,  avg # of iterations =  5.0

     total cpu time spent up to now is       26.3 secs

     total energy              =    -548.03618598 Ry
     Harris-Foulkes estimate   =    -548.04731405 Ry
     estimated scf accuracy    <       0.02221309 Ry

     iteration #  5     ecut=   100.00 Ry     beta= 0.70
     Davidson diagonalization with overlap

     total cpu time spent up to now is       12.0 secs

     total energy              =    -547.12092012 Ry
     Harris-Foulkes estimate   =    -548.98655452 Ry
     estimated scf accuracy    <       2.73077289 Ry

     iteration #  2     ecut=   100.00 Ry     beta= 0.70
     Davidson diagonalization with overlap
     ethr =  2.64E-05,  avg # of iterations =  3.0

     total cpu time spent up to now is       30.7 secs

     total energy              =    -548.04065650 Ry
     Harris-Foulkes estimate   =    -548.04129158 Ry
     estimated scf accuracy    <       0.00126544 Ry

     iteration #  6     ecut=   100.00 Ry     beta= 0.70
     Davidson diagonalization with overlap
     ethr =  3.25E-03,  avg # of iterations =  3.0

     total cpu time spent up to now is       16.9 secs

     total energy              =    -547.51814425 Ry
     Harris-Foulkes estimate   =    -548.61027239 Ry
     estimated scf accuracy    <       1.97584111 Ry

     iteration #  3     ecut=   100.00 Ry     beta= 0.70
     Davidson diagonalization with overlap
     ethr =  1.51E-06,  avg # of iterations =  4.0
     ethr =  2.35E-03,  avg # of iterations =  3.0

     total cpu time spent up to now is       35.7 secs

     total energy              =    -548.04097756 Ry
     Harris-Foulkes estimate   =    -548.04121059 Ry
     estimated scf accuracy    <       0.00048869 Ry

     iteration #  7     ecut=   100.00 Ry     beta= 0.70
     Davidson diagonalization with overlap

     total cpu time spent up to now is       21.3 secs

     total energy              =    -548.00909203 Ry
     Harris-Foulkes estimate   =    -548.05139088 Ry
     estimated scf accuracy    <       0.08513283 Ry

     iteration #  4     ecut=   100.00 Ry     beta= 0.70
     Davidson diagonalization with overlap
     ethr =  5.82E-07,  avg # of iterations =  4.0
     ethr =  1.01E-04,  avg # of iterations =  3.7

     total cpu time spent up to now is       40.3 secs

     total energy              =    -548.04108381 Ry
     Harris-Foulkes estimate   =    -548.04112554 Ry
     estimated scf accuracy    <       0.00009498 Ry

     iteration #  8     ecut=   100.00 Ry     beta= 0.70
     Davidson diagonalization with overlap

     total cpu time spent up to now is       26.0 secs

     total energy              =    -548.03618598 Ry
     Harris-Foulkes estimate   =    -548.04731405 Ry
     estimated scf accuracy    <       0.02221309 Ry

     iteration #  5     ecut=   100.00 Ry     beta= 0.70
     Davidson diagonalization with overlap
     ethr =  1.13E-07,  avg # of iterations =  4.0
     ethr =  2.64E-05,  avg # of iterations =  3.0

     total cpu time spent up to now is       44.9 secs

     total energy              =    -548.04110189 Ry
     Harris-Foulkes estimate   =    -548.04111756 Ry
     estimated scf accuracy    <       0.00003994 Ry

     iteration #  9     ecut=   100.00 Ry     beta= 0.70
     Davidson diagonalization with overlap

     total cpu time spent up to now is       30.4 secs

     total energy              =    -548.04065650 Ry
     Harris-Foulkes estimate   =    -548.04129158 Ry
     estimated scf accuracy    <       0.00126544 Ry

     iteration #  6     ecut=   100.00 Ry     beta= 0.70
     Davidson diagonalization with overlap
     ethr =  4.75E-08,  avg # of iterations =  4.0

     total cpu time spent up to now is       49.3 secs

     total energy              =    -548.04110965 Ry
     Harris-Foulkes estimate   =    -548.04111146 Ry
     estimated scf accuracy    <       0.00000442 Ry

     iteration # 10     ecut=   100.00 Ry     beta= 0.70
     Davidson diagonalization with overlap
     ethr =  1.51E-06,  avg # of iterations =  4.0

     total cpu time spent up to now is       35.3 secs

     total energy              =    -548.04097756 Ry
     Harris-Foulkes estimate   =    -548.04121059 Ry
     estimated scf accuracy    <       0.00048869 Ry

     iteration #  7     ecut=   100.00 Ry     beta= 0.70
     Davidson diagonalization with overlap
     ethr =  5.27E-09,  avg # of iterations =  4.0

     total cpu time spent up to now is       53.9 secs

     total energy              =    -548.04111066 Ry
     Harris-Foulkes estimate   =    -548.04111087 Ry
     estimated scf accuracy    <       0.00000047 Ry

     iteration # 11     ecut=   100.00 Ry     beta= 0.70
     Davidson diagonalization with overlap
     ethr =  5.82E-07,  avg # of iterations =  4.0

     total cpu time spent up to now is       39.9 secs

     total energy              =    -548.04108381 Ry
     Harris-Foulkes estimate   =    -548.04112554 Ry
     estimated scf accuracy    <       0.00009498 Ry

     iteration #  8     ecut=   100.00 Ry     beta= 0.70
     Davidson diagonalization with overlap
     ethr =  5.64E-10,  avg # of iterations =  4.0
     ethr =  1.13E-07,  avg # of iterations =  4.0

     total cpu time spent up to now is       58.6 secs

     End of self-consistent calculation

          k = 0.0169 0.0214 0.0407 ( 36525 PWs)   bands (ev):

   -16.2676 -16.1144 -15.2607 -15.0835 -13.8835 -13.8215 -12.3544 -12.3202
   -11.3143 -11.2280  -8.9917  -8.9540  -8.2334  -8.1813  -6.3555  -6.2922
    -5.3319  -5.2988  -4.9571  -4.8269  -4.2028  -4.0943  -4.0729  -3.8649
    -3.2390  -3.1887  -2.7291  -2.6012  -2.4387  -2.3707  -2.1373  -2.0811
    -1.1539  -1.0771  -0.9967  -0.9640  -0.8640  -0.7343  -0.0507  -0.0189
     0.6058   0.7410

     occupation numbers 
     1.0000   1.0000   1.0000   1.0000   1.0000   1.0000   1.0000   1.0000
     1.0000   1.0000   1.0000   1.0000   1.0000   1.0000   1.0000   1.0000
     1.0000   1.0000   1.0000   1.0000   1.0000   1.0000   1.0000   1.0000
     1.0000   1.0000   1.0000   1.0000   1.0000   1.0000   1.0000   1.0000
     1.0000   1.0000   1.0000   1.0000   1.0000   1.0000   1.0000   1.0000
     1.0000   1.0000

          k = 0.0169 0.0214 0.1078 ( 36561 PWs)   bands (ev):

   -16.1997 -16.0454 -15.2004 -15.0327 -13.8718 -13.7844 -12.3483 -12.3138
   -11.3108 -11.2112  -8.9567  -8.9112  -8.2163  -8.1555  -6.3955  -6.2462
    -5.3354  -5.2906  -5.0105  -4.9436  -4.2991  -4.2033  -4.0757  -4.0249
    -3.7608  -3.6906  -2.8779  -2.6791  -2.5519  -2.3931  -2.3354  -2.2814
    -1.3472  -1.2159  -1.1319  -0.9706  -0.8792  -0.7592  -0.2159  -0.1606
     0.5718   0.7124

     occupation numbers 
     1.0000   1.0000   1.0000   1.0000   1.0000   1.0000   1.0000   1.0000
     1.0000   1.0000   1.0000   1.0000   1.0000   1.0000   1.0000   1.0000
     1.0000   1.0000   1.0000   1.0000   1.0000   1.0000   1.0000   1.0000
     1.0000   1.0000   1.0000   1.0000   1.0000   1.0000   1.0000   1.0000
     1.0000   1.0000   1.0000   1.0000   1.0000   1.0000   1.0000   1.0000
     1.0000   1.0000

          k = 0.0169 0.0214-0.0936 ( 36547 PWs)   bands (ev):

   -16.1975 -16.0477 -15.2033 -15.0300 -13.8673 -13.7883 -12.3410 -12.3218
   -11.3039 -11.2187  -8.9516  -8.9171  -8.2218  -8.1441  -6.3405  -6.3093
    -5.3268  -5.3039  -5.0582  -4.8672  -4.2494  -4.1976  -4.1471  -4.0749
    -3.7588  -3.6930  -2.7654  -2.6171  -2.5792  -2.4747  -2.3557  -2.2932
    -1.2861  -1.2363  -1.1227  -1.0342  -0.8511  -0.7626  -0.2233  -0.1490
     0.5794   0.7008

     occupation numbers 
     1.0000   1.0000   1.0000   1.0000   1.0000   1.0000   1.0000   1.0000
     1.0000   1.0000   1.0000   1.0000   1.0000   1.0000   1.0000   1.0000
     1.0000   1.0000   1.0000   1.0000   1.0000   1.0000   1.0000   1.0000
     1.0000   1.0000   1.0000   1.0000   1.0000   1.0000   1.0000   1.0000
     1.0000   1.0000   1.0000   1.0000   1.0000   1.0000   1.0000   1.0000
     1.0000   1.0000

          k = 0.0169 0.0214-0.0265 ( 36551 PWs)   bands (ev):

   -16.2661 -16.1156 -15.2643 -15.0805 -13.8807 -13.8229 -12.3489 -12.3280
   -11.3132 -11.2277  -9.0016  -8.9500  -8.2755  -8.1208  -6.4172  -6.2333
    -5.3367  -5.3165  -5.0582  -4.6870  -4.2963  -4.0536  -3.9968  -3.9009
    -3.2613  -3.1783  -2.7520  -2.5893  -2.4599  -2.3162  -2.1537  -2.0883
    -1.1654  -1.0853  -1.0045  -0.9392  -0.8613  -0.7350  -0.0518  -0.0160
     0.6167   0.7294

     occupation numbers 
     1.0000   1.0000   1.0000   1.0000   1.0000   1.0000   1.0000   1.0000
     1.0000   1.0000   1.0000   1.0000   1.0000   1.0000   1.0000   1.0000
     1.0000   1.0000   1.0000   1.0000   1.0000   1.0000   1.0000   1.0000
     1.0000   1.0000   1.0000   1.0000   1.0000   1.0000   1.0000   1.0000
     1.0000   1.0000   1.0000   1.0000   1.0000   1.0000   1.0000   1.0000
     1.0000   1.0000

          k = 0.0169 0.0643 0.0407 ( 36518 PWs)   bands (ev):

   -16.2449 -16.0907 -15.2648 -15.0849 -13.9138 -13.8637 -12.3918 -12.3598
   -11.3212 -11.2357  -8.9026  -8.8697  -8.1332  -8.1084  -6.3813  -6.3036
    -5.2994  -5.2725  -5.0094  -4.9485  -4.3569  -4.2333  -4.0835  -3.9590
    -3.3031  -3.2680  -2.6276  -2.5621  -2.4115  -2.3810  -2.0934  -2.0337
    -1.0700  -0.9350  -0.9030  -0.8732  -0.8009  -0.7706  -0.0046   0.0156
     0.6737   0.7594

     occupation numbers 
     1.0000   1.0000   1.0000   1.0000   1.0000   1.0000   1.0000   1.0000
     1.0000   1.0000   1.0000   1.0000   1.0000   1.0000   1.0000   1.0000
     1.0000   1.0000   1.0000   1.0000   1.0000   1.0000   1.0000   1.0000
     1.0000   1.0000   1.0000   1.0000   1.0000   1.0000   1.0000   1.0000
     1.0000   1.0000   1.0000   1.0000   1.0000   1.0000   1.0000   1.0000
     1.0000   1.0000

          k = 0.0169 0.0643 0.1078 ( 36558 PWs)   bands (ev):

   -16.1843 -16.0285 -15.2028 -15.0292 -13.8858 -13.8178 -12.3654 -12.3322
   -11.3207 -11.2336  -8.9201  -8.8849  -8.1849  -8.1452  -6.3710  -6.2992
    -5.3153  -5.2813  -4.9106  -4.8588  -4.2716  -4.2212  -4.1154  -3.9631
    -3.9004  -3.8740  -2.7740  -2.6751  -2.5506  -2.4496  -2.4143  -2.3136
    -1.3310  -1.1351  -0.9932  -0.9758  -0.9081  -0.8005  -0.0640  -0.0169
     0.5837   0.7130

     occupation numbers 
     1.0000   1.0000   1.0000   1.0000   1.0000   1.0000   1.0000   1.0000
     1.0000   1.0000   1.0000   1.0000   1.0000   1.0000   1.0000   1.0000
     1.0000   1.0000   1.0000   1.0000   1.0000   1.0000   1.0000   1.0000
     1.0000   1.0000   1.0000   1.0000   1.0000   1.0000   1.0000   1.0000
     1.0000   1.0000   1.0000   1.0000   1.0000   1.0000   1.0000   1.0000
     1.0000   1.0000

          k = 0.0169 0.0643-0.0936 ( 36547 PWs)   bands (ev):

   -16.1818 -16.0313 -15.2040 -15.0282 -13.8848 -13.8175 -12.3586 -12.3402
   -11.3204 -11.2342  -8.9182  -8.8871  -8.1929  -8.1316  -6.3622  -6.3098
    -5.3191  -5.2955  -4.9594  -4.7843  -4.2682  -4.2332  -4.0943  -4.0385
    -3.8741  -3.8429  -2.7931  -2.6526  -2.5930  -2.5477  -2.3076  -2.2872
    -1.2341  -1.1638  -1.0602  -0.9509  -0.8981  -0.8434  -0.0822   0.0010
     0.5944   0.7070

     occupation numbers 
     1.0000   1.0000   1.0000   1.0000   1.0000   1.0000   1.0000   1.0000
     1.0000   1.0000   1.0000   1.0000   1.0000   1.0000   1.0000   1.0000
     1.0000   1.0000   1.0000   1.0000   1.0000   1.0000   1.0000   1.0000
     1.0000   1.0000   1.0000   1.0000   1.0000   1.0000   1.0000   1.0000
     1.0000   1.0000   1.0000   1.0000   1.0000   1.0000   1.0000   1.0000
     1.0000   1.0000

          k = 0.0169 0.0643-0.0265 ( 36489 PWs)   bands (ev):

   -16.2427 -16.0931 -15.2662 -15.0837 -13.9132 -13.8637 -12.3852 -12.3650
   -11.3240 -11.2368  -8.9024  -8.8674  -8.1559  -8.0728  -6.4312  -6.2869
    -5.2979  -5.2726  -5.0457  -4.8461  -4.3412  -4.1924  -4.1389  -4.0468
    -3.3283  -3.2403  -2.6098  -2.5445  -2.4146  -2.3187  -2.1274  -2.0384
    -1.0773  -1.0165  -0.8965  -0.8519  -0.8116  -0.7203  -0.0187   0.0401
     0.6774   0.7477

     occupation numbers 
     1.0000   1.0000   1.0000   1.0000   1.0000   1.0000   1.0000   1.0000
     1.0000   1.0000   1.0000   1.0000   1.0000   1.0000   1.0000   1.0000
     1.0000   1.0000   1.0000   1.0000   1.0000   1.0000   1.0000   1.0000
     1.0000   1.0000   1.0000   1.0000   1.0000   1.0000   1.0000   1.0000
     1.0000   1.0000   1.0000   1.0000   1.0000   1.0000   1.0000   1.0000
     1.0000   1.0000

          k =-0.0169 0.0214-0.0407 ( 36525 PWs)   bands (ev):

   -16.2654 -16.1168 -15.2622 -15.0820 -13.8860 -13.8180 -12.3482 -12.3271
   -11.3163 -11.2268  -8.9914  -8.9549  -8.2431  -8.1653  -6.3405  -6.3107
    -5.3288  -5.3068  -4.9809  -4.7977  -4.1909  -4.1126  -4.0203  -3.9390
    -3.2573  -3.1687  -2.6796  -2.6422  -2.4217  -2.3494  -2.1392  -2.0850
    -1.1681  -1.0744  -1.0008  -0.9706  -0.8579  -0.7382  -0.0503  -0.0150
     0.6006   0.7445

     occupation numbers 
     1.0000   1.0000   1.0000   1.0000   1.0000   1.0000   1.0000   1.0000
     1.0000   1.0000   1.0000   1.0000   1.0000   1.0000   1.0000   1.0000
     1.0000   1.0000   1.0000   1.0000   1.0000   1.0000   1.0000   1.0000
     1.0000   1.0000   1.0000   1.0000   1.0000   1.0000   1.0000   1.0000
     1.0000   1.0000   1.0000   1.0000   1.0000   1.0000   1.0000   1.0000
     1.0000   1.0000

          k =-0.0169 0.0214-0.1078 ( 36561 PWs)   bands (ev):

   -16.1972 -16.0481 -15.2017 -15.0315 -13.8735 -13.7816 -12.3421 -12.3209
   -11.3112 -11.2116  -8.9562  -8.9127  -8.2223  -8.1423  -6.3908  -6.2565
    -5.3320  -5.2962  -5.0431  -4.9066  -4.2873  -4.2092  -4.0716  -4.0475
    -3.7791  -3.6828  -2.8421  -2.6993  -2.5595  -2.3818  -2.3223  -2.2766
    -1.3577  -1.2071  -1.1410  -0.9955  -0.8594  -0.7598  -0.2252  -0.1518
     0.5745   0.7100

     occupation numbers 
     1.0000   1.0000   1.0000   1.0000   1.0000   1.0000   1.0000   1.0000
     1.0000   1.0000   1.0000   1.0000   1.0000   1.0000   1.0000   1.0000
     1.0000   1.0000   1.0000   1.0000   1.0000   1.0000   1.0000   1.0000
     1.0000   1.0000   1.0000   1.0000   1.0000   1.0000   1.0000   1.0000
     1.0000   1.0000   1.0000   1.0000   1.0000   1.0000   1.0000   1.0000
     1.0000   1.0000

          k =-0.0169 0.0214 0.0936 ( 36547 PWs)   bands (ev):

   -16.1999 -16.0450 -15.2017 -15.0317 -13.8634 -13.7932 -12.3474 -12.3146
   -11.3009 -11.2209  -8.9504  -8.9176  -8.2123  -8.1604  -6.3507  -6.2947
    -5.3249  -5.3008  -5.0419  -4.8899  -4.2449  -4.2169  -4.1234  -4.0728
    -3.7357  -3.7097  -2.7603  -2.6598  -2.5554  -2.4482  -2.3671  -2.3249
    -1.3111  -1.2117  -1.1001  -1.0392  -0.8533  -0.7610  -0.2061  -0.1643
     0.5718   0.7056

     occupation numbers 
     1.0000   1.0000   1.0000   1.0000   1.0000   1.0000   1.0000   1.0000
     1.0000   1.0000   1.0000   1.0000   1.0000   1.0000   1.0000   1.0000
     1.0000   1.0000   1.0000   1.0000   1.0000   1.0000   1.0000   1.0000
     1.0000   1.0000   1.0000   1.0000   1.0000   1.0000   1.0000   1.0000
     1.0000   1.0000   1.0000   1.0000   1.0000   1.0000   1.0000   1.0000
     1.0000   1.0000

          k =-0.0169 0.0214 0.0265 ( 36551 PWs)   bands (ev):

   -16.2684 -16.1131 -15.2632 -15.0816 -13.8766 -13.8280 -12.3558 -12.3203
   -11.3114 -11.2285  -9.0039  -8.9470  -8.2768  -8.1260  -6.4201  -6.2239
    -5.3392  -5.3121  -5.0616  -4.6922  -4.2903  -4.0907  -3.9921  -3.8362
    -3.2519  -3.1980  -2.7789  -2.5862  -2.4525  -2.3409  -2.1606  -2.0808
    -1.1387  -1.0917  -1.0189  -0.9146  -0.8711  -0.7358  -0.0490  -0.0212
     0.6124   0.7345

     occupation numbers 
     1.0000   1.0000   1.0000   1.0000   1.0000   1.0000   1.0000   1.0000
     1.0000   1.0000   1.0000   1.0000   1.0000   1.0000   1.0000   1.0000
     1.0000   1.0000   1.0000   1.0000   1.0000   1.0000   1.0000   1.0000
     1.0000   1.0000   1.0000   1.0000   1.0000   1.0000   1.0000   1.0000
     1.0000   1.0000   1.0000   1.0000   1.0000   1.0000   1.0000   1.0000
     1.0000   1.0000

          k =-0.0169 0.0643-0.0407 ( 36518 PWs)   bands (ev):

   -16.2426 -16.0932 -15.2665 -15.0833 -13.9157 -13.8610 -12.3859 -12.3663
   -11.3232 -11.2345  -8.9007  -8.8725  -8.1556  -8.0783  -6.3707  -6.3185
    -5.3026  -5.2718  -5.0623  -4.8960  -4.3260  -4.2650  -4.0800  -3.9747
    -3.3272  -3.2379  -2.6149  -2.5940  -2.4243  -2.3139  -2.1185  -2.0218
    -1.0576  -0.9629  -0.9057  -0.8539  -0.8256  -0.7653  -0.0205   0.0385
     0.6627   0.7669

     occupation numbers 
     1.0000   1.0000   1.0000   1.0000   1.0000   1.0000   1.0000   1.0000
     1.0000   1.0000   1.0000   1.0000   1.0000   1.0000   1.0000   1.0000
     1.0000   1.0000   1.0000   1.0000   1.0000   1.0000   1.0000   1.0000
     1.0000   1.0000   1.0000   1.0000   1.0000   1.0000   1.0000   1.0000
     1.0000   1.0000   1.0000   1.0000   1.0000   1.0000   1.0000   1.0000
     1.0000   1.0000

          k =-0.0169 0.0643-0.1078 ( 36558 PWs)   bands (ev):

   -16.1818 -16.0313 -15.2042 -15.0279 -13.8872 -13.8153 -12.3588 -12.3396
   -11.3212 -11.2338  -8.9195  -8.8864  -8.1926  -8.1303  -6.3616  -6.3142
    -5.3112  -5.2872  -4.9572  -4.8037  -4.2844  -4.2099  -4.0716  -4.0328
    -3.9196  -3.8527  -2.7468  -2.6867  -2.5534  -2.4671  -2.3862  -2.3042
    -1.3240  -1.1516  -1.0226  -0.9426  -0.9106  -0.8078  -0.0825   0.0030
     0.5848   0.7114

     occupation numbers 
     1.0000   1.0000   1.0000   1.0000   1.0000   1.0000   1.0000   1.0000
     1.0000   1.0000   1.0000   1.0000   1.0000   1.0000   1.0000   1.0000
     1.0000   1.0000   1.0000   1.0000   1.0000   1.0000   1.0000   1.0000
     1.0000   1.0000   1.0000   1.0000   1.0000   1.0000   1.0000   1.0000
     1.0000   1.0000   1.0000   1.0000   1.0000   1.0000   1.0000   1.0000
     1.0000   1.0000

          k =-0.0169 0.0643 0.0936 ( 36547 PWs)   bands (ev):

   -16.1843 -16.0286 -15.2022 -15.0300 -13.8810 -13.8223 -12.3649 -12.3331
   -11.3173 -11.2364  -8.9173  -8.8873  -8.1820  -8.1494  -6.3682  -6.2986
    -5.3172  -5.2934  -4.9288  -4.8257  -4.2804  -4.2133  -4.1348  -3.9694
    -3.8726  -3.8579  -2.7562  -2.7027  -2.5958  -2.5393  -2.3294  -2.2886
    -1.2598  -1.1372  -1.0443  -0.9684  -0.8773  -0.8464  -0.0505  -0.0306
     0.5912   0.7083

     occupation numbers 
     1.0000   1.0000   1.0000   1.0000   1.0000   1.0000   1.0000   1.0000
     1.0000   1.0000   1.0000   1.0000   1.0000   1.0000   1.0000   1.0000
     1.0000   1.0000   1.0000   1.0000   1.0000   1.0000   1.0000   1.0000
     1.0000   1.0000   1.0000   1.0000   1.0000   1.0000   1.0000   1.0000
     1.0000   1.0000   1.0000   1.0000   1.0000   1.0000   1.0000   1.0000
     1.0000   1.0000

          k =-0.0169 0.0643 0.0265 ( 36489 PWs)   bands (ev):

   -16.2451 -16.0905 -15.2649 -15.0849 -13.9098 -13.8681 -12.3919 -12.3576
   -11.3220 -11.2379  -8.9064  -8.8626  -8.1492  -8.0870  -6.4324  -6.2805
    -5.2974  -5.2726  -5.0173  -4.8785  -4.3315  -4.1968  -4.1614  -4.0097
    -3.3054  -3.2699  -2.6344  -2.4885  -2.4197  -2.3696  -2.1256  -2.0387
    -1.0925  -1.0011  -0.8827  -0.8547  -0.8077  -0.7169  -0.0009   0.0156
     0.6741   0.7540

     occupation numbers 
     1.0000   1.0000   1.0000   1.0000   1.0000   1.0000   1.0000   1.0000
     1.0000   1.0000   1.0000   1.0000   1.0000   1.0000   1.0000   1.0000
     1.0000   1.0000   1.0000   1.0000   1.0000   1.0000   1.0000   1.0000
     1.0000   1.0000   1.0000   1.0000   1.0000   1.0000   1.0000   1.0000
     1.0000   1.0000   1.0000   1.0000   1.0000   1.0000   1.0000   1.0000
     1.0000   1.0000

     highest occupied level (ev):     0.7669

!    total energy              =    -548.04111077 Ry
     Harris-Foulkes estimate   =    -548.04111078 Ry
     estimated scf accuracy    <       0.00000002 Ry

     total all-electron energy =     -4615.884599 Ry

     The total energy is the sum of the following terms:

     one-electron contribution =    -149.76326956 Ry
     hartree contribution      =     106.23785912 Ry
     xc contribution           =    -104.19570950 Ry
     ewald contribution        =    -144.53748866 Ry
     one-center paw contrib.   =    -255.78250217 Ry
      -> PAW hartree energy AE =      18.81205740 Ry
      -> PAW hartree energy PS =     -18.70791339 Ry
      -> PAW xc energy AE      =     -55.59016778 Ry
      -> PAW xc energy PS      =      10.04542728 Ry
      -> total E_H with PAW    =     106.34200313 Ry
      -> total E_XC with PAW   =    -149.74044999 Ry

     convergence has been achieved in  11 iterations
 writing file ./scratch/scf-901.save/charge-density
 writing file ./scratch/scf-901.save/charge-density
 writing file ./scratch/scf-901.save/charge-density
 writing file ./scratch/scf-901.save/charge-density
 writing file ./scratch/scf-901.save/charge-density
 writing file ./scratch/scf-901.save/charge-density
 writing file ./scratch/scf-901.save/charge-density
 writing file ./scratch/scf-901.save/charge-density
 writing file ./scratch/scf-901.save/charge-density
 writing file ./scratch/scf-901.save/charge-density
 writing file ./scratch/scf-901.save/charge-density
 writing file ./scratch/scf-901.save/charge-density
 writing file ./scratch/scf-901.save/charge-density
 writing file ./scratch/scf-901.save/charge-density
 writing file ./scratch/scf-901.save/charge-density
 writing file ./scratch/scf-901.save/charge-density
 writing file ./scratch/scf-901.save/charge-density
 writing file ./scratch/scf-901.save/charge-density
 writing file ./scratch/scf-901.save/charge-density
 writing file ./scratch/scf-901.save/charge-density
 writing file ./scratch/scf-901.save/charge-density
 writing file ./scratch/scf-901.save/charge-density
 writing file ./scratch/scf-901.save/charge-density
 writing file ./scratch/scf-901.save/charge-density
 writing file ./scratch/scf-901.save/charge-density
 writing file ./scratch/scf-901.save/charge-density
 writing file ./scratch/scf-901.save/charge-density
 writing file ./scratch/scf-901.save/charge-density
 writing file ./scratch/scf-901.save/charge-density
 writing file ./scratch/scf-901.save/charge-density
 writing file ./scratch/scf-901.save/charge-density
 writing file ./scratch/scf-901.save/charge-density

     total cpu time spent up to now is       44.4 secs

     total energy              =    -548.04110189 Ry
     Harris-Foulkes estimate   =    -548.04111756 Ry
     estimated scf accuracy    <       0.00003994 Ry

     iteration #  9     ecut=   100.00 Ry     beta= 0.70
     Davidson diagonalization with overlap

     Forces acting on atoms (cartesian axes, Ry/au):

     atom    1 type  2   force =    -0.05204606    0.06000652   -0.00186956
     atom    2 type  1   force =     0.02318090   -0.04010231   -0.00427020
     atom    3 type  1   force =     0.01797107   -0.01612170    0.00119676
     atom    4 type  3   force =    -0.00110599    0.00077681    0.00025954
     atom    5 type  1   force =    -0.00236523   -0.00331016    0.00218201
     atom    6 type  3   force =     0.00127181   -0.00104127   -0.00009994
     atom    7 type  3   force =    -0.00327746    0.00113057   -0.00036744
     atom    8 type  1   force =     0.00865718   -0.00357924   -0.01659923
     atom    9 type  3   force =     0.00307242   -0.00595175   -0.00006392
     atom   10 type  1   force =    -0.00381014    0.00576625    0.01898437
     atom   11 type  1   force =     0.04891585    0.01838430    0.01115741
     atom   12 type  2   force =    -0.06260115   -0.03179098   -0.01269632
     atom   13 type  3   force =    -0.00191426   -0.00151624    0.00235985
     atom   14 type  1   force =     0.00828968    0.00205151   -0.00574148
     atom   15 type  3   force =    -0.00040294    0.00156330   -0.00215632
     atom   16 type  1   force =     0.00405685   -0.01342800    0.01117624
     atom   17 type  1   force =     0.02568265   -0.01097376   -0.01493661
     atom   18 type  2   force =    -0.02968884    0.02624577    0.00571639
     atom   19 type  3   force =     0.00305275    0.00097297    0.00014709
     atom   20 type  1   force =     0.01729032    0.00887129    0.00278543
     atom   21 type  3   force =     0.00386715   -0.00022037   -0.00236973
     atom   22 type  1   force =     0.00729302    0.00634279   -0.00224731
     atom   23 type  1   force =     0.02054962    0.03157061   -0.00501782
     atom   24 type  2   force =    -0.03593919   -0.03564690    0.01247077
     The non-local contrib.  to forces
     atom    1 type  2   force =    -0.28176704    0.27787865    0.00073955
     atom    2 type  1   force =     0.39814490   -0.34638138    0.01892182
     atom    3 type  1   force =    -0.01761701   -0.07345442   -0.05129638
     atom    4 type  3   force =    -0.06384461   -0.02053214   -0.04101692
     atom    5 type  1   force =    -0.02686347   -0.06218945   -0.02909287
     atom    6 type  3   force =    -0.00220120   -0.06756602   -0.04009229
     atom    7 type  3   force =    -0.00284029   -0.06782486    0.03944559
     atom    8 type  1   force =     0.03764218   -0.04451314    0.01084567
     atom    9 type  3   force =     0.06275138   -0.02454522    0.04138901
     atom   10 type  1   force =     0.04890704   -0.05434413    0.08497226
     atom   11 type  1   force =    -0.34234376   -0.30878773   -0.00919446
     atom   12 type  2   force =     0.27475534    0.27290451   -0.02112511
     atom   13 type  3   force =     0.00043552    0.06576493    0.04298043
     atom   14 type  1   force =     0.04427835    0.03910815    0.02853565
     atom   15 type  3   force =     0.06370145    0.01963402    0.04281984
     atom   16 type  1   force =     0.04418218    0.01642815    0.07012295
     atom   17 type  1   force =    -0.36251329    0.30454964   -0.04096970
     atom   18 type  2   force =     0.31061145   -0.23863802    0.02716886
     atom   19 type  3   force =     0.00287637    0.06680511   -0.04101108
     atom   20 type  1   force =     0.00947166    0.04609066   -0.03036666
     atom   21 type  3   force =    -0.06046929    0.02215081   -0.04552485
     atom   22 type  1   force =    -0.01111320    0.06383752   -0.05215282
     atom   23 type  1   force =     0.41101596    0.32125220    0.00383666
     atom   24 type  2   force =    -0.30817699   -0.24855279    0.03515196
     The ionic contribution  to forces
     atom    1 type  2   force =     3.51093042   -2.81695994    0.05467427
     atom    2 type  1   force =     2.56878016   -1.80153176    0.30232694
     atom    3 type  1   force =     3.90300144    1.54751930    2.45827434
     atom    4 type  3   force =     1.92236946    0.60972250    1.18994522
     atom    5 type  1   force =     0.49021576    3.95845715    2.18070738
     atom    6 type  3   force =     0.07673007    1.94470801    1.19946893
     atom    7 type  3   force =     0.00699227    1.98287862   -1.18929364
     atom    8 type  1   force =    -0.33637981    4.22038504   -1.76861657
     atom    9 type  3   force =    -1.78735101    0.92496572   -1.12856352
     atom   10 type  1   force =    -3.47818670    2.00464298   -2.68722898
     atom   11 type  1   force =    -1.65243944   -1.10061079   -0.49495175
     atom   12 type  2   force =    -5.50536947   -5.17161253   -0.41674871
     atom   13 type  3   force =    -0.35818003   -1.91846923   -1.39957918
     atom   14 type  1   force =    -1.39520721   -4.11353332   -2.47857453
     atom   15 type  3   force =    -2.03588419   -0.80750692   -1.34047152
     atom   16 type  1   force =    -4.41786106   -1.93116341   -3.04489757
     atom   17 type  1   force =    -2.64079943    1.35938927   -0.24454173
     atom   18 type  2   force =    -6.77000971    4.79851338   -1.12036035
     atom   19 type  3   force =     0.29971942   -1.97859137    1.36729628
     atom   20 type  1   force =     1.54451918   -3.93889040    2.68161758
     atom   21 type  3   force =     2.06688382   -0.75376616    1.41222151
     atom   22 type  1   force =     4.86327521   -1.88936729    3.05139982
     atom   23 type  1   force =     3.46252673    1.60695970    0.79145206
     atom   24 type  2   force =     5.66172410    3.26386144    0.62444374
     The local contribution  to forces
     atom    1 type  2   force =    -3.29491027    2.61290907   -0.05731831
     atom    2 type  1   force =    -2.93243615    2.09843101   -0.32499837
     atom    3 type  1   force =    -3.86600102   -1.49074030   -2.40546837
     atom    4 type  3   force =    -1.85962438   -0.58841929   -1.14866589
     atom    5 type  1   force =    -0.46594522   -3.89873940   -2.14876323
     atom    6 type  3   force =    -0.07326226   -1.87817178   -1.15947576
     atom    7 type  3   force =    -0.00744587   -1.91392961    1.14947891
     atom    8 type  1   force =     0.30745548   -4.17821073    1.74056377
     atom    9 type  3   force =     1.72767819   -0.90637093    1.08711479
     atom   10 type  1   force =     3.42463909   -1.94482868    2.62101031
     atom   11 type  1   force =     2.03505527    1.42092337    0.51461558
     atom   12 type  2   force =     5.17672379    4.87647627    0.42394209
     atom   13 type  3   force =     0.35582920    1.85121103    1.35897072
     atom   14 type  1   force =     1.35961742    4.07517224    2.44377508
     atom   15 type  3   force =     1.97180288    0.78943532    1.29550631
     atom   16 type  1   force =     4.37692735    1.90091832    2.98564351
     atom   17 type  1   force =     3.01978222   -1.66769231    0.27016057
     atom   18 type  2   force =     6.44102814   -4.54223786    1.10004998
     atom   19 type  3   force =    -0.29954787    1.91274894   -1.32613856
     atom   20 type  1   force =    -1.53641378    3.90065780   -2.64777668
     atom   21 type  3   force =    -2.00253488    0.73139206   -1.36906145
     atom   22 type  1   force =    -4.84319576    1.83215633   -3.00100546
     atom   23 type  1   force =    -3.84154126   -1.88827329   -0.80017066
     atom   24 type  2   force =    -5.40341942   -3.06255209   -0.64520226
     The core correction contribution to forces
     atom    1 type  2   force =     0.01364662   -0.01376652    0.00003344
     atom    2 type  1   force =    -0.01137993    0.00933032   -0.00057115
     atom    3 type  1   force =    -0.00140941    0.00049371   -0.00033101
     atom    4 type  3   force =     0.00000000    0.00000000    0.00000000
     atom    5 type  1   force =     0.00018790   -0.00084651   -0.00068801
     atom    6 type  3   force =     0.00000000    0.00000000    0.00000000
     atom    7 type  3   force =     0.00000000    0.00000000    0.00000000
     atom    8 type  1   force =    -0.00017280   -0.00121036    0.00055801
     atom    9 type  3   force =     0.00000000    0.00000000    0.00000000
     atom   10 type  1   force =     0.00079057    0.00033637    0.00020280
     atom   11 type  1   force =     0.00858600    0.00687503    0.00063684
     atom   12 type  2   force =    -0.00871393   -0.00960015    0.00119582
     atom   13 type  3   force =     0.00000000    0.00000000    0.00000000
     atom   14 type  1   force =    -0.00042758    0.00132247    0.00052518
     atom   15 type  3   force =     0.00000000    0.00000000    0.00000000
     atom   16 type  1   force =     0.00086573    0.00033484    0.00031301
     atom   17 type  1   force =     0.00918970   -0.00727953    0.00037010
     atom   18 type  2   force =    -0.01124244    0.00858739   -0.00115103
     atom   19 type  3   force =     0.00000000    0.00000000    0.00000000
     atom   20 type  1   force =    -0.00031342    0.00097627   -0.00069575
     atom   21 type  3   force =     0.00000000    0.00000000    0.00000000
     atom   22 type  1   force =    -0.00162598   -0.00031153   -0.00045938
     atom   23 type  1   force =    -0.01146107   -0.00835323   -0.00013572
     atom   24 type  2   force =     0.01403545    0.01160804   -0.00185324
     The Hubbard contrib.    to forces
     atom    1 type  2   force =     0.00000000    0.00000000    0.00000000
     atom    2 type  1   force =     0.00000000    0.00000000    0.00000000
     atom    3 type  1   force =     0.00000000    0.00000000    0.00000000
     atom    4 type  3   force =     0.00000000    0.00000000    0.00000000
     atom    5 type  1   force =     0.00000000    0.00000000    0.00000000
     atom    6 type  3   force =     0.00000000    0.00000000    0.00000000
     atom    7 type  3   force =     0.00000000    0.00000000    0.00000000
     atom    8 type  1   force =     0.00000000    0.00000000    0.00000000
     atom    9 type  3   force =     0.00000000    0.00000000    0.00000000
     atom   10 type  1   force =     0.00000000    0.00000000    0.00000000
     atom   11 type  1   force =     0.00000000    0.00000000    0.00000000
     atom   12 type  2   force =     0.00000000    0.00000000    0.00000000
     atom   13 type  3   force =     0.00000000    0.00000000    0.00000000
     atom   14 type  1   force =     0.00000000    0.00000000    0.00000000
     atom   15 type  3   force =     0.00000000    0.00000000    0.00000000
     atom   16 type  1   force =     0.00000000    0.00000000    0.00000000
     atom   17 type  1   force =     0.00000000    0.00000000    0.00000000
     atom   18 type  2   force =     0.00000000    0.00000000    0.00000000
     atom   19 type  3   force =     0.00000000    0.00000000    0.00000000
     atom   20 type  1   force =     0.00000000    0.00000000    0.00000000
     atom   21 type  3   force =     0.00000000    0.00000000    0.00000000
     atom   22 type  1   force =     0.00000000    0.00000000    0.00000000
     atom   23 type  1   force =     0.00000000    0.00000000    0.00000000
     atom   24 type  2   force =     0.00000000    0.00000000    0.00000000
     The SCF correction term to forces
     atom    1 type  2   force =     0.00005416   -0.00005599    0.00000122
     atom    2 type  1   force =     0.00007187    0.00004825    0.00005029
     atom    3 type  1   force =    -0.00000298    0.00005877    0.00001792
     atom    4 type  3   force =    -0.00000651    0.00000448   -0.00000314
     atom    5 type  1   force =     0.00003974    0.00000679    0.00001847
     atom    6 type  3   force =     0.00000514   -0.00001273   -0.00000108
     atom    7 type  3   force =     0.00001638    0.00000516    0.00000143
     atom    8 type  1   force =     0.00011208   -0.00003131    0.00004962
     atom    9 type  3   force =    -0.00000619   -0.00000258   -0.00000447
     atom   10 type  1   force =     0.00003980   -0.00004154    0.00002771
     atom   11 type  1   force =     0.00005773   -0.00001683    0.00005093
     atom   12 type  2   force =     0.00000306    0.00003967    0.00003933
     atom   13 type  3   force =     0.00000099   -0.00002423   -0.00001240
     atom   14 type  1   force =     0.00002864   -0.00001929   -0.00000313
     atom   15 type  3   force =    -0.00002314   -0.00000037   -0.00001122
     atom   16 type  1   force =    -0.00005741    0.00005284   -0.00000594
     atom   17 type  1   force =     0.00002339    0.00005791    0.00004389
     atom   18 type  2   force =    -0.00007633    0.00001962    0.00000865
     atom   19 type  3   force =     0.00000477    0.00000903    0.00000018
     atom   20 type  1   force =     0.00002662    0.00003572    0.00000668
     atom   21 type  3   force =    -0.00001256    0.00000166   -0.00000521
     atom   22 type  1   force =    -0.00004732    0.00002650   -0.00002974
     atom   23 type  1   force =     0.00000920   -0.00001602   -0.00000042
     atom   24 type  2   force =    -0.00010240   -0.00001275   -0.00006969

     Total force =     0.159971     Total SCF correction =     0.000308

     Writing output data file scf-901.save
 writing file ./scratch/scf-901.save/charge-density
 writing file ./scratch/scf-901.save/charge-density
 writing file ./scratch/scf-901.save/charge-density
 writing file ./scratch/scf-901.save/charge-density
 writing file ./scratch/scf-901.save/charge-density
 writing file ./scratch/scf-901.save/charge-density
 writing file ./scratch/scf-901.save/charge-density
 writing file ./scratch/scf-901.save/charge-density
 writing file ./scratch/scf-901.save/charge-density
 writing file ./scratch/scf-901.save/charge-density
 writing file ./scratch/scf-901.save/charge-density
 writing file ./scratch/scf-901.save/charge-density
 writing file ./scratch/scf-901.save/charge-density
 writing file ./scratch/scf-901.save/charge-density
 writing file ./scratch/scf-901.save/charge-density
 writing file ./scratch/scf-901.save/charge-density
 writing file ./scratch/scf-901.save/charge-density
 writing file ./scratch/scf-901.save/charge-density
 writing file ./scratch/scf-901.save/charge-density
 writing file ./scratch/scf-901.save/charge-density
 writing file ./scratch/scf-901.save/charge-density
 writing file ./scratch/scf-901.save/charge-density
 writing file ./scratch/scf-901.save/charge-density
 writing file ./scratch/scf-901.save/charge-density
 writing file ./scratch/scf-901.save/charge-density
 writing file ./scratch/scf-901.save/charge-density
 writing file ./scratch/scf-901.save/charge-density
 writing file ./scratch/scf-901.save/charge-density
 writing file ./scratch/scf-901.save/charge-density
 writing file ./scratch/scf-901.save/charge-density
 writing file ./scratch/scf-901.save/charge-density
 writing file ./scratch/scf-901.save/charge-density
 
     init_run     :      4.37s CPU      4.63s WALL (       1 calls)
     electrons    :     50.54s CPU     53.43s WALL (       1 calls)
     forces       :      2.32s CPU      2.46s WALL (       1 calls)

     Called by init_run:
     wfcinit      :      1.60s CPU      1.65s WALL (       1 calls)
     wfcinit:atom :      0.01s CPU      0.02s WALL (      16 calls)
     wfcinit:wfcr :      1.50s CPU      1.53s WALL (      16 calls)
     potinit      :      0.90s CPU      0.91s WALL (       1 calls)

     Called by electrons:
     c_bands      :     39.40s CPU     39.74s WALL (      11 calls)
     sum_band     :      7.02s CPU      8.23s WALL (      11 calls)
     v_of_rho     :      0.94s CPU      0.97s WALL (      12 calls)
     v_h          :      0.06s CPU      0.06s WALL (      12 calls)
     v_xc         :      0.94s CPU      0.98s WALL (      13 calls)
     newd         :      1.50s CPU      2.86s WALL (      12 calls)
     PAW_pot      :      1.64s CPU      1.70s WALL (      12 calls)
     mix_rho      :      0.14s CPU      0.14s WALL (      11 calls)

     Called by c_bands:
     init_us_2    :      0.82s CPU      0.86s WALL (     384 calls)
     cegterg      :     37.14s CPU     37.37s WALL (     176 calls)

     Called by sum_band:
     sum_band:bec :      0.03s CPU      0.02s WALL (     176 calls)
     addusdens    :      1.51s CPU      2.68s WALL (      11 calls)

     Called by *egterg:
     h_psi        :     27.88s CPU     28.06s WALL (     859 calls)
     s_psi        :      1.98s CPU      2.03s WALL (     859 calls)
     g_psi        :      0.16s CPU      0.16s WALL (     667 calls)
     cdiaghg      :      3.44s CPU      3.41s WALL (     843 calls)
     cegterg:over :      1.66s CPU      1.63s WALL (     667 calls)
     cegterg:upda :      1.18s CPU      1.27s WALL (     667 calls)
     cegterg:last :      0.45s CPU      0.44s WALL (     192 calls)

     Called by h_psi:
     h_psi:pot    :     27.62s CPU     27.78s WALL (     859 calls)
     h_psi:calbec :      2.29s CPU      2.25s WALL (     859 calls)
     vloc_psi     :     23.41s CPU     23.56s WALL (     859 calls)
     add_vuspsi   :      1.90s CPU      1.97s WALL (     859 calls)

     General routines
     calbec       :      3.00s CPU      2.99s WALL (    1099 calls)
     fft          :      0.80s CPU      0.80s WALL (     199 calls)
     ffts         :      0.04s CPU      0.03s WALL (      23 calls)
     fftw         :     21.92s CPU     21.95s WALL (   55606 calls)
     interpolate  :      0.16s CPU      0.15s WALL (      23 calls)
     davcio       :      0.01s CPU      0.01s WALL (      16 calls)
 
     Parallel routines
     fft_scatter  :      8.22s CPU      8.05s WALL (   55828 calls)

     PAW routines
     PAW_pot      :      1.64s CPU      1.70s WALL (      12 calls)
 
     PWSCF        :  0m57.90s CPU     1m 1.65s WALL

 
   This run was terminated on:  13: 4:12  20May2017            

=------------------------------------------------------------------------------=
   JOB DONE.
=------------------------------------------------------------------------------=
     ethr =  4.75E-08,  avg # of iterations =  4.0

     total cpu time spent up to now is       48.7 secs

     total energy              =    -548.04110965 Ry
     Harris-Foulkes estimate   =    -548.04111146 Ry
     estimated scf accuracy    <       0.00000442 Ry

     iteration # 10     ecut=   100.00 Ry     beta= 0.70
     Davidson diagonalization with overlap
     ethr =  5.27E-09,  avg # of iterations =  4.0

     total cpu time spent up to now is       53.3 secs

     total energy              =    -548.04111066 Ry
     Harris-Foulkes estimate   =    -548.04111087 Ry
     estimated scf accuracy    <       0.00000047 Ry

     iteration # 11     ecut=   100.00 Ry     beta= 0.70
     Davidson diagonalization with overlap
     ethr =  5.64E-10,  avg # of iterations =  4.0

     total cpu time spent up to now is       57.9 secs

     End of self-consistent calculation

          k = 0.0169 0.0214 0.0407 ( 36525 PWs)   bands (ev):

   -16.2676 -16.1144 -15.2607 -15.0835 -13.8835 -13.8215 -12.3544 -12.3202
   -11.3143 -11.2280  -8.9917  -8.9540  -8.2334  -8.1813  -6.3555  -6.2922
    -5.3319  -5.2988  -4.9571  -4.8269  -4.2028  -4.0943  -4.0729  -3.8649
    -3.2390  -3.1887  -2.7291  -2.6012  -2.4387  -2.3707  -2.1373  -2.0811
    -1.1539  -1.0771  -0.9967  -0.9640  -0.8640  -0.7343  -0.0507  -0.0189
     0.6058   0.7410

     occupation numbers 
     1.0000   1.0000   1.0000   1.0000   1.0000   1.0000   1.0000   1.0000
     1.0000   1.0000   1.0000   1.0000   1.0000   1.0000   1.0000   1.0000
     1.0000   1.0000   1.0000   1.0000   1.0000   1.0000   1.0000   1.0000
     1.0000   1.0000   1.0000   1.0000   1.0000   1.0000   1.0000   1.0000
     1.0000   1.0000   1.0000   1.0000   1.0000   1.0000   1.0000   1.0000
     1.0000   1.0000

          k = 0.0169 0.0214 0.1078 ( 36561 PWs)   bands (ev):

   -16.1997 -16.0454 -15.2004 -15.0327 -13.8718 -13.7844 -12.3483 -12.3138
   -11.3108 -11.2112  -8.9567  -8.9112  -8.2163  -8.1555  -6.3955  -6.2462
    -5.3354  -5.2906  -5.0105  -4.9436  -4.2991  -4.2033  -4.0757  -4.0249
    -3.7608  -3.6906  -2.8779  -2.6791  -2.5519  -2.3931  -2.3354  -2.2814
    -1.3472  -1.2159  -1.1319  -0.9706  -0.8792  -0.7592  -0.2159  -0.1606
     0.5718   0.7124

     occupation numbers 
     1.0000   1.0000   1.0000   1.0000   1.0000   1.0000   1.0000   1.0000
     1.0000   1.0000   1.0000   1.0000   1.0000   1.0000   1.0000   1.0000
     1.0000   1.0000   1.0000   1.0000   1.0000   1.0000   1.0000   1.0000
     1.0000   1.0000   1.0000   1.0000   1.0000   1.0000   1.0000   1.0000
     1.0000   1.0000   1.0000   1.0000   1.0000   1.0000   1.0000   1.0000
     1.0000   1.0000

          k = 0.0169 0.0214-0.0936 ( 36547 PWs)   bands (ev):

   -16.1975 -16.0477 -15.2033 -15.0300 -13.8673 -13.7883 -12.3410 -12.3218
   -11.3039 -11.2187  -8.9516  -8.9171  -8.2218  -8.1441  -6.3405  -6.3093
    -5.3268  -5.3039  -5.0582  -4.8672  -4.2494  -4.1976  -4.1471  -4.0749
    -3.7588  -3.6930  -2.7654  -2.6171  -2.5792  -2.4747  -2.3557  -2.2932
    -1.2861  -1.2363  -1.1227  -1.0342  -0.8511  -0.7626  -0.2233  -0.1490
     0.5794   0.7008

     occupation numbers 
     1.0000   1.0000   1.0000   1.0000   1.0000   1.0000   1.0000   1.0000
     1.0000   1.0000   1.0000   1.0000   1.0000   1.0000   1.0000   1.0000
     1.0000   1.0000   1.0000   1.0000   1.0000   1.0000   1.0000   1.0000
     1.0000   1.0000   1.0000   1.0000   1.0000   1.0000   1.0000   1.0000
     1.0000   1.0000   1.0000   1.0000   1.0000   1.0000   1.0000   1.0000
     1.0000   1.0000

          k = 0.0169 0.0214-0.0265 ( 36551 PWs)   bands (ev):

   -16.2661 -16.1156 -15.2643 -15.0805 -13.8807 -13.8229 -12.3489 -12.3280
   -11.3132 -11.2277  -9.0016  -8.9500  -8.2755  -8.1208  -6.4172  -6.2333
    -5.3367  -5.3165  -5.0582  -4.6870  -4.2963  -4.0536  -3.9968  -3.9009
    -3.2613  -3.1783  -2.7520  -2.5893  -2.4599  -2.3162  -2.1537  -2.0883
    -1.1654  -1.0853  -1.0045  -0.9392  -0.8613  -0.7350  -0.0518  -0.0160
     0.6167   0.7294

     occupation numbers 
     1.0000   1.0000   1.0000   1.0000   1.0000   1.0000   1.0000   1.0000
     1.0000   1.0000   1.0000   1.0000   1.0000   1.0000   1.0000   1.0000
     1.0000   1.0000   1.0000   1.0000   1.0000   1.0000   1.0000   1.0000
     1.0000   1.0000   1.0000   1.0000   1.0000   1.0000   1.0000   1.0000
     1.0000   1.0000   1.0000   1.0000   1.0000   1.0000   1.0000   1.0000
     1.0000   1.0000

          k = 0.0169 0.0643 0.0407 ( 36518 PWs)   bands (ev):

   -16.2449 -16.0907 -15.2648 -15.0849 -13.9138 -13.8637 -12.3918 -12.3598
   -11.3212 -11.2357  -8.9026  -8.8697  -8.1332  -8.1084  -6.3813  -6.3036
    -5.2994  -5.2725  -5.0094  -4.9485  -4.3569  -4.2333  -4.0835  -3.9590
    -3.3031  -3.2680  -2.6276  -2.5621  -2.4115  -2.3810  -2.0934  -2.0337
    -1.0700  -0.9350  -0.9030  -0.8732  -0.8009  -0.7706  -0.0046   0.0156
     0.6737   0.7594

     occupation numbers 
     1.0000   1.0000   1.0000   1.0000   1.0000   1.0000   1.0000   1.0000
     1.0000   1.0000   1.0000   1.0000   1.0000   1.0000   1.0000   1.0000
     1.0000   1.0000   1.0000   1.0000   1.0000   1.0000   1.0000   1.0000
     1.0000   1.0000   1.0000   1.0000   1.0000   1.0000   1.0000   1.0000
     1.0000   1.0000   1.0000   1.0000   1.0000   1.0000   1.0000   1.0000
     1.0000   1.0000

          k = 0.0169 0.0643 0.1078 ( 36558 PWs)   bands (ev):

   -16.1843 -16.0285 -15.2028 -15.0292 -13.8858 -13.8178 -12.3654 -12.3322
   -11.3207 -11.2336  -8.9201  -8.8849  -8.1849  -8.1452  -6.3710  -6.2992
    -5.3153  -5.2813  -4.9106  -4.8588  -4.2716  -4.2212  -4.1154  -3.9631
    -3.9004  -3.8740  -2.7740  -2.6751  -2.5506  -2.4496  -2.4143  -2.3136
    -1.3310  -1.1351  -0.9932  -0.9758  -0.9081  -0.8005  -0.0640  -0.0169
     0.5837   0.7130

     occupation numbers 
     1.0000   1.0000   1.0000   1.0000   1.0000   1.0000   1.0000   1.0000
     1.0000   1.0000   1.0000   1.0000   1.0000   1.0000   1.0000   1.0000
     1.0000   1.0000   1.0000   1.0000   1.0000   1.0000   1.0000   1.0000
[...]
      -> PAW hartree energy AE =      18.81205740 Ry
      -> PAW hartree energy PS =     -18.70791339 Ry
      -> PAW xc energy AE      =     -55.59016778 Ry
      -> PAW xc energy PS      =      10.04542728 Ry
      -> total E_H with PAW    =     106.34200313 Ry
      -> total E_XC with PAW   =    -149.74044999 Ry

     convergence has been achieved in  11 iterations
 writing file ./scratch/scf-901.save/charge-density
 writing file ./scratch/scf-901.save/charge-density
 writing file ./scratch/scf-901.save/charge-density
 writing file ./scratch/scf-901.save/charge-density
 writing file ./scratch/scf-901.save/charge-density
 writing file ./scratch/scf-901.save/charge-density
 writing file ./scratch/scf-901.save/charge-density
 writing file ./scratch/scf-901.save/charge-density
 writing file ./scratch/scf-901.save/charge-density
 writing file ./scratch/scf-901.save/charge-density
 writing file ./scratch/scf-901.save/charge-density
 writing file ./scratch/scf-901.save/charge-density
 writing file ./scratch/scf-901.save/charge-density
 writing file ./scratch/scf-901.save/charge-density
 writing file ./scratch/scf-901.save/charge-density
 writing file ./scratch/scf-901.save/charge-density
 writing file ./scratch/scf-901.save/charge-density
 writing file ./scratch/scf-901.save/charge-density
 writing file ./scratch/scf-901.save/charge-density
 writing file ./scratch/scf-901.save/charge-density
 writing file ./scratch/scf-901.save/charge-density
 writing file ./scratch/scf-901.save/charge-density
 writing file ./scratch/scf-901.save/charge-density
 writing file ./scratch/scf-901.save/charge-density
 writing file ./scratch/scf-901.save/charge-density
 writing file ./scratch/scf-901.save/charge-density
 writing file ./scratch/scf-901.save/charge-density
 writing file ./scratch/scf-901.save/charge-density
 writing file ./scratch/scf-901.save/charge-density
 writing file ./scratch/scf-901.save/charge-density
 writing file ./scratch/scf-901.save/charge-density
 writing file ./scratch/scf-901.save/charge-density

     Forces acting on atoms (cartesian axes, Ry/au):

     atom    1 type  2   force =    -0.05204606    0.06000652   -0.00186956
     atom    2 type  1   force =     0.02318090   -0.04010231   -0.00427020
     atom    3 type  1   force =     0.01797107   -0.01612170    0.00119676
     atom    4 type  3   force =    -0.00110599    0.00077681    0.00025954
     atom    5 type  1   force =    -0.00236523   -0.00331016    0.00218201
     atom    6 type  3   force =     0.00127181   -0.00104127   -0.00009994
     atom    7 type  3   force =    -0.00327746    0.00113057   -0.00036744
     atom    8 type  1   force =     0.00865718   -0.00357924   -0.01659923
     atom    9 type  3   force =     0.00307242   -0.00595175   -0.00006392
     atom   10 type  1   force =    -0.00381014    0.00576625    0.01898437
     atom   11 type  1   force =     0.04891585    0.01838430    0.01115741
     atom   12 type  2   force =    -0.06260115   -0.03179098   -0.01269632
     atom   13 type  3   force =    -0.00191426   -0.00151624    0.00235985
     atom   14 type  1   force =     0.00828968    0.00205151   -0.00574148
     atom   15 type  3   force =    -0.00040294    0.00156330   -0.00215632
     atom   16 type  1   force =     0.00405685   -0.01342800    0.01117624
     atom   17 type  1   force =     0.02568265   -0.01097376   -0.01493661
     atom   18 type  2   force =    -0.02968884    0.02624577    0.00571639
     atom   19 type  3   force =     0.00305275    0.00097297    0.00014709
     atom   20 type  1   force =     0.01729032    0.00887129    0.00278543
     atom   21 type  3   force =     0.00386715   -0.00022037   -0.00236973
     atom   22 type  1   force =     0.00729302    0.00634279   -0.00224731
     atom   23 type  1   force =     0.02054962    0.03157061   -0.00501782
     atom   24 type  2   force =    -0.03593919   -0.03564690    0.01247077
     The non-local contrib.  to forces
     atom    1 type  2   force =    -0.28176704    0.27787865    0.00073955
     atom    2 type  1   force =     0.39814490   -0.34638138    0.01892182
     atom    3 type  1   force =    -0.01761701   -0.07345442   -0.05129638
     atom    4 type  3   force =    -0.06384461   -0.02053214   -0.04101692
     atom    5 type  1   force =    -0.02686347   -0.06218945   -0.02909287
     atom    6 type  3   force =    -0.00220120   -0.06756602   -0.04009229
     atom    7 type  3   force =    -0.00284029   -0.06782486    0.03944559
     atom    8 type  1   force =     0.03764218   -0.04451314    0.01084567
     atom    9 type  3   force =     0.06275138   -0.02454522    0.04138901
     atom   10 type  1   force =     0.04890704   -0.05434413    0.08497226
     atom   11 type  1   force =    -0.34234376   -0.30878773   -0.00919446
     atom   12 type  2   force =     0.27475534    0.27290451   -0.02112511
     atom   13 type  3   force =     0.00043552    0.06576493    0.04298043
     atom   14 type  1   force =     0.04427835    0.03910815    0.02853565
     atom   15 type  3   force =     0.06370145    0.01963402    0.04281984
     atom   16 type  1   force =     0.04418218    0.01642815    0.07012295
     atom   17 type  1   force =    -0.36251329    0.30454964   -0.04096970
     atom   18 type  2   force =     0.31061145   -0.23863802    0.02716886
     atom   19 type  3   force =     0.00287637    0.06680511   -0.04101108
     atom   20 type  1   force =     0.00947166    0.04609066   -0.03036666
     atom   21 type  3   force =    -0.06046929    0.02215081   -0.04552485
     atom   22 type  1   force =    -0.01111320    0.06383752   -0.05215282
     atom   23 type  1   force =     0.41101596    0.32125220    0.00383666
     atom   24 type  2   force =    -0.30817699   -0.24855279    0.03515196
     The ionic contribution  to forces
     atom    1 type  2   force =     3.51093042   -2.81695994    0.05467427
     atom    2 type  1   force =     2.56878016   -1.80153176    0.30232694
     atom    3 type  1   force =     3.90300144    1.54751930    2.45827434
     atom    4 type  3   force =     1.92236946    0.60972250    1.18994522
     atom    5 type  1   force =     0.49021576    3.95845715    2.18070738
     atom    6 type  3   force =     0.07673007    1.94470801    1.19946893
     atom    7 type  3   force =     0.00699227    1.98287862   -1.18929364
     atom    8 type  1   force =    -0.33637981    4.22038504   -1.76861657
     atom    9 type  3   force =    -1.78735101    0.92496572   -1.12856352
     atom   10 type  1   force =    -3.47818670    2.00464298   -2.68722898
     atom   11 type  1   force =    -1.65243944   -1.10061079   -0.49495175
     atom   12 type  2   force =    -5.50536947   -5.17161253   -0.41674871
     atom   13 type  3   force =    -0.35818003   -1.91846923   -1.39957918
     atom   14 type  1   force =    -1.39520721   -4.11353332   -2.47857453
     atom   15 type  3   force =    -2.03588419   -0.80750692   -1.34047152
     atom   16 type  1   force =    -4.41786106   -1.93116341   -3.04489757
     atom   17 type  1   force =    -2.64079943    1.35938927   -0.24454173
     atom   18 type  2   force =    -6.77000971    4.79851338   -1.12036035
     atom   19 type  3   force =     0.29971942   -1.97859137    1.36729628
     atom   20 type  1   force =     1.54451918   -3.93889040    2.68161758
     atom   21 type  3   force =     2.06688382   -0.75376616    1.41222151
     atom   22 type  1   force =     4.86327521   -1.88936729    3.05139982
     atom   23 type  1   force =     3.46252673    1.60695970    0.79145206
     atom   24 type  2   force =     5.66172410    3.26386144    0.62444374
     The local contribution  to forces
     atom    1 type  2   force =    -3.29491027    2.61290907   -0.05731831
     atom    2 type  1   force =    -2.93243615    2.09843101   -0.32499837
     atom    3 type  1   force =    -3.86600102   -1.49074030   -2.40546837
     atom    4 type  3   force =    -1.85962438   -0.58841929   -1.14866589
     atom    5 type  1   force =    -0.46594522   -3.89873940   -2.14876323
     atom    6 type  3   force =    -0.07326226   -1.87817178   -1.15947576
     atom    7 type  3   force =    -0.00744587   -1.91392961    1.14947891
     atom    8 type  1   force =     0.30745548   -4.17821073    1.74056377
     atom    9 type  3   force =     1.72767819   -0.90637093    1.08711479
     atom   10 type  1   force =     3.42463909   -1.94482868    2.62101031
     atom   11 type  1   force =     2.03505527    1.42092337    0.51461558
     atom   12 type  2   force =     5.17672379    4.87647627    0.42394209
     atom   13 type  3   force =     0.35582920    1.85121103    1.35897072
     atom   14 type  1   force =     1.35961742    4.07517224    2.44377508
     atom   15 type  3   force =     1.97180288    0.78943532    1.29550631
     atom   16 type  1   force =     4.37692735    1.90091832    2.98564351
     atom   17 type  1   force =     3.01978222   -1.66769231    0.27016057
     atom   18 type  2   force =     6.44102814   -4.54223786    1.10004998
     atom   19 type  3   force =    -0.29954787    1.91274894   -1.32613856
     atom   20 type  1   force =    -1.53641378    3.90065780   -2.64777668
     atom   21 type  3   force =    -2.00253488    0.73139206   -1.36906145
     atom   22 type  1   force =    -4.84319576    1.83215633   -3.00100546
     atom   23 type  1   force =    -3.84154126   -1.88827329   -0.80017066
     atom   24 type  2   force =    -5.40341942   -3.06255209   -0.64520226
     The core correction contribution to forces
     atom    1 type  2   force =     0.01364662   -0.01376652    0.00003344
     atom    2 type  1   force =    -0.01137993    0.00933032   -0.00057115
     atom    3 type  1   force =    -0.00140941    0.00049371   -0.00033101
     atom    4 type  3   force =     0.00000000    0.00000000    0.00000000
     atom    5 type  1   force =     0.00018790   -0.00084651   -0.00068801
     atom    6 type  3   force =     0.00000000    0.00000000    0.00000000
     atom    7 type  3   force =     0.00000000    0.00000000    0.00000000
     atom    8 type  1   force =    -0.00017280   -0.00121036    0.00055801
     atom    9 type  3   force =     0.00000000    0.00000000    0.00000000
     atom   10 type  1   force =     0.00079057    0.00033637    0.00020280
     atom   11 type  1   force =     0.00858600    0.00687503    0.00063684
     atom   12 type  2   force =    -0.00871393   -0.00960015    0.00119582
     atom   13 type  3   force =     0.00000000    0.00000000    0.00000000
     atom   14 type  1   force =    -0.00042758    0.00132247    0.00052518
     atom   15 type  3   force =     0.00000000    0.00000000    0.00000000
     atom   16 type  1   force =     0.00086573    0.00033484    0.00031301
     atom   17 type  1   force =     0.00918970   -0.00727953    0.00037010
     atom   18 type  2   force =    -0.01124244    0.00858739   -0.00115103
     atom   19 type  3   force =     0.00000000    0.00000000    0.00000000
     atom   20 type  1   force =    -0.00031342    0.00097627   -0.00069575
     atom   21 type  3   force =     0.00000000    0.00000000    0.00000000
     atom   22 type  1   force =    -0.00162598   -0.00031153   -0.00045938
     atom   23 type  1   force =    -0.01146107   -0.00835323   -0.00013572
     atom   24 type  2   force =     0.01403545    0.01160804   -0.00185324
     The Hubbard contrib.    to forces
     atom    1 type  2   force =     0.00000000    0.00000000    0.00000000
     atom    2 type  1   force =     0.00000000    0.00000000    0.00000000
     atom    3 type  1   force =     0.00000000    0.00000000    0.00000000
     atom    4 type  3   force =     0.00000000    0.00000000    0.00000000
     atom    5 type  1   force =     0.00000000    0.00000000    0.00000000
     atom    6 type  3   force =     0.00000000    0.00000000    0.00000000
     atom    7 type  3   force =     0.00000000    0.00000000    0.00000000
     atom    8 type  1   force =     0.00000000    0.00000000    0.00000000
     atom    9 type  3   force =     0.00000000    0.00000000    0.00000000
     atom   10 type  1   force =     0.00000000    0.00000000    0.00000000
     atom   11 type  1   force =     0.00000000    0.00000000    0.00000000
     atom   12 type  2   force =     0.00000000    0.00000000    0.00000000
     atom   13 type  3   force =     0.00000000    0.00000000    0.00000000
     atom   14 type  1   force =     0.00000000    0.00000000    0.00000000
     atom   15 type  3   force =     0.00000000    0.00000000    0.00000000
     atom   16 type  1   force =     0.00000000    0.00000000    0.00000000
     atom   17 type  1   force =     0.00000000    0.00000000    0.00000000
     atom   18 type  2   force =     0.00000000    0.00000000    0.00000000
     atom   19 type  3   force =     0.00000000    0.00000000    0.00000000
     atom   20 type  1   force =     0.00000000    0.00000000    0.00000000
     atom   21 type  3   force =     0.00000000    0.00000000    0.00000000
     atom   22 type  1   force =     0.00000000    0.00000000    0.00000000
     atom   23 type  1   force =     0.00000000    0.00000000    0.00000000
     atom   24 type  2   force =     0.00000000    0.00000000    0.00000000
     The SCF correction term to forces
     atom    1 type  2   force =     0.00005416   -0.00005599    0.00000122
     atom    2 type  1   force =     0.00007187    0.00004825    0.00005029
     atom    3 type  1   force =    -0.00000298    0.00005877    0.00001792
     atom    4 type  3   force =    -0.00000651    0.00000448   -0.00000314
     atom    5 type  1   force =     0.00003974    0.00000679    0.00001847
     atom    6 type  3   force =     0.00000514   -0.00001273   -0.00000108
     atom    7 type  3   force =     0.00001638    0.00000516    0.00000143
     atom    8 type  1   force =     0.00011208   -0.00003131    0.00004962
     atom    9 type  3   force =    -0.00000619   -0.00000258   -0.00000447
     atom   10 type  1   force =     0.00003980   -0.00004154    0.00002771
     atom   11 type  1   force =     0.00005773   -0.00001683    0.00005093
     atom   12 type  2   force =     0.00000306    0.00003967    0.00003933
     atom   13 type  3   force =     0.00000099   -0.00002423   -0.00001240
     atom   14 type  1   force =     0.00002864   -0.00001929   -0.00000313
     atom   15 type  3   force =    -0.00002314   -0.00000037   -0.00001122
     atom   16 type  1   force =    -0.00005741    0.00005284   -0.00000594
     atom   17 type  1   force =     0.00002339    0.00005791    0.00004389
     atom   18 type  2   force =    -0.00007633    0.00001962    0.00000865
     atom   19 type  3   force =     0.00000477    0.00000903    0.00000018
     atom   20 type  1   force =     0.00002662    0.00003572    0.00000668
     atom   21 type  3   force =    -0.00001256    0.00000166   -0.00000521
     atom   22 type  1   force =    -0.00004732    0.00002650   -0.00002974
     atom   23 type  1   force =     0.00000920   -0.00001602   -0.00000042
     atom   24 type  2   force =    -0.00010240   -0.00001275   -0.00006969

     Total force =     0.159971     Total SCF correction =     0.000308

     Writing output data file scf-901.save
 writing file ./scratch/scf-901.save/charge-density
 writing file ./scratch/scf-901.save/charge-density
 writing file ./scratch/scf-901.save/charge-density
 writing file ./scratch/scf-901.save/charge-density
 writing file ./scratch/scf-901.save/charge-density
 writing file ./scratch/scf-901.save/charge-density
 writing file ./scratch/scf-901.save/charge-density
 writing file ./scratch/scf-901.save/charge-density
 writing file ./scratch/scf-901.save/charge-density
 writing file ./scratch/scf-901.save/charge-density
 writing file ./scratch/scf-901.save/charge-density
 writing file ./scratch/scf-901.save/charge-density
 writing file ./scratch/scf-901.save/charge-density
 writing file ./scratch/scf-901.save/charge-density
 writing file ./scratch/scf-901.save/charge-density
 writing file ./scratch/scf-901.save/charge-density
 writing file ./scratch/scf-901.save/charge-density
 writing file ./scratch/scf-901.save/charge-density
 writing file ./scratch/scf-901.save/charge-density
 writing file ./scratch/scf-901.save/charge-density
 writing file ./scratch/scf-901.save/charge-density
 writing file ./scratch/scf-901.save/charge-density
 writing file ./scratch/scf-901.save/charge-density
 writing file ./scratch/scf-901.save/charge-density
 writing file ./scratch/scf-901.save/charge-density
 writing file ./scratch/scf-901.save/charge-density
 writing file ./scratch/scf-901.save/charge-density
 writing file ./scratch/scf-901.save/charge-density
 writing file ./scratch/scf-901.save/charge-density
 writing file ./scratch/scf-901.save/charge-density
 writing file ./scratch/scf-901.save/charge-density
 writing file ./scratch/scf-901.save/charge-density
 
     init_run     :      4.36s CPU      4.59s WALL (       1 calls)
     electrons    :     49.91s CPU     52.72s WALL (       1 calls)
     forces       :      2.37s CPU      2.48s WALL (       1 calls)

     Called by init_run:
     wfcinit      :      1.60s CPU      1.61s WALL (       1 calls)
     wfcinit:atom :      0.03s CPU      0.02s WALL (      16 calls)
     wfcinit:wfcr :      1.49s CPU      1.49s WALL (      16 calls)
     potinit      :      0.88s CPU      0.91s WALL (       1 calls)

     Called by electrons:
     c_bands      :     38.82s CPU     39.15s WALL (      11 calls)
     sum_band     :      6.90s CPU      8.07s WALL (      11 calls)
     v_of_rho     :      0.91s CPU      0.97s WALL (      12 calls)
     v_h          :      0.04s CPU      0.06s WALL (      12 calls)
     v_xc         :      0.94s CPU      0.99s WALL (      13 calls)
     newd         :      1.61s CPU      2.86s WALL (      12 calls)
     PAW_pot      :      1.65s CPU      1.70s WALL (      12 calls)
     mix_rho      :      0.14s CPU      0.14s WALL (      11 calls)

     Called by c_bands:
     init_us_2    :      0.88s CPU      0.86s WALL (     384 calls)
     cegterg      :     36.51s CPU     36.78s WALL (     176 calls)

     Called by sum_band:
     sum_band:bec :      0.02s CPU      0.02s WALL (     176 calls)
     addusdens    :      1.53s CPU      2.69s WALL (      11 calls)

     Called by *egterg:
     h_psi        :     27.13s CPU     27.34s WALL (     859 calls)
     s_psi        :      2.06s CPU      2.02s WALL (     859 calls)
     g_psi        :      0.14s CPU      0.16s WALL (     667 calls)
     cdiaghg      :      3.49s CPU      3.41s WALL (     843 calls)
     cegterg:over :      1.69s CPU      1.70s WALL (     667 calls)
     cegterg:upda :      1.12s CPU      1.27s WALL (     667 calls)
     cegterg:last :      0.40s CPU      0.43s WALL (     192 calls)

     Called by h_psi:
     h_psi:pot    :     26.90s CPU     27.07s WALL (     859 calls)
     h_psi:calbec :      2.44s CPU      2.25s WALL (     859 calls)
     vloc_psi     :     22.63s CPU     22.85s WALL (     859 calls)
     add_vuspsi   :      1.82s CPU      1.96s WALL (     859 calls)

     General routines
     calbec       :      3.16s CPU      3.01s WALL (    1099 calls)
     fft          :      0.74s CPU      0.79s WALL (     199 calls)
     ffts         :      0.04s CPU      0.03s WALL (      23 calls)
     fftw         :     21.64s CPU     21.81s WALL (   55606 calls)
     interpolate  :      0.16s CPU      0.15s WALL (      23 calls)
     davcio       :      0.00s CPU      0.15s WALL (      16 calls)
 
     Parallel routines
     fft_scatter  :      7.65s CPU      8.00s WALL (   55828 calls)

     PAW routines
     PAW_pot      :      1.65s CPU      1.70s WALL (      12 calls)
 
     PWSCF        :  0m57.31s CPU     1m 1.31s WALL

 
   This run was terminated on:  13: 4:27  20May2017            

=------------------------------------------------------------------------------=
   JOB DONE.
=------------------------------------------------------------------------------=
