
     Program PWSCF v.6.1 starts on 22May2017 at 11:29:49 

     This program is part of the open-source Quantum ESPRESSO suite
     for quantum simulation of materials; please cite
         "P. Giannozzi et al., J. Phys.:Condens. Matter 21 395502 (2009);
          URL http://www.quantum-espresso.org", 
     in publications or presentations arising from this work. More details at
     http://www.quantum-espresso.org/quote

     Parallel version (MPI & OpenMP), running on      32 processor cores
     Number of MPI processes:                32
     Threads/MPI process:                     1
     R & G space division:  proc/nbgrp/npool/nimage =      32
     Waiting for input...
     Reading input from standard input
Warning: card &IONS ignored
Warning: card     ION_TEMPERATURE   = 'INITIAL' ignored
Warning: card     TEMPW             = 586.D0 ignored
Warning: card     TOLP              = 100.D0 ignored
Warning: card     DELTA_T           = 1.D0 ignored
Warning: card     NRAISE            = 1 ignored
Warning: card / ignored
Warning: card &CELL ignored
Warning: card     CELL_DYNAMICS     = 'BFGS' ignored
Warning: card / ignored

     Current dimensions of program PWSCF are:
     Max number of different atomic species (ntypx) = 10
     Max number of k-points (npk) =  40000
     Max angular momentum in pseudopotentials (lmaxx) =  3
               file C.pbe-n-kjpaw_psl.1.0.0.UPF: wavefunction(s)  2S 2P renormalized
               file Cl.pbe-n-kjpaw_psl.1.0.0.UPF: wavefunction(s)  3S 3P renormalized
               file H.pbe-kjpaw_psl.1.0.0.UPF: wavefunction(s)  1S renormalized

     Subspace diagonalization in iterative solution of the eigenvalue problem:
     a serial algorithm will be used

 
     Parallelization info
     --------------------
     sticks:   dense  smooth     PW     G-vecs:    dense   smooth      PW
     Min         764     305     83                36108     9133    1292
     Max         765     306     84                36110     9135    1293
     Sum       24467    9791   2657              1155489   292295   41363
 


     bravais-lattice index     =            0
     lattice parameter (alat)  =       1.8897  a.u.
     unit-cell volume          =    2163.5316 (a.u.)^3
     number of atoms/cell      =           24
     number of atomic types    =            3
     number of electrons       =        84.00
     number of Kohn-Sham states=           42
     kinetic-energy cutoff     =     100.0000  Ry
     charge density cutoff     =    1000.0000  Ry
     convergence threshold     =      1.0E-07
     mixing beta               =       0.7000
     number of iterations used =            8  plain     mixing
     Exchange-correlation      =  SLA  PW   PBX  PBC ( 1  4  3  4 0 0)

     celldm(1)=   1.889726  celldm(2)=   0.000000  celldm(3)=   0.000000
     celldm(4)=   0.000000  celldm(5)=   0.000000  celldm(6)=   0.000000

     crystal axes: (cart. coord. in units of alat)
               a(1) = (  14.762000   0.000000   0.000000 )  
               a(2) = (   0.000000   5.832000   0.000000 )  
               a(3) = (  -1.563876   0.000000   3.723951 )  

     reciprocal axes: (cart. coord. in units 2 pi/alat)
               b(1) = (  0.067741  0.000000  0.028448 )  
               b(2) = (  0.000000  0.171468  0.000000 )  
               b(3) = (  0.000000  0.000000  0.268532 )  


     PseudoPot. # 1 for  C read from file:
     /global/cscratch1/sd/almno10/.data/PSEUDOPOTENTIALS/C.pbe-n-kjpaw_psl.1.0.0.UPF
     MD5 check sum: 2ba8448e293caca687844dde9a1b88a8
     Pseudo is Projector augmented-wave + core cor, Zval =  4.0
     Generated using "atomic" code by A. Dal Corso  v.5.3.0 svn rev. 11974
     Shape of augmentation charge: PSQ
     Using radial grid of 1073 points,  4 beta functions with: 
                l(1) =   0
                l(2) =   0
                l(3) =   1
                l(4) =   1
     Q(r) pseudized with 0 coefficients 


     PseudoPot. # 2 for Cl read from file:
     /global/cscratch1/sd/almno10/.data/PSEUDOPOTENTIALS/Cl.pbe-n-kjpaw_psl.1.0.0.UPF
     MD5 check sum: dca63699d6b897c5771335df08a09219
     Pseudo is Projector augmented-wave + core cor, Zval =  7.0
     Generated using "atomic" code by A. Dal Corso  v.5.3.0 svn rev. 11974
     Shape of augmentation charge: PSQ
     Using radial grid of 1157 points,  6 beta functions with: 
                l(1) =   0
                l(2) =   0
                l(3) =   1
                l(4) =   1
                l(5) =   2
                l(6) =   2
     Q(r) pseudized with 0 coefficients 


     PseudoPot. # 3 for  H read from file:
     /global/cscratch1/sd/almno10/.data/PSEUDOPOTENTIALS/H.pbe-kjpaw_psl.1.0.0.UPF
     MD5 check sum: bc0feb48a24907a0b97fa6ee2d589a29
     Pseudo is Projector augmented-wave, Zval =  1.0
     Generated using "atomic" code by A. Dal Corso  v.5.3.0 svn rev. 11974
     Shape of augmentation charge: PSQ
     Using radial grid of  929 points,  2 beta functions with: 
                l(1) =   0
                l(2) =   0
     Q(r) pseudized with 0 coefficients 


     atomic species   valence    mass     pseudopotential
        C              4.00    12.01100      C( 1.00)
        Cl             7.00    35.45270     Cl( 1.00)
        H              1.00     1.00790      H( 1.00)

     No symmetry found


                                    s                        frac. trans.

      isym =  1     identity                                     

 cryst.   s( 1) = (     1          0          0      )
                  (     0          1          0      )
                  (     0          0          1      )

 cart.    s( 1) = (  1.0000000  0.0000000 -0.0000000 )
                  (  0.0000000  1.0000000  0.0000000 )
                  (  0.0000000  0.0000000  1.0000000 )


   Cartesian axes

     site n.     atom                  positions (alat units)
         1           Cl  tau(   1) = (  16.3889438   1.0064912   1.9897624  )
         2           C   tau(   2) = (  14.9526603   1.9977359   1.9486518  )
         3           C   tau(   3) = (  14.9217317   3.1402938   2.7472188  )
         4           H   tau(   4) = (  15.7846090   3.3328552   3.3827042  )
         5           C   tau(   5) = (  13.8751348   4.0592332   2.6957631  )
         6           H   tau(   6) = (  13.8902775   4.9348331   3.3423331  )
         7           H   tau(   7) = (   6.6381311   2.2401814   0.8184868  )
         8           C   tau(   8) = (   6.6145608   1.2680939   1.3058142  )
         9           H   tau(   9) = (   4.6648795   0.7608413   0.5361760  )
        10           C   tau(  10) = (   5.5232724   0.4205770   1.1131085  )
        11           C   tau(  11) = (   5.5487461  -0.8170994   1.7559086  )
        12           Cl  tau(  12) = (   4.3350031  -2.0101251   1.5642380  )
        13           H   tau(  13) = (  13.8581144   0.7578055   0.5176662  )
        14           C   tau(  14) = (  13.8713963   1.6511292   1.1388926  )
        15           H   tau(  15) = (  11.9480512   2.3411271   0.4524755  )
        16           C   tau(  16) = (  12.8141996   2.5591834   1.0727767  )
        17           C   tau(  17) = (  12.8039530   3.7370871   1.8635831  )
        18           Cl  tau(  18) = (  11.4996722   4.8424256   1.7460332  )
        19           H   tau(  19) = (   6.6399347  -2.2029362   2.9775823  )
        20           C   tau(  20) = (   6.6656293  -1.2335200   2.4814173  )
        21           H   tau(  21) = (   8.6063574  -0.7157448   3.2580950  )
        22           C   tau(  22) = (   7.7456159  -0.3776418   2.6864130  )
        23           C   tau(  23) = (   7.7265215   0.8533137   2.0347172  )
        24           Cl  tau(  24) = (   9.0821168   2.0798228   1.9672066  )

   Crystallographic axes

     site n.     atom                  positions (cryst. coord.)
         1           Cl  tau(   1) = (  1.1668165  0.1725808  0.5343148  )
         2           C   tau(   2) = (  1.0683510  0.3425473  0.5232753  )
         3           C   tau(   3) = (  1.0889736  0.5384592  0.7377161  )
         4           H   tau(   4) = (  1.1655045  0.5714772  0.9083642  )
         5           C   tau(   5) = (  1.0166117  0.6960276  0.7238986  )
         6           H   tau(   6) = (  1.0360312  0.8461648  0.8975233  )
         7           H   tau(   7) = (  0.4729613  0.3841189  0.2197899  )
         8           C   tau(   8) = (  0.4852282  0.2174372  0.3506529  )
         9           H   tau(   9) = (  0.3312591  0.1304598  0.1439804  )
        10           C   tau(  10) = (  0.4058206  0.0721154  0.2989052  )
        11           C   tau(  11) = (  0.4258326 -0.1401062  0.4715176  )
        12           Cl  tau(  12) = (  0.3381592 -0.3446717  0.4200479  )
        13           H   tau(  13) = (  0.9534960  0.1299392  0.1390099  )
        14           C   tau(  14) = (  0.9720685  0.2831154  0.3058291  )
        15           H   tau(  15) = (  0.8222510  0.4014278  0.1215041  )
        16           C   tau(  16) = (  0.8985715  0.4388174  0.2880748  )
        17           C   tau(  17) = (  0.9203743  0.6407900  0.5004316  )
        18           Cl  tau(  18) = (  0.8286763  0.8303199  0.4688657  )
        19           H   tau(  19) = (  0.5345056 -0.3777326  0.7995760  )
        20           C   tau(  20) = (  0.5221313 -0.2115089  0.6663399  )
        21           H   tau(  21) = (  0.6756941 -0.1227272  0.8749027  )
        22           C   tau(  22) = (  0.6011229 -0.0647534  0.7213878  )
        23           C   tau(  23) = (  0.5812899  0.1463158  0.5463866  )
        24           Cl  tau(  24) = (  0.6711995  0.3566226  0.5282579  )

     number of k points=    16
                       cart. coord. in units 2pi/alat
        k(    1) = (   0.0169354   0.0214335   0.0406785), wk =   0.1250000
        k(    2) = (   0.0169354   0.0214335   0.1078115), wk =   0.1250000
        k(    3) = (   0.0169354   0.0214335  -0.0935875), wk =   0.1250000
        k(    4) = (   0.0169354   0.0214335  -0.0264545), wk =   0.1250000
        k(    5) = (   0.0169354   0.0643004   0.0406785), wk =   0.1250000
        k(    6) = (   0.0169354   0.0643004   0.1078115), wk =   0.1250000
        k(    7) = (   0.0169354   0.0643004  -0.0935875), wk =   0.1250000
        k(    8) = (   0.0169354   0.0643004  -0.0264545), wk =   0.1250000
        k(    9) = (  -0.0169354   0.0214335  -0.0406785), wk =   0.1250000
        k(   10) = (  -0.0169354   0.0214335  -0.1078115), wk =   0.1250000
        k(   11) = (  -0.0169354   0.0214335   0.0935875), wk =   0.1250000
        k(   12) = (  -0.0169354   0.0214335   0.0264545), wk =   0.1250000
        k(   13) = (  -0.0169354   0.0643004  -0.0406785), wk =   0.1250000
        k(   14) = (  -0.0169354   0.0643004  -0.1078115), wk =   0.1250000
        k(   15) = (  -0.0169354   0.0643004   0.0935875), wk =   0.1250000
        k(   16) = (  -0.0169354   0.0643004   0.0264545), wk =   0.1250000

                       cryst. coord.
        k(    1) = (   0.2500000   0.1250000   0.1250000), wk =   0.1250000
        k(    2) = (   0.2500000   0.1250000   0.3750000), wk =   0.1250000
        k(    3) = (   0.2500000   0.1250000  -0.3750000), wk =   0.1250000
        k(    4) = (   0.2500000   0.1250000  -0.1250000), wk =   0.1250000
        k(    5) = (   0.2500000   0.3750000   0.1250000), wk =   0.1250000
        k(    6) = (   0.2500000   0.3750000   0.3750000), wk =   0.1250000
        k(    7) = (   0.2500000   0.3750000  -0.3750000), wk =   0.1250000
        k(    8) = (   0.2500000   0.3750000  -0.1250000), wk =   0.1250000
        k(    9) = (  -0.2500000   0.1250000  -0.1250000), wk =   0.1250000
        k(   10) = (  -0.2500000   0.1250000  -0.3750000), wk =   0.1250000
        k(   11) = (  -0.2500000   0.1250000   0.3750000), wk =   0.1250000
        k(   12) = (  -0.2500000   0.1250000   0.1250000), wk =   0.1250000
        k(   13) = (  -0.2500000   0.3750000  -0.1250000), wk =   0.1250000
        k(   14) = (  -0.2500000   0.3750000  -0.3750000), wk =   0.1250000
        k(   15) = (  -0.2500000   0.3750000   0.3750000), wk =   0.1250000
        k(   16) = (  -0.2500000   0.3750000   0.1250000), wk =   0.1250000

     Dense  grid:  1155489 G-vectors     FFT dimensions: ( 288, 120,  80)

     Smooth grid:   292295 G-vectors     FFT dimensions: ( 180,  72,  50)

     Estimated max dynamical RAM per process >     147.21MB

     Estimated total allocated dynamical RAM >    4710.62MB

     Initial potential from superposition of free atoms

     starting charge   83.99939, renormalised to   84.00000
     Starting wfc are   72 randomized atomic wfcs
     Checking if some PAW data can be deallocated... 
       node    0, deallocated PAW data for type:  1
       node    0, deallocated PAW data for type:  3
       node    1, deallocated PAW data for type:  1
       node    1, deallocated PAW data for type:  3
       node    2, deallocated PAW data for type:  2
       node    2, deallocated PAW data for type:  3
       node    3, deallocated PAW data for type:  2
       node    3, deallocated PAW data for type:  3
       node    4, deallocated PAW data for type:  2
       node    4, deallocated PAW data for type:  3
       node    5, deallocated PAW data for type:  2
       node    5, deallocated PAW data for type:  3
       node    6, deallocated PAW data for type:  1
       node    6, deallocated PAW data for type:  2
       node    7, deallocated PAW data for type:  1
       node    7, deallocated PAW data for type:  2
       node    8, deallocated PAW data for type:  2
       node    8, deallocated PAW data for type:  3
       node    9, deallocated PAW data for type:  2
       node    9, deallocated PAW data for type:  3
       node   10, deallocated PAW data for type:  1
       node   10, deallocated PAW data for type:  2
       node   11, deallocated PAW data for type:  1
       node   11, deallocated PAW data for type:  2
       node   12, deallocated PAW data for type:  1
       node   12, deallocated PAW data for type:  2
       node   13, deallocated PAW data for type:  1
       node   13, deallocated PAW data for type:  2
       node   14, deallocated PAW data for type:  2
       node   14, deallocated PAW data for type:  3
       node   15, deallocated PAW data for type:  2
       node   15, deallocated PAW data for type:  3
       node   16, deallocated PAW data for type:  1
       node   16, deallocated PAW data for type:  2
       node   17, deallocated PAW data for type:  2
       node   17, deallocated PAW data for type:  3
       node   18, deallocated PAW data for type:  2
       node   18, deallocated PAW data for type:  3
       node   19, deallocated PAW data for type:  1
       node   19, deallocated PAW data for type:  3
       node   20, deallocated PAW data for type:  1
       node   20, deallocated PAW data for type:  2
       node   21, deallocated PAW data for type:  2
       node   21, deallocated PAW data for type:  3
       node   22, deallocated PAW data for type:  1
       node   22, deallocated PAW data for type:  2
       node   23, deallocated PAW data for type:  2
       node   23, deallocated PAW data for type:  3
       node   24, deallocated PAW data for type:  2
       node   24, deallocated PAW data for type:  3
       node   25, deallocated PAW data for type:  1
       node   25, deallocated PAW data for type:  3
       node   26, deallocated PAW data for type:  1
       node   26, deallocated PAW data for type:  2
       node   27, deallocated PAW data for type:  2
       node   27, deallocated PAW data for type:  3
       node   28, deallocated PAW data for type:  1
       node   28, deallocated PAW data for type:  2
       node   29, deallocated PAW data for type:  2
       node   29, deallocated PAW data for type:  3
       node   30, deallocated PAW data for type:  2
       node   30, deallocated PAW data for type:  3
       node   31, deallocated PAW data for type:  1
       node   31, deallocated PAW data for type:  3

     total cpu time spent up to now is        5.2 secs

     per-process dynamical memory:    20.7 Mb

     Self-consistent Calculation

     iteration #  1     ecut=   100.00 Ry     beta= 0.70
     Davidson diagonalization with overlap
     ethr =  1.00E-04,  avg # of iterations =  5.0

     total cpu time spent up to now is       12.0 secs

     total energy              =    -547.12788868 Ry
     Harris-Foulkes estimate   =    -548.98716552 Ry
     estimated scf accuracy    <       2.72022278 Ry

     iteration #  2     ecut=   100.00 Ry     beta= 0.70
     Davidson diagonalization with overlap
     ethr =  3.24E-03,  avg # of iterations =  3.0

     total cpu time spent up to now is       16.9 secs

     total energy              =    -547.53273718 Ry
     Harris-Foulkes estimate   =    -548.60391227 Ry
     estimated scf accuracy    <       1.93320373 Ry

     iteration #  3     ecut=   100.00 Ry     beta= 0.70
     Davidson diagonalization with overlap
     ethr =  2.30E-03,  avg # of iterations =  3.0

     total cpu time spent up to now is       21.3 secs

     total energy              =    -548.01375457 Ry
     Harris-Foulkes estimate   =    -548.05116127 Ry
     estimated scf accuracy    <       0.07621860 Ry

     iteration #  4     ecut=   100.00 Ry     beta= 0.70
     Davidson diagonalization with overlap
     ethr =  9.07E-05,  avg # of iterations =  4.0

     total cpu time spent up to now is       26.1 secs

     total energy              =    -548.03955324 Ry
     Harris-Foulkes estimate   =    -548.04881775 Ry
     estimated scf accuracy    <       0.01825207 Ry

     iteration #  5     ecut=   100.00 Ry     beta= 0.70
     Davidson diagonalization with overlap
     ethr =  2.17E-05,  avg # of iterations =  3.0

     total cpu time spent up to now is       30.5 secs

     total energy              =    -548.04332922 Ry
     Harris-Foulkes estimate   =    -548.04375449 Ry
     estimated scf accuracy    <       0.00091239 Ry

     iteration #  6     ecut=   100.00 Ry     beta= 0.70
     Davidson diagonalization with overlap
     ethr =  1.09E-06,  avg # of iterations =  4.0

     total cpu time spent up to now is       35.3 secs

     total energy              =    -548.04356522 Ry
     Harris-Foulkes estimate   =    -548.04365579 Ry
     estimated scf accuracy    <       0.00017275 Ry

     iteration #  7     ecut=   100.00 Ry     beta= 0.70
     Davidson diagonalization with overlap
     ethr =  2.06E-07,  avg # of iterations =  4.0

     total cpu time spent up to now is       40.0 secs

     total energy              =    -548.04360337 Ry
     Harris-Foulkes estimate   =    -548.04365059 Ry
     estimated scf accuracy    <       0.00011671 Ry

     iteration #  8     ecut=   100.00 Ry     beta= 0.70
     Davidson diagonalization with overlap
     ethr =  1.39E-07,  avg # of iterations =  4.0

     total cpu time spent up to now is       44.3 secs

     total energy              =    -548.04362589 Ry
     Harris-Foulkes estimate   =    -548.04363365 Ry
     estimated scf accuracy    <       0.00001971 Ry

     iteration #  9     ecut=   100.00 Ry     beta= 0.70
     Davidson diagonalization with overlap
     ethr =  2.35E-08,  avg # of iterations =  4.0

     total cpu time spent up to now is       48.8 secs

     total energy              =    -548.04362965 Ry
     Harris-Foulkes estimate   =    -548.04363097 Ry
     estimated scf accuracy    <       0.00000310 Ry

     iteration # 10     ecut=   100.00 Ry     beta= 0.70
     Davidson diagonalization with overlap
     ethr =  3.69E-09,  avg # of iterations =  4.0

     total cpu time spent up to now is       53.4 secs

     total energy              =    -548.04363034 Ry
     Harris-Foulkes estimate   =    -548.04363047 Ry
     estimated scf accuracy    <       0.00000027 Ry

     iteration # 11     ecut=   100.00 Ry     beta= 0.70
     Davidson diagonalization with overlap
     ethr =  3.25E-10,  avg # of iterations =  4.0

     total cpu time spent up to now is       58.2 secs

     End of self-consistent calculation

          k = 0.0169 0.0214 0.0407 ( 36525 PWs)   bands (ev):

   -16.1053 -16.0857 -15.4790 -15.2030 -13.9383 -13.8775 -12.3523 -12.2955
   -11.2961 -11.1576  -9.0287  -8.9013  -8.2681  -8.1418  -6.3476  -6.2968
    -5.3325  -5.2935  -5.0253  -4.8613  -4.3143  -4.1232  -3.9063  -3.8620
    -3.2227  -3.1769  -2.7131  -2.6820  -2.3974  -2.3761  -2.2628  -2.0808
    -1.1791  -1.0814  -1.0130  -0.9854  -0.8542  -0.7651  -0.0554  -0.0238
     0.6931   0.8281

     occupation numbers 
     1.0000   1.0000   1.0000   1.0000   1.0000   1.0000   1.0000   1.0000
     1.0000   1.0000   1.0000   1.0000   1.0000   1.0000   1.0000   1.0000
     1.0000   1.0000   1.0000   1.0000   1.0000   1.0000   1.0000   1.0000
     1.0000   1.0000   1.0000   1.0000   1.0000   1.0000   1.0000   1.0000
     1.0000   1.0000   1.0000   1.0000   1.0000   1.0000   1.0000   1.0000
     1.0000   1.0000

          k = 0.0169 0.0214 0.1078 ( 36561 PWs)   bands (ev):

   -16.0452 -16.0070 -15.4320 -15.1542 -13.9155 -13.8408 -12.3380 -12.3093
   -11.2789 -11.1323  -8.9910  -8.8672  -8.2550  -8.1052  -6.4053  -6.2174
    -5.3313  -5.2860  -5.1348  -4.9099  -4.4139  -4.1876  -4.0981  -3.8623
    -3.7338  -3.6358  -2.9135  -2.7432  -2.5639  -2.4602  -2.3476  -2.2768
    -1.3756  -1.2499  -1.1875  -0.9606  -0.9177  -0.7637  -0.2312  -0.0741
     0.5594   0.7040

     occupation numbers 
     1.0000   1.0000   1.0000   1.0000   1.0000   1.0000   1.0000   1.0000
     1.0000   1.0000   1.0000   1.0000   1.0000   1.0000   1.0000   1.0000
     1.0000   1.0000   1.0000   1.0000   1.0000   1.0000   1.0000   1.0000
     1.0000   1.0000   1.0000   1.0000   1.0000   1.0000   1.0000   1.0000
     1.0000   1.0000   1.0000   1.0000   1.0000   1.0000   1.0000   1.0000
     1.0000   1.0000

          k = 0.0169 0.0214-0.0936 ( 36547 PWs)   bands (ev):

   -16.0434 -16.0103 -15.4301 -15.1547 -13.9034 -13.8529 -12.3417 -12.3022
   -11.2699 -11.1413  -8.9663  -8.9070  -8.2137  -8.1558  -6.3368  -6.2967
    -5.3275  -5.2881  -5.0308  -4.9423  -4.3480  -4.2242  -4.1504  -3.9196
    -3.6868  -3.6792  -2.7987  -2.6803  -2.6100  -2.4837  -2.3812  -2.2873
    -1.3372  -1.2808  -1.1251  -1.0695  -0.9044  -0.7824  -0.1934  -0.0991
     0.5547   0.7038

     occupation numbers 
     1.0000   1.0000   1.0000   1.0000   1.0000   1.0000   1.0000   1.0000
     1.0000   1.0000   1.0000   1.0000   1.0000   1.0000   1.0000   1.0000
     1.0000   1.0000   1.0000   1.0000   1.0000   1.0000   1.0000   1.0000
     1.0000   1.0000   1.0000   1.0000   1.0000   1.0000   1.0000   1.0000
     1.0000   1.0000   1.0000   1.0000   1.0000   1.0000   1.0000   1.0000
     1.0000   1.0000

          k = 0.0169 0.0214-0.0265 ( 36551 PWs)   bands (ev):

   -16.1146 -16.0766 -15.4793 -15.2029 -13.9330 -13.8816 -12.3590 -12.2878
   -11.2977 -11.1527  -9.0176  -8.9367  -8.2893  -8.1052  -6.4605  -6.1831
    -5.3549  -5.3164  -5.0951  -4.7007  -4.3215  -4.1161  -3.9716  -3.7593
    -3.2330  -3.1782  -2.8146  -2.6548  -2.4264  -2.3086  -2.2707  -2.0707
    -1.2047  -1.1289  -1.0286  -0.9266  -0.8678  -0.7679  -0.0676   0.0028
     0.6948   0.8231

     occupation numbers 
     1.0000   1.0000   1.0000   1.0000   1.0000   1.0000   1.0000   1.0000
     1.0000   1.0000   1.0000   1.0000   1.0000   1.0000   1.0000   1.0000
     1.0000   1.0000   1.0000   1.0000   1.0000   1.0000   1.0000   1.0000
     1.0000   1.0000   1.0000   1.0000   1.0000   1.0000   1.0000   1.0000
     1.0000   1.0000   1.0000   1.0000   1.0000   1.0000   1.0000   1.0000
     1.0000   1.0000

          k = 0.0169 0.0643 0.0407 ( 36518 PWs)   bands (ev):

   -16.0637 -16.0570 -15.4908 -15.2184 -13.9692 -13.9310 -12.4072 -12.3273
   -11.3043 -11.1651  -8.9008  -8.8155  -8.1304  -8.0755  -6.3684  -6.3020
    -5.2987  -5.2673  -5.1468  -4.9626  -4.4907  -4.1980  -4.0945  -3.8426
    -3.2840  -3.2554  -2.6847  -2.5790  -2.4163  -2.3611  -2.2115  -2.0319
    -1.0781  -0.9273  -0.9106  -0.8540  -0.8415  -0.8081  -0.0320   0.0278
     0.7264   0.8603

     occupation numbers 
     1.0000   1.0000   1.0000   1.0000   1.0000   1.0000   1.0000   1.0000
     1.0000   1.0000   1.0000   1.0000   1.0000   1.0000   1.0000   1.0000
     1.0000   1.0000   1.0000   1.0000   1.0000   1.0000   1.0000   1.0000
     1.0000   1.0000   1.0000   1.0000   1.0000   1.0000   1.0000   1.0000
     1.0000   1.0000   1.0000   1.0000   1.0000   1.0000   1.0000   1.0000
     1.0000   1.0000

          k = 0.0169 0.0643 0.1078 ( 36558 PWs)   bands (ev):

   -16.0115 -15.9874 -15.4383 -15.1651 -13.9283 -13.8906 -12.3740 -12.3194
   -11.2889 -11.1527  -8.9001  -8.8537  -8.1696  -8.1078  -6.3805  -6.2959
    -5.2991  -5.2760  -5.0111  -4.8678  -4.3317  -4.2861  -4.1162  -3.9265
    -3.8868  -3.8059  -2.7171  -2.6865  -2.6469  -2.5207  -2.4466  -2.2711
    -1.3695  -1.1853  -1.0085  -0.9721  -0.9309  -0.7838  -0.1023   0.0521
     0.5561   0.7113

     occupation numbers 
     1.0000   1.0000   1.0000   1.0000   1.0000   1.0000   1.0000   1.0000
     1.0000   1.0000   1.0000   1.0000   1.0000   1.0000   1.0000   1.0000
     1.0000   1.0000   1.0000   1.0000   1.0000   1.0000   1.0000   1.0000
     1.0000   1.0000   1.0000   1.0000   1.0000   1.0000   1.0000   1.0000
     1.0000   1.0000   1.0000   1.0000   1.0000   1.0000   1.0000   1.0000
     1.0000   1.0000

          k = 0.0169 0.0643-0.0936 ( 36547 PWs)   bands (ev):

   -16.0087 -15.9919 -15.4355 -15.1665 -13.9215 -13.8965 -12.3796 -12.3119
   -11.2853 -11.1542  -8.8952  -8.8779  -8.1550  -8.1253  -6.3517  -6.3063
    -5.3188  -5.2907  -4.9677  -4.9083  -4.3066  -4.2477  -4.1372  -3.9311
    -3.8763  -3.7531  -2.7825  -2.7487  -2.6234  -2.5717  -2.3492  -2.2521
    -1.2761  -1.1981  -1.0539  -1.0004  -0.9361  -0.8389  -0.0708   0.0266
     0.5583   0.7162

     occupation numbers 
     1.0000   1.0000   1.0000   1.0000   1.0000   1.0000   1.0000   1.0000
     1.0000   1.0000   1.0000   1.0000   1.0000   1.0000   1.0000   1.0000
     1.0000   1.0000   1.0000   1.0000   1.0000   1.0000   1.0000   1.0000
     1.0000   1.0000   1.0000   1.0000   1.0000   1.0000   1.0000   1.0000
     1.0000   1.0000   1.0000   1.0000   1.0000   1.0000   1.0000   1.0000
     1.0000   1.0000

          k = 0.0169 0.0643-0.0265 ( 36489 PWs)   bands (ev):

   -16.0695 -16.0525 -15.4886 -15.2193 -13.9656 -13.9346 -12.4110 -12.3178
   -11.3052 -11.1684  -8.8814  -8.8468  -8.1307  -8.0680  -6.4320  -6.2983
    -5.2949  -5.2617  -5.0451  -4.9490  -4.4196  -4.2262  -4.1148  -3.9544
    -3.2974  -3.2404  -2.6247  -2.5302  -2.4361  -2.3210  -2.2259  -2.0636
    -1.1210  -1.0586  -0.9043  -0.8385  -0.8006  -0.7618  -0.0423   0.0508
     0.7247   0.8566

     occupation numbers 
     1.0000   1.0000   1.0000   1.0000   1.0000   1.0000   1.0000   1.0000
     1.0000   1.0000   1.0000   1.0000   1.0000   1.0000   1.0000   1.0000
     1.0000   1.0000   1.0000   1.0000   1.0000   1.0000   1.0000   1.0000
     1.0000   1.0000   1.0000   1.0000   1.0000   1.0000   1.0000   1.0000
     1.0000   1.0000   1.0000   1.0000   1.0000   1.0000   1.0000   1.0000
     1.0000   1.0000

          k =-0.0169 0.0214-0.0407 ( 36525 PWs)   bands (ev):

   -16.1040 -16.0883 -15.4768 -15.2039 -13.9343 -13.8811 -12.3571 -12.2878
   -11.2930 -11.1604  -9.0075  -8.9392  -8.2433  -8.1685  -6.3408  -6.3123
    -5.3349  -5.2991  -4.9536  -4.8897  -4.2070  -4.1584  -4.0135  -3.8239
    -3.2307  -3.1530  -2.7424  -2.6622  -2.4248  -2.3313  -2.2661  -2.0627
    -1.1981  -1.1050  -1.0344  -0.9799  -0.8649  -0.7634  -0.0669   0.0033
     0.6936   0.8235

     occupation numbers 
     1.0000   1.0000   1.0000   1.0000   1.0000   1.0000   1.0000   1.0000
     1.0000   1.0000   1.0000   1.0000   1.0000   1.0000   1.0000   1.0000
     1.0000   1.0000   1.0000   1.0000   1.0000   1.0000   1.0000   1.0000
     1.0000   1.0000   1.0000   1.0000   1.0000   1.0000   1.0000   1.0000
     1.0000   1.0000   1.0000   1.0000   1.0000   1.0000   1.0000   1.0000
     1.0000   1.0000

          k =-0.0169 0.0214-0.1078 ( 36561 PWs)   bands (ev):

   -16.0429 -16.0109 -15.4295 -15.1552 -13.9134 -13.8424 -12.3433 -12.3012
   -11.2784 -11.1324  -8.9727  -8.9025  -8.2396  -8.1234  -6.4186  -6.2105
    -5.3279  -5.2951  -5.0800  -4.9121  -4.3921  -4.1837  -4.1259  -3.8550
    -3.7204  -3.6654  -2.9239  -2.7241  -2.5927  -2.4433  -2.3278  -2.2551
    -1.3842  -1.2548  -1.1866  -1.0056  -0.9060  -0.7849  -0.1948  -0.1018
     0.5584   0.7061

     occupation numbers 
     1.0000   1.0000   1.0000   1.0000   1.0000   1.0000   1.0000   1.0000
     1.0000   1.0000   1.0000   1.0000   1.0000   1.0000   1.0000   1.0000
     1.0000   1.0000   1.0000   1.0000   1.0000   1.0000   1.0000   1.0000
     1.0000   1.0000   1.0000   1.0000   1.0000   1.0000   1.0000   1.0000
     1.0000   1.0000   1.0000   1.0000   1.0000   1.0000   1.0000   1.0000
     1.0000   1.0000

          k =-0.0169 0.0214 0.0936 ( 36547 PWs)   bands (ev):

   -16.0456 -16.0064 -15.4328 -15.1535 -13.9094 -13.8474 -12.3369 -12.3098
   -11.2732 -11.1385  -8.9874  -8.8685  -8.2403  -8.1268  -6.3251  -6.2997
    -5.3216  -5.2875  -5.1227  -4.9068  -4.4073  -4.1714  -4.1058  -3.9417
    -3.7316  -3.6409  -2.7739  -2.7134  -2.6155  -2.4553  -2.3946  -2.3263
    -1.3140  -1.2733  -1.1223  -1.0695  -0.8748  -0.7780  -0.2279  -0.0737
     0.5623   0.6971

     occupation numbers 
     1.0000   1.0000   1.0000   1.0000   1.0000   1.0000   1.0000   1.0000
     1.0000   1.0000   1.0000   1.0000   1.0000   1.0000   1.0000   1.0000
     1.0000   1.0000   1.0000   1.0000   1.0000   1.0000   1.0000   1.0000
     1.0000   1.0000   1.0000   1.0000   1.0000   1.0000   1.0000   1.0000
     1.0000   1.0000   1.0000   1.0000   1.0000   1.0000   1.0000   1.0000
     1.0000   1.0000

          k =-0.0169 0.0214 0.0265 ( 36551 PWs)   bands (ev):

   -16.1150 -16.0748 -15.4816 -15.2018 -13.9375 -13.8775 -12.3533 -12.2965
   -11.2981 -11.1528  -9.0344  -8.9026  -8.3007  -8.0922  -6.4467  -6.1946
    -5.3526  -5.3162  -5.0954  -4.7370  -4.3439  -4.1815  -3.8838  -3.7575
    -3.2306  -3.1864  -2.8068  -2.6663  -2.4279  -2.3157  -2.2667  -2.0909
    -1.1844  -1.1146  -1.0353  -0.9012  -0.8625  -0.7627  -0.0525  -0.0278
     0.7042   0.8179

     occupation numbers 
     1.0000   1.0000   1.0000   1.0000   1.0000   1.0000   1.0000   1.0000
     1.0000   1.0000   1.0000   1.0000   1.0000   1.0000   1.0000   1.0000
     1.0000   1.0000   1.0000   1.0000   1.0000   1.0000   1.0000   1.0000
     1.0000   1.0000   1.0000   1.0000   1.0000   1.0000   1.0000   1.0000
     1.0000   1.0000   1.0000   1.0000   1.0000   1.0000   1.0000   1.0000
     1.0000   1.0000

          k =-0.0169 0.0643-0.0407 ( 36518 PWs)   bands (ev):

   -16.0642 -16.0580 -15.4883 -15.2196 -13.9653 -13.9344 -12.4118 -12.3197
   -11.3010 -11.1681  -8.8836  -8.8494  -8.1182  -8.0892  -6.3554  -6.3228
    -5.3119  -5.2647  -5.0526  -5.0227  -4.4303  -4.2283  -4.1427  -3.7985
    -3.2993  -3.2359  -2.6910  -2.5794  -2.4564  -2.3142  -2.1766  -2.0487
    -1.0746  -0.9693  -0.9325  -0.8689  -0.8477  -0.7907  -0.0406   0.0498
     0.7292   0.8545

     occupation numbers 
     1.0000   1.0000   1.0000   1.0000   1.0000   1.0000   1.0000   1.0000
     1.0000   1.0000   1.0000   1.0000   1.0000   1.0000   1.0000   1.0000
     1.0000   1.0000   1.0000   1.0000   1.0000   1.0000   1.0000   1.0000
     1.0000   1.0000   1.0000   1.0000   1.0000   1.0000   1.0000   1.0000
     1.0000   1.0000   1.0000   1.0000   1.0000   1.0000   1.0000   1.0000
     1.0000   1.0000

          k =-0.0169 0.0643-0.1078 ( 36558 PWs)   bands (ev):

   -16.0091 -15.9915 -15.4355 -15.1663 -13.9272 -13.8910 -12.3796 -12.3109
   -11.2881 -11.1531  -8.8952  -8.8775  -8.1612  -8.1139  -6.3946  -6.2820
    -5.3024  -5.2855  -4.9807  -4.8832  -4.3444  -4.1958  -4.1253  -3.9256
    -3.8910  -3.8289  -2.7637  -2.7157  -2.5974  -2.5074  -2.4086  -2.2789
    -1.3667  -1.2014  -1.0424  -0.9700  -0.9240  -0.8093  -0.0699   0.0277
     0.5563   0.7117

     occupation numbers 
     1.0000   1.0000   1.0000   1.0000   1.0000   1.0000   1.0000   1.0000
     1.0000   1.0000   1.0000   1.0000   1.0000   1.0000   1.0000   1.0000
     1.0000   1.0000   1.0000   1.0000   1.0000   1.0000   1.0000   1.0000
     1.0000   1.0000   1.0000   1.0000   1.0000   1.0000   1.0000   1.0000
     1.0000   1.0000   1.0000   1.0000   1.0000   1.0000   1.0000   1.0000
     1.0000   1.0000

          k =-0.0169 0.0643 0.0936 ( 36547 PWs)   bands (ev):

   -16.0113 -15.9876 -15.4385 -15.1650 -13.9287 -13.8900 -12.3747 -12.3196
   -11.2888 -11.1513  -8.8986  -8.8558  -8.1621  -8.1200  -6.3401  -6.3166
    -5.3088  -5.2879  -5.0213  -4.8761  -4.3642  -4.2426  -4.0887  -3.9576
    -3.8767  -3.7606  -2.7729  -2.7304  -2.6487  -2.5784  -2.3458  -2.2691
    -1.2498  -1.1966  -1.0427  -1.0028  -0.8977  -0.8504  -0.1026   0.0508
     0.5656   0.7107

     occupation numbers 
     1.0000   1.0000   1.0000   1.0000   1.0000   1.0000   1.0000   1.0000
     1.0000   1.0000   1.0000   1.0000   1.0000   1.0000   1.0000   1.0000
     1.0000   1.0000   1.0000   1.0000   1.0000   1.0000   1.0000   1.0000
     1.0000   1.0000   1.0000   1.0000   1.0000   1.0000   1.0000   1.0000
     1.0000   1.0000   1.0000   1.0000   1.0000   1.0000   1.0000   1.0000
     1.0000   1.0000

          k =-0.0169 0.0643 0.0265 ( 36489 PWs)   bands (ev):

   -16.0693 -16.0512 -15.4914 -15.2179 -13.9699 -13.9309 -12.4053 -12.3264
   -11.3060 -11.1681  -8.8973  -8.8126  -8.1430  -8.0560  -6.4156  -6.3119
    -5.2916  -5.2542  -5.1058  -4.9184  -4.3698  -4.3160  -4.1407  -3.9100
    -3.2730  -3.2669  -2.6123  -2.4887  -2.4594  -2.3957  -2.2053  -2.0621
    -1.1114  -1.0299  -0.8877  -0.8799  -0.7856  -0.7299  -0.0291   0.0274
     0.7309   0.8519

     occupation numbers 
     1.0000   1.0000   1.0000   1.0000   1.0000   1.0000   1.0000   1.0000
     1.0000   1.0000   1.0000   1.0000   1.0000   1.0000   1.0000   1.0000
     1.0000   1.0000   1.0000   1.0000   1.0000   1.0000   1.0000   1.0000
     1.0000   1.0000   1.0000   1.0000   1.0000   1.0000   1.0000   1.0000
     1.0000   1.0000   1.0000   1.0000   1.0000   1.0000   1.0000   1.0000
     1.0000   1.0000

     highest occupied level (ev):     0.8603

!    total energy              =    -548.04363041 Ry
     Harris-Foulkes estimate   =    -548.04363042 Ry
     estimated scf accuracy    <       0.00000003 Ry

     total all-electron energy =     -4615.887118 Ry

     The total energy is the sum of the following terms:

     one-electron contribution =    -149.48422106 Ry
     hartree contribution      =     106.08965816 Ry
     xc contribution           =    -104.21616367 Ry
     ewald contribution        =    -144.65035833 Ry
     one-center paw contrib.   =    -255.78254550 Ry
      -> PAW hartree energy AE =      19.27252022 Ry
      -> PAW hartree energy PS =     -19.16776986 Ry
      -> PAW xc energy AE      =     -55.67568834 Ry
      -> PAW xc energy PS      =      10.12876505 Ry
      -> total E_H with PAW    =     106.19440852 Ry
      -> total E_XC with PAW   =    -149.76308696 Ry

     convergence has been achieved in  11 iterations
 writing file ./scratch/scf-1210.save/charge-density
 writing file ./scratch/scf-1210.save/charge-density
 writing file ./scratch/scf-1210.save/charge-density
 writing file ./scratch/scf-1210.save/charge-density
 writing file ./scratch/scf-1210.save/charge-density
 writing file ./scratch/scf-1210.save/charge-density
 writing file ./scratch/scf-1210.save/charge-density
 writing file ./scratch/scf-1210.save/charge-density
 writing file ./scratch/scf-1210.save/charge-density
 writing file ./scratch/scf-1210.save/charge-density
 writing file ./scratch/scf-1210.save/charge-density
 writing file ./scratch/scf-1210.save/charge-density
 writing file ./scratch/scf-1210.save/charge-density
 writing file ./scratch/scf-1210.save/charge-density
 writing file ./scratch/scf-1210.save/charge-density
 writing file ./scratch/scf-1210.save/charge-density
 writing file ./scratch/scf-1210.save/charge-density
 writing file ./scratch/scf-1210.save/charge-density
 writing file ./scratch/scf-1210.save/charge-density
 writing file ./scratch/scf-1210.save/charge-density
 writing file ./scratch/scf-1210.save/charge-density
 writing file ./scratch/scf-1210.save/charge-density
 writing file ./scratch/scf-1210.save/charge-density
 writing file ./scratch/scf-1210.save/charge-density
 writing file ./scratch/scf-1210.save/charge-density
 writing file ./scratch/scf-1210.save/charge-density
 writing file ./scratch/scf-1210.save/charge-density
 writing file ./scratch/scf-1210.save/charge-density
 writing file ./scratch/scf-1210.save/charge-density
 writing file ./scratch/scf-1210.save/charge-density
 writing file ./scratch/scf-1210.save/charge-density
 writing file ./scratch/scf-1210.save/charge-density

     Forces acting on atoms (cartesian axes, Ry/au):

     atom    1 type  2   force =    -0.00349389   -0.00527922   -0.00208265
     atom    2 type  1   force =    -0.00536364   -0.00144615    0.00641649
     atom    3 type  1   force =     0.02507073    0.00673860    0.00059885
     atom    4 type  3   force =    -0.00163344    0.00442325    0.00062050
     atom    5 type  1   force =    -0.00030934   -0.03089590   -0.00062437
     atom    6 type  3   force =    -0.00185149    0.00151139   -0.00463882
     atom    7 type  3   force =    -0.00353085   -0.00109511   -0.00111409
     atom    8 type  1   force =     0.00087565   -0.00472444   -0.01613562
     atom    9 type  3   force =     0.00050230   -0.00439059   -0.00118389
     atom   10 type  1   force =    -0.00296074    0.00359428    0.02036876
     atom   11 type  1   force =     0.03279809   -0.00441306   -0.01099186
     atom   12 type  2   force =    -0.03714146   -0.00549555   -0.00434162
     atom   13 type  3   force =     0.00179210   -0.00021900    0.00194467
     atom   14 type  1   force =     0.00129448    0.02320509   -0.00215422
     atom   15 type  3   force =     0.00101205   -0.00009613   -0.00246358
     atom   16 type  1   force =    -0.01462787    0.01714092    0.02536772
     atom   17 type  1   force =     0.02554108   -0.02694090   -0.02055485
     atom   18 type  2   force =    -0.02386574    0.01214409    0.00065505
     atom   19 type  3   force =     0.00514223    0.00084254   -0.00217479
     atom   20 type  1   force =    -0.00517049    0.01439214    0.02536264
     atom   21 type  3   force =     0.00032604    0.00188816    0.00082958
     atom   22 type  1   force =     0.02197949    0.00732689   -0.01583076
     atom   23 type  1   force =     0.01044725    0.04203809   -0.01274204
     atom   24 type  2   force =    -0.02683255   -0.05024939    0.01486890
     The non-local contrib.  to forces
     atom    1 type  2   force =    -0.32791710    0.22107158   -0.00593798
     atom    2 type  1   force =     0.39379756   -0.30542048    0.03841322
     atom    3 type  1   force =    -0.00932907   -0.03531925   -0.05822466
     atom    4 type  3   force =    -0.06232358   -0.01398009   -0.04572819
     atom    5 type  1   force =    -0.02430266   -0.06493750   -0.02719141
     atom    6 type  3   force =    -0.00191121   -0.06276299   -0.04712359
     atom    7 type  3   force =    -0.00152586   -0.07040693    0.03533451
     atom    8 type  1   force =     0.02301115   -0.05201361    0.01338320
     atom    9 type  3   force =     0.06195475   -0.02511168    0.04171683
     atom   10 type  1   force =     0.02592420   -0.04564226    0.08199910
     atom   11 type  1   force =    -0.32531693   -0.34165829   -0.08848449
     atom   12 type  2   force =     0.26258188    0.29351745    0.03379870
     atom   13 type  3   force =     0.00176722    0.06425603    0.04517876
     atom   14 type  1   force =     0.03590016    0.05749819    0.03230536
     atom   15 type  3   force =     0.06309371    0.01620734    0.04521198
     atom   16 type  1   force =     0.03230935    0.06692880    0.09957053
     atom   17 type  1   force =    -0.35640974    0.29435653   -0.07511229
     atom   18 type  2   force =     0.29367245   -0.26462289    0.02443292
     atom   19 type  3   force =     0.00159792    0.06966749   -0.03606445
     atom   20 type  1   force =    -0.02614819    0.07419885    0.01407071
     atom   21 type  3   force =    -0.06266342    0.02505561   -0.04164335
     atom   22 type  1   force =    -0.01522627    0.08317349   -0.08032666
     atom   23 type  1   force =     0.38997360    0.36334341    0.02977990
     atom   24 type  2   force =    -0.27372646   -0.28150551    0.03902729
     The ionic contribution  to forces
     atom    1 type  2   force =     6.34738778   -4.13622946    0.81271872
     atom    2 type  1   force =     2.67908881   -1.72910165    0.54219139
     atom    3 type  1   force =     4.23334925    1.64897645    3.15128422
     atom    4 type  3   force =     2.00355466    0.64451670    1.39762838
     atom    5 type  1   force =     1.49196483    4.21215718    2.67026589
     atom    6 type  3   force =     0.37697785    1.87471830    1.46716692
     atom    7 type  3   force =    -0.21305949    1.93508037   -1.26716750
     atom    8 type  1   force =    -1.29455932    3.87170795   -2.07653847
     atom    9 type  3   force =    -1.98605133    0.77122951   -1.28195301
     atom   10 type  1   force =    -4.46933720    1.78532958   -3.09838367
     atom   11 type  1   force =    -3.01318249   -0.95061061   -0.49837365
     atom   12 type  2   force =    -6.52336380   -4.06374397   -1.29803040
     atom   13 type  3   force =    -0.11261410   -1.89237940   -1.31708164
     atom   14 type  1   force =    -0.56695845   -4.21508590   -2.19185358
     atom   15 type  3   force =    -1.85117434   -0.63290129   -1.27374181
     atom   16 type  1   force =    -3.51549445   -1.45360429   -2.71161284
     atom   17 type  1   force =    -1.85552573    1.31159518   -0.28482091
     atom   18 type  2   force =    -5.26960036    4.43475131   -0.62900460
     atom   19 type  3   force =     0.02690960   -1.94260324    1.18591696
     atom   20 type  1   force =     0.62747488   -3.89745018    1.79568531
     atom   21 type  3   force =     1.83696882   -0.73493085    1.17283538
     atom   22 type  1   force =     3.75330570   -1.56204407    2.86902067
     atom   23 type  1   force =     2.67313327    1.51027630    0.73166780
     atom   24 type  2   force =     4.62080563    3.21034604    0.13218044
     The local contribution  to forces
     atom    1 type  2   force =    -6.03621892    3.91864122   -0.80906910
     atom    2 type  1   force =    -3.06807849    2.02530705   -0.57351385
     atom    3 type  1   force =    -4.19794829   -1.60696682   -3.09193749
     atom    4 type  3   force =    -1.94285478   -0.62610554   -1.35127315
     atom    5 type  1   force =    -1.46814662   -4.17689520   -2.64296106
     atom    6 type  3   force =    -0.37692497   -1.81044704   -1.42468824
     atom    7 type  3   force =     0.21105344   -1.86578106    1.23072296
     atom    8 type  1   force =     1.27229135   -3.82340668    2.04654997
     atom    9 type  3   force =     1.92462489   -0.75051670    1.23906714
     atom   10 type  1   force =     4.43922513   -1.73618331    3.03652138
     atom   11 type  1   force =     3.36246843    1.28016662    0.57415898
     atom   12 type  2   force =     6.23292657    3.77625695    1.26099336
     atom   13 type  3   force =     0.11262132    1.82790269    1.27384206
     atom   14 type  1   force =     0.53254333    4.17953346    2.15678829
     atom   15 type  3   force =     1.78910006    0.61659791    1.22607325
     atom   16 type  1   force =     3.46777918    1.40496179    2.63794394
     atom   17 type  1   force =     2.22825348   -1.62619525    0.33759405
     atom   18 type  2   force =     4.96289183   -4.16808472    0.60619809
     atom   19 type  3   force =    -0.02336795    1.87377413   -1.15202859
     atom   20 type  1   force =    -0.60647531    3.83685624   -1.78357254
     atom   21 type  3   force =    -1.77397063    0.71176741   -1.13035839
     atom   22 type  1   force =    -3.71480022    1.48707559   -2.80417554
     atom   23 type  1   force =    -3.04150661   -1.82231313   -0.77312692
     atom   24 type  2   force =    -4.38644737   -2.99272831   -0.15421757
     The core correction contribution to forces
     atom    1 type  2   force =     0.01338668   -0.00881321    0.00027093
     atom    2 type  1   force =    -0.01020136    0.00776913   -0.00067939
     atom    3 type  1   force =    -0.00100927    0.00012225   -0.00049467
     atom    4 type  3   force =     0.00000000    0.00000000    0.00000000
     atom    5 type  1   force =     0.00013379   -0.00118078   -0.00074727
     atom    6 type  3   force =     0.00000000    0.00000000    0.00000000
     atom    7 type  3   force =     0.00000000    0.00000000    0.00000000
     atom    8 type  1   force =     0.00011103   -0.00105631    0.00047503
     atom    9 type  3   force =     0.00000000    0.00000000    0.00000000
     atom   10 type  1   force =     0.00124196    0.00011201    0.00022667
     atom   11 type  1   force =     0.00882551    0.00775867    0.00167051
     atom   12 type  2   force =    -0.00923143   -0.01150189   -0.00110291
     atom   13 type  3   force =     0.00000000    0.00000000    0.00000000
     atom   14 type  1   force =    -0.00032211    0.00124664    0.00054463
     atom   15 type  3   force =     0.00000000    0.00000000    0.00000000
     atom   16 type  1   force =     0.00072197   -0.00115202   -0.00056022
     atom   17 type  1   force =     0.00918331   -0.00670287    0.00175102
     atom   18 type  2   force =    -0.01084439    0.01012208   -0.00099365
     atom   19 type  3   force =     0.00000000    0.00000000    0.00000000
     atom   20 type  1   force =    -0.00004360    0.00078208   -0.00082810
     atom   21 type  3   force =     0.00000000    0.00000000    0.00000000
     atom   22 type  1   force =    -0.00129519   -0.00082023   -0.00037204
     atom   23 type  1   force =    -0.01117099   -0.00924510   -0.00107906
     atom   24 type  2   force =     0.01246695    0.01354383   -0.00209888
     The Hubbard contrib.    to forces
     atom    1 type  2   force =     0.00000000    0.00000000    0.00000000
     atom    2 type  1   force =     0.00000000    0.00000000    0.00000000
     atom    3 type  1   force =     0.00000000    0.00000000    0.00000000
     atom    4 type  3   force =     0.00000000    0.00000000    0.00000000
     atom    5 type  1   force =     0.00000000    0.00000000    0.00000000
     atom    6 type  3   force =     0.00000000    0.00000000    0.00000000
     atom    7 type  3   force =     0.00000000    0.00000000    0.00000000
     atom    8 type  1   force =     0.00000000    0.00000000    0.00000000
     atom    9 type  3   force =     0.00000000    0.00000000    0.00000000
     atom   10 type  1   force =     0.00000000    0.00000000    0.00000000
     atom   11 type  1   force =     0.00000000    0.00000000    0.00000000
     atom   12 type  2   force =     0.00000000    0.00000000    0.00000000
     atom   13 type  3   force =     0.00000000    0.00000000    0.00000000
     atom   14 type  1   force =     0.00000000    0.00000000    0.00000000
     atom   15 type  3   force =     0.00000000    0.00000000    0.00000000
     atom   16 type  1   force =     0.00000000    0.00000000    0.00000000
     atom   17 type  1   force =     0.00000000    0.00000000    0.00000000
     atom   18 type  2   force =     0.00000000    0.00000000    0.00000000
     atom   19 type  3   force =     0.00000000    0.00000000    0.00000000
     atom   20 type  1   force =     0.00000000    0.00000000    0.00000000
     atom   21 type  3   force =     0.00000000    0.00000000    0.00000000
     atom   22 type  1   force =     0.00000000    0.00000000    0.00000000
     atom   23 type  1   force =     0.00000000    0.00000000    0.00000000
     atom   24 type  2   force =     0.00000000    0.00000000    0.00000000
     The SCF correction term to forces
     atom    1 type  2   force =    -0.00013234    0.00005050   -0.00006518
     atom    2 type  1   force =     0.00002982   -0.00000034    0.00000514
     atom    3 type  1   force =     0.00000809   -0.00007416   -0.00002853
     atom    4 type  3   force =    -0.00000976   -0.00000796   -0.00000650
     atom    5 type  1   force =     0.00004131   -0.00003974    0.00000951
     atom    6 type  3   force =     0.00000682    0.00000298    0.00000614
     atom    7 type  3   force =     0.00000105    0.00001236   -0.00000402
     atom    8 type  1   force =     0.00002143    0.00004407   -0.00000531
     atom    9 type  3   force =    -0.00002602    0.00000813   -0.00001481
     atom   10 type  1   force =    -0.00001483   -0.00002187    0.00000532
     atom   11 type  1   force =     0.00000355   -0.00006959    0.00003683
     atom   12 type  2   force =    -0.00005469   -0.00002423   -0.00000034
     atom   13 type  3   force =     0.00001765    0.00000154    0.00000553
     atom   14 type  1   force =     0.00013154    0.00001256    0.00006112
     atom   15 type  3   force =    -0.00000739   -0.00000023   -0.00000696
     atom   16 type  1   force =     0.00005606    0.00000651    0.00002635
     atom   17 type  1   force =     0.00003974    0.00000537    0.00003332
     atom   18 type  2   force =     0.00001472   -0.00002182    0.00002232
     atom   19 type  3   force =     0.00000265    0.00000403    0.00000133
     atom   20 type  1   force =     0.00002173    0.00000501    0.00000729
     atom   21 type  3   force =    -0.00000875   -0.00000416   -0.00000403
     atom   22 type  1   force =    -0.00000454   -0.00005803    0.00002284
     atom   23 type  1   force =     0.00001795   -0.00002353    0.00001628
     atom   24 type  2   force =     0.00006870    0.00009442   -0.00002235

     Total force =     0.128957     Total SCF correction =     0.000314

     Writing output data file scf-1210.save
 writing file ./scratch/scf-1210.save/charge-density
 writing file ./scratch/scf-1210.save/charge-density
 writing file ./scratch/scf-1210.save/charge-density
 writing file ./scratch/scf-1210.save/charge-density
 writing file ./scratch/scf-1210.save/charge-density
 writing file ./scratch/scf-1210.save/charge-density
 writing file ./scratch/scf-1210.save/charge-density
 writing file ./scratch/scf-1210.save/charge-density
 writing file ./scratch/scf-1210.save/charge-density
 writing file ./scratch/scf-1210.save/charge-density
 writing file ./scratch/scf-1210.save/charge-density
 writing file ./scratch/scf-1210.save/charge-density
 writing file ./scratch/scf-1210.save/charge-density
 writing file ./scratch/scf-1210.save/charge-density
 writing file ./scratch/scf-1210.save/charge-density
 writing file ./scratch/scf-1210.save/charge-density
 writing file ./scratch/scf-1210.save/charge-density
 writing file ./scratch/scf-1210.save/charge-density
 writing file ./scratch/scf-1210.save/charge-density
 writing file ./scratch/scf-1210.save/charge-density
 writing file ./scratch/scf-1210.save/charge-density
 writing file ./scratch/scf-1210.save/charge-density
 writing file ./scratch/scf-1210.save/charge-density
 writing file ./scratch/scf-1210.save/charge-density
 writing file ./scratch/scf-1210.save/charge-density
 writing file ./scratch/scf-1210.save/charge-density
 writing file ./scratch/scf-1210.save/charge-density
 writing file ./scratch/scf-1210.save/charge-density
 writing file ./scratch/scf-1210.save/charge-density
 writing file ./scratch/scf-1210.save/charge-density
 writing file ./scratch/scf-1210.save/charge-density
 writing file ./scratch/scf-1210.save/charge-density
 
     init_run     :      4.41s CPU      4.61s WALL (       1 calls)
     electrons    :     50.38s CPU     53.12s WALL (       1 calls)
     forces       :      2.34s CPU      2.48s WALL (       1 calls)

     Called by init_run:
     wfcinit      :      1.61s CPU      1.63s WALL (       1 calls)
     wfcinit:atom :      0.02s CPU      0.02s WALL (      16 calls)
     wfcinit:wfcr :      1.49s CPU      1.51s WALL (      16 calls)
     potinit      :      0.89s CPU      0.91s WALL (       1 calls)

     Called by electrons:
     c_bands      :     39.31s CPU     39.60s WALL (      11 calls)
     sum_band     :      6.89s CPU      8.06s WALL (      11 calls)
     v_of_rho     :      0.91s CPU      0.97s WALL (      12 calls)
     v_h          :      0.04s CPU      0.06s WALL (      12 calls)
     v_xc         :      0.94s CPU      0.98s WALL (      13 calls)
     newd         :      1.62s CPU      2.85s WALL (      12 calls)
     PAW_pot      :      1.64s CPU      1.70s WALL (      12 calls)
     mix_rho      :      0.14s CPU      0.14s WALL (      11 calls)

     Called by c_bands:
     init_us_2    :      0.82s CPU      0.86s WALL (     384 calls)
     cegterg      :     37.06s CPU     37.23s WALL (     176 calls)

     Called by sum_band:
     sum_band:bec :      0.02s CPU      0.02s WALL (     176 calls)
     addusdens    :      1.53s CPU      2.66s WALL (      11 calls)

     Called by *egterg:
     h_psi        :     27.68s CPU     27.78s WALL (     864 calls)
     s_psi        :      2.09s CPU      2.06s WALL (     864 calls)
     g_psi        :      0.16s CPU      0.16s WALL (     672 calls)
     cdiaghg      :      3.48s CPU      3.46s WALL (     848 calls)
     cegterg:over :      1.57s CPU      1.63s WALL (     672 calls)
     cegterg:upda :      1.26s CPU      1.29s WALL (     672 calls)
     cegterg:last :      0.45s CPU      0.44s WALL (     192 calls)

     Called by h_psi:
     h_psi:pot    :     27.38s CPU     27.50s WALL (     864 calls)
     h_psi:calbec :      2.30s CPU      2.26s WALL (     864 calls)
     vloc_psi     :     23.10s CPU     23.23s WALL (     864 calls)
     add_vuspsi   :      1.98s CPU      2.00s WALL (     864 calls)

     General routines
     calbec       :      3.04s CPU      3.02s WALL (    1104 calls)
     fft          :      0.74s CPU      0.79s WALL (     199 calls)
     ffts         :      0.02s CPU      0.03s WALL (      23 calls)
     fftw         :     22.20s CPU     22.31s WALL (   55610 calls)
     interpolate  :      0.15s CPU      0.15s WALL (      23 calls)
     davcio       :      0.00s CPU      0.01s WALL (      16 calls)
 
     Parallel routines
     fft_scatter  :      8.54s CPU      8.44s WALL (   55832 calls)

     PAW routines
     PAW_pot      :      1.64s CPU      1.70s WALL (      12 calls)
 
     PWSCF        :  0m57.82s CPU     1m 1.34s WALL

 
   This run was terminated on:  11:30:50  22May2017            

=------------------------------------------------------------------------------=
   JOB DONE.
=------------------------------------------------------------------------------=
