
     Program PWSCF v.6.1 starts on 20May2017 at 13:16: 1 

     This program is part of the open-source Quantum ESPRESSO suite
     for quantum simulation of materials; please cite
         "P. Giannozzi et al., J. Phys.:Condens. Matter 21 395502 (2009);
          URL http://www.quantum-espresso.org", 
     in publications or presentations arising from this work. More details at
     http://www.quantum-espresso.org/quote

     Parallel version (MPI & OpenMP), running on      32 processor cores
     Number of MPI processes:                32
     Threads/MPI process:                     1
     R & G space division:  proc/nbgrp/npool/nimage =      32
     Waiting for input...
     Reading input from standard input
Warning: card &IONS ignored
Warning: card     ION_TEMPERATURE   = 'INITIAL' ignored
Warning: card     TEMPW             = 586.D0 ignored
Warning: card     TOLP              = 100.D0 ignored
Warning: card     DELTA_T           = 1.D0 ignored
Warning: card     NRAISE            = 1 ignored
Warning: card / ignored
Warning: card &CELL ignored
Warning: card     CELL_DYNAMICS     = 'BFGS' ignored
Warning: card / ignored

     Current dimensions of program PWSCF are:
     Max number of different atomic species (ntypx) = 10
     Max number of k-points (npk) =  40000
     Max angular momentum in pseudopotentials (lmaxx) =  3
               file C.pbe-n-kjpaw_psl.1.0.0.UPF: wavefunction(s)  2S 2P renormalized
               file Cl.pbe-n-kjpaw_psl.1.0.0.UPF: wavefunction(s)  3S 3P renormalized
               file H.pbe-kjpaw_psl.1.0.0.UPF: wavefunction(s)  1S renormalized

     Subspace diagonalization in iterative solution of the eigenvalue problem:
     a serial algorithm will be used

 
     Parallelization info
     --------------------
     sticks:   dense  smooth     PW     G-vecs:    dense   smooth      PW
     Min         764     305     83                36108     9133    1292
     Max         765     306     84                36110     9135    1293
     Sum       24467    9791   2657              1155489   292295   41363
 


     bravais-lattice index     =            0
     lattice parameter (alat)  =       1.8897  a.u.
     unit-cell volume          =    2163.5316 (a.u.)^3
     number of atoms/cell      =           24
     number of atomic types    =            3
     number of electrons       =        84.00
     number of Kohn-Sham states=           42
     kinetic-energy cutoff     =     100.0000  Ry
     charge density cutoff     =    1000.0000  Ry
     convergence threshold     =      1.0E-07
     mixing beta               =       0.7000
     number of iterations used =            8  plain     mixing
     Exchange-correlation      =  SLA  PW   PBX  PBC ( 1  4  3  4 0 0)

     celldm(1)=   1.889726  celldm(2)=   0.000000  celldm(3)=   0.000000
     celldm(4)=   0.000000  celldm(5)=   0.000000  celldm(6)=   0.000000

     crystal axes: (cart. coord. in units of alat)
               a(1) = (  14.762000   0.000000   0.000000 )  
               a(2) = (   0.000000   5.832000   0.000000 )  
               a(3) = (  -1.563876   0.000000   3.723951 )  

     reciprocal axes: (cart. coord. in units 2 pi/alat)
               b(1) = (  0.067741  0.000000  0.028448 )  
               b(2) = (  0.000000  0.171468  0.000000 )  
               b(3) = (  0.000000  0.000000  0.268532 )  


     PseudoPot. # 1 for  C read from file:
     /global/cscratch1/sd/almno10/.data/PSEUDOPOTENTIALS/C.pbe-n-kjpaw_psl.1.0.0.UPF
     MD5 check sum: 2ba8448e293caca687844dde9a1b88a8
     Pseudo is Projector augmented-wave + core cor, Zval =  4.0
     Generated using "atomic" code by A. Dal Corso  v.5.3.0 svn rev. 11974
     Shape of augmentation charge: PSQ
     Using radial grid of 1073 points,  4 beta functions with: 
                l(1) =   0
                l(2) =   0
                l(3) =   1
                l(4) =   1
     Q(r) pseudized with 0 coefficients 


     PseudoPot. # 2 for Cl read from file:
     /global/cscratch1/sd/almno10/.data/PSEUDOPOTENTIALS/Cl.pbe-n-kjpaw_psl.1.0.0.UPF
     MD5 check sum: dca63699d6b897c5771335df08a09219
     Pseudo is Projector augmented-wave + core cor, Zval =  7.0
     Generated using "atomic" code by A. Dal Corso  v.5.3.0 svn rev. 11974
     Shape of augmentation charge: PSQ
     Using radial grid of 1157 points,  6 beta functions with: 
                l(1) =   0
                l(2) =   0
                l(3) =   1
                l(4) =   1
                l(5) =   2
                l(6) =   2
     Q(r) pseudized with 0 coefficients 


     PseudoPot. # 3 for  H read from file:
     /global/cscratch1/sd/almno10/.data/PSEUDOPOTENTIALS/H.pbe-kjpaw_psl.1.0.0.UPF
     MD5 check sum: bc0feb48a24907a0b97fa6ee2d589a29
     Pseudo is Projector augmented-wave, Zval =  1.0
     Generated using "atomic" code by A. Dal Corso  v.5.3.0 svn rev. 11974
     Shape of augmentation charge: PSQ
     Using radial grid of  929 points,  2 beta functions with: 
                l(1) =   0
                l(2) =   0
     Q(r) pseudized with 0 coefficients 


     atomic species   valence    mass     pseudopotential
        C              4.00    12.01100      C( 1.00)
        Cl             7.00    35.45270     Cl( 1.00)
        H              1.00     1.00790      H( 1.00)

     No symmetry found


                                    s                        frac. trans.

      isym =  1     identity                                     

 cryst.   s( 1) = (     1          0          0      )
                  (     0          1          0      )
                  (     0          0          1      )

 cart.    s( 1) = (  1.0000000  0.0000000 -0.0000000 )
                  (  0.0000000  1.0000000  0.0000000 )
                  (  0.0000000  0.0000000  1.0000000 )


   Cartesian axes

     site n.     atom                  positions (alat units)
         1           Cl  tau(   1) = (  16.4235845   1.2163823   2.2188436  )
         2           C   tau(   2) = (  15.1465269   2.2968253   1.9633707  )
         3           C   tau(   3) = (  15.2058544   3.4975474   2.6702277  )
         4           H   tau(   4) = (  16.0143068   3.7103617   3.3678522  )
         5           C   tau(   5) = (  14.1343170   4.3819807   2.5540447  )
         6           H   tau(   6) = (  14.1482351   5.3249416   3.0979307  )
         7           H   tau(   7) = (   6.1177776   1.8612647   0.5711464  )
         8           C   tau(   8) = (   6.2810143   0.9725296   1.1771629  )
         9           H   tau(   9) = (   4.2587496   0.2579030   0.9533854  )
        10           C   tau(  10) = (   5.2569917   0.0381973   1.3296690  )
        11           C   tau(  11) = (   5.4404981  -1.1129540   2.0941892  )
        12           Cl  tau(  12) = (   4.0460332  -2.1469185   2.3741481  )
        13           H   tau(  13) = (  14.1347901   1.1255074   0.4757913  )
        14           C   tau(  14) = (  14.0894701   2.0183258   1.0967025  )
        15           H   tau(  15) = (  12.2899769   2.7675622   0.1763562  )
        16           C   tau(  16) = (  13.1108637   2.9835178   0.8556345  )
        17           C   tau(  17) = (  13.0929529   4.1118890   1.6669907  )
        18           Cl  tau(  18) = (  11.5551486   5.1587013   1.5657397  )
        19           H   tau(  19) = (   6.8493000  -2.3261942   3.2330269  )
        20           C   tau(  20) = (   6.6921420  -1.4472603   2.6099559  )
        21           H   tau(  21) = (   8.7069197  -0.7224334   2.8507274  )
        22           C   tau(  22) = (   7.7131300  -0.5107507   2.4609245  )
        23           C   tau(  23) = (   7.5355143   0.6263883   1.6752059  )
        24           Cl  tau(  24) = (   9.0516273   1.4722692   1.3582374  )

   Crystallographic axes

     site n.     atom                  positions (cryst. coord.)
         1           Cl  tau(   1) = (  1.1756801  0.2085704  0.5958304  )
         2           C   tau(   2) = (  1.0819026  0.3938315  0.5272278  )
         3           C   tau(   3) = (  1.1060302  0.5997166  0.7170415  )
         4           H   tau(   4) = (  1.1806421  0.6362074  0.9043760  )
         5           C   tau(   5) = (  1.0301375  0.7513684  0.6858427  )
         6           H   tau(   6) = (  1.0465528  0.9130558  0.8318934  )
         7           H   tau(   7) = (  0.4306754  0.3191469  0.1533711  )
         8           C   tau(   8) = (  0.4589733  0.1667575  0.3161059  )
         9           H   tau(   9) = (  0.3156161  0.0442220  0.2560145  )
        10           C   tau(  10) = (  0.3939430  0.0065496  0.3570586  )
        11           C   tau(  11) = (  0.4281232 -0.1908357  0.5623568  )
        12           Cl  tau(  12) = (  0.3416243 -0.3681273  0.6375347  )
        13           H   tau(  13) = (  0.9710472  0.1929882  0.1277652  )
        14           C   tau(  14) = (  0.9856409  0.3460778  0.2944997  )
        15           H   tau(  15) = (  0.8375584  0.4745477  0.0473573  )
        16           C   tau(  16) = (  0.9124907  0.5115771  0.2297652  )
        17           C   tau(  17) = (  0.9343589  0.7050564  0.4476403  )
        18           Cl  tau(  18) = (  0.8273054  0.8845510  0.4204512  )
        19           H   tau(  19) = (  0.5559553 -0.3988673  0.8681711  )
        20           C   tau(  20) = (  0.5275840 -0.2481585  0.7008566  )
        21           H   tau(  21) = (  0.6709175 -0.1238740  0.7655114  )
        22           C   tau(  22) = (  0.5925076 -0.0875773  0.6608369  )
        23           C   tau(  23) = (  0.5581234  0.1074054  0.4498463  )
        24           Cl  tau(  24) = (  0.6518101  0.2524467  0.3647302  )

     number of k points=    16
                       cart. coord. in units 2pi/alat
        k(    1) = (   0.0169354   0.0214335   0.0406785), wk =   0.1250000
        k(    2) = (   0.0169354   0.0214335   0.1078115), wk =   0.1250000
        k(    3) = (   0.0169354   0.0214335  -0.0935875), wk =   0.1250000
        k(    4) = (   0.0169354   0.0214335  -0.0264545), wk =   0.1250000
        k(    5) = (   0.0169354   0.0643004   0.0406785), wk =   0.1250000
        k(    6) = (   0.0169354   0.0643004   0.1078115), wk =   0.1250000
        k(    7) = (   0.0169354   0.0643004  -0.0935875), wk =   0.1250000
        k(    8) = (   0.0169354   0.0643004  -0.0264545), wk =   0.1250000
        k(    9) = (  -0.0169354   0.0214335  -0.0406785), wk =   0.1250000
        k(   10) = (  -0.0169354   0.0214335  -0.1078115), wk =   0.1250000
        k(   11) = (  -0.0169354   0.0214335   0.0935875), wk =   0.1250000
        k(   12) = (  -0.0169354   0.0214335   0.0264545), wk =   0.1250000
        k(   13) = (  -0.0169354   0.0643004  -0.0406785), wk =   0.1250000
        k(   14) = (  -0.0169354   0.0643004  -0.1078115), wk =   0.1250000
        k(   15) = (  -0.0169354   0.0643004   0.0935875), wk =   0.1250000
        k(   16) = (  -0.0169354   0.0643004   0.0264545), wk =   0.1250000

                       cryst. coord.
        k(    1) = (   0.2500000   0.1250000   0.1250000), wk =   0.1250000
        k(    2) = (   0.2500000   0.1250000   0.3750000), wk =   0.1250000
        k(    3) = (   0.2500000   0.1250000  -0.3750000), wk =   0.1250000
        k(    4) = (   0.2500000   0.1250000  -0.1250000), wk =   0.1250000
        k(    5) = (   0.2500000   0.3750000   0.1250000), wk =   0.1250000
        k(    6) = (   0.2500000   0.3750000   0.3750000), wk =   0.1250000
        k(    7) = (   0.2500000   0.3750000  -0.3750000), wk =   0.1250000
        k(    8) = (   0.2500000   0.3750000  -0.1250000), wk =   0.1250000
        k(    9) = (  -0.2500000   0.1250000  -0.1250000), wk =   0.1250000
        k(   10) = (  -0.2500000   0.1250000  -0.3750000), wk =   0.1250000
        k(   11) = (  -0.2500000   0.1250000   0.3750000), wk =   0.1250000
        k(   12) = (  -0.2500000   0.1250000   0.1250000), wk =   0.1250000
        k(   13) = (  -0.2500000   0.3750000  -0.1250000), wk =   0.1250000
        k(   14) = (  -0.2500000   0.3750000  -0.3750000), wk =   0.1250000
        k(   15) = (  -0.2500000   0.3750000   0.3750000), wk =   0.1250000
        k(   16) = (  -0.2500000   0.3750000   0.1250000), wk =   0.1250000

     Dense  grid:  1155489 G-vectors     FFT dimensions: ( 288, 120,  80)

     Smooth grid:   292295 G-vectors     FFT dimensions: ( 180,  72,  50)

     Estimated max dynamical RAM per process >     147.21MB

     Estimated total allocated dynamical RAM >    4710.62MB

     Initial potential from superposition of free atoms

     starting charge   83.99939, renormalised to   84.00000
     Starting wfc are   72 randomized atomic wfcs
     Checking if some PAW data can be deallocated... 
       node    0, deallocated PAW data for type:  1
       node    0, deallocated PAW data for type:  3
       node    1, deallocated PAW data for type:  1
       node    1, deallocated PAW data for type:  3
       node    2, deallocated PAW data for type:  2
       node    2, deallocated PAW data for type:  3
       node    3, deallocated PAW data for type:  2
       node    3, deallocated PAW data for type:  3
       node    4, deallocated PAW data for type:  2
       node    4, deallocated PAW data for type:  3
       node    5, deallocated PAW data for type:  2
       node    5, deallocated PAW data for type:  3
       node    6, deallocated PAW data for type:  1
       node    6, deallocated PAW data for type:  2
       node    7, deallocated PAW data for type:  1
       node    7, deallocated PAW data for type:  2
       node    8, deallocated PAW data for type:  2
       node    8, deallocated PAW data for type:  3
       node    9, deallocated PAW data for type:  2
       node    9, deallocated PAW data for type:  3
       node   10, deallocated PAW data for type:  1
       node   10, deallocated PAW data for type:  2
       node   11, deallocated PAW data for type:  1
       node   11, deallocated PAW data for type:  2
       node   12, deallocated PAW data for type:  1
       node   12, deallocated PAW data for type:  2
       node   13, deallocated PAW data for type:  1
       node   13, deallocated PAW data for type:  2
       node   14, deallocated PAW data for type:  2
       node   14, deallocated PAW data for type:  3
       node   15, deallocated PAW data for type:  2
       node   15, deallocated PAW data for type:  3
       node   16, deallocated PAW data for type:  1
       node   16, deallocated PAW data for type:  2
       node   17, deallocated PAW data for type:  2
       node   17, deallocated PAW data for type:  3
       node   18, deallocated PAW data for type:  2
       node   18, deallocated PAW data for type:  3
       node   19, deallocated PAW data for type:  1
       node   19, deallocated PAW data for type:  3
       node   20, deallocated PAW data for type:  1
       node   20, deallocated PAW data for type:  2
       node   21, deallocated PAW data for type:  2
       node   21, deallocated PAW data for type:  3
       node   22, deallocated PAW data for type:  1
       node   22, deallocated PAW data for type:  2
       node   23, deallocated PAW data for type:  2
       node   23, deallocated PAW data for type:  3
       node   24, deallocated PAW data for type:  2
       node   24, deallocated PAW data for type:  3
       node   25, deallocated PAW data for type:  1
       node   25, deallocated PAW data for type:  3
       node   26, deallocated PAW data for type:  1
       node   26, deallocated PAW data for type:  2
       node   27, deallocated PAW data for type:  2
       node   27, deallocated PAW data for type:  3
       node   28, deallocated PAW data for type:  1
       node   28, deallocated PAW data for type:  2
       node   29, deallocated PAW data for type:  2
       node   29, deallocated PAW data for type:  3
       node   30, deallocated PAW data for type:  2
       node   30, deallocated PAW data for type:  3
       node   31, deallocated PAW data for type:  1
       node   31, deallocated PAW data for type:  3

     total cpu time spent up to now is        5.2 secs

     per-process dynamical memory:    20.7 Mb

     Self-consistent Calculation

     iteration #  1     ecut=   100.00 Ry     beta= 0.70
     Davidson diagonalization with overlap
     ethr =  1.00E-04,  avg # of iterations =  4.9

     total cpu time spent up to now is       12.0 secs

     total energy              =    -547.10880724 Ry
     Harris-Foulkes estimate   =    -548.97819170 Ry
     estimated scf accuracy    <       2.73378221 Ry

     iteration #  2     ecut=   100.00 Ry     beta= 0.70
     Davidson diagonalization with overlap
     ethr =  3.25E-03,  avg # of iterations =  3.0

     total cpu time spent up to now is       16.9 secs

     total energy              =    -547.50259704 Ry
     Harris-Foulkes estimate   =    -548.60373089 Ry
     estimated scf accuracy    <       1.99483131 Ry

     iteration #  3     ecut=   100.00 Ry     beta= 0.70
     Davidson diagonalization with overlap
     ethr =  2.37E-03,  avg # of iterations =  3.0

     total cpu time spent up to now is       21.3 secs

     total energy              =    -547.99695372 Ry
     Harris-Foulkes estimate   =    -548.04247528 Ry
     estimated scf accuracy    <       0.09073998 Ry

     iteration #  4     ecut=   100.00 Ry     beta= 0.70
     Davidson diagonalization with overlap
     ethr =  1.08E-04,  avg # of iterations =  4.0

     total cpu time spent up to now is       26.2 secs

     total energy              =    -548.02566337 Ry
     Harris-Foulkes estimate   =    -548.03782844 Ry
     estimated scf accuracy    <       0.02438189 Ry

     iteration #  5     ecut=   100.00 Ry     beta= 0.70
     Davidson diagonalization with overlap
     ethr =  2.90E-05,  avg # of iterations =  3.0

     total cpu time spent up to now is       30.6 secs

     total energy              =    -548.03060433 Ry
     Harris-Foulkes estimate   =    -548.03123362 Ry
     estimated scf accuracy    <       0.00124665 Ry

     iteration #  6     ecut=   100.00 Ry     beta= 0.70
     Davidson diagonalization with overlap
     ethr =  1.48E-06,  avg # of iterations =  4.0

     total cpu time spent up to now is       35.6 secs

     total energy              =    -548.03089164 Ry
     Harris-Foulkes estimate   =    -548.03120652 Ry
     estimated scf accuracy    <       0.00068798 Ry

     iteration #  7     ecut=   100.00 Ry     beta= 0.70
     Davidson diagonalization with overlap
     ethr =  8.19E-07,  avg # of iterations =  4.0

     total cpu time spent up to now is       40.1 secs

     total energy              =    -548.03103553 Ry
     Harris-Foulkes estimate   =    -548.03109648 Ry
     estimated scf accuracy    <       0.00015166 Ry

     iteration #  8     ecut=   100.00 Ry     beta= 0.70
     Davidson diagonalization with overlap
     ethr =  1.81E-07,  avg # of iterations =  4.0

     total cpu time spent up to now is       44.5 secs

     total energy              =    -548.03106590 Ry
     Harris-Foulkes estimate   =    -548.03107908 Ry
     estimated scf accuracy    <       0.00003228 Ry

     iteration #  9     ecut=   100.00 Ry     beta= 0.70
     Davidson diagonalization with overlap
     ethr =  3.84E-08,  avg # of iterations =  4.0

     total cpu time spent up to now is       48.9 secs

     total energy              =    -548.03107251 Ry
     Harris-Foulkes estimate   =    -548.03107392 Ry
     estimated scf accuracy    <       0.00000312 Ry

     iteration # 10     ecut=   100.00 Ry     beta= 0.70
     Davidson diagonalization with overlap
     ethr =  3.71E-09,  avg # of iterations =  4.0

     total cpu time spent up to now is       53.6 secs

     total energy              =    -548.03107335 Ry
     Harris-Foulkes estimate   =    -548.03107365 Ry
     estimated scf accuracy    <       0.00000068 Ry

     iteration # 11     ecut=   100.00 Ry     beta= 0.70
     Davidson diagonalization with overlap
     ethr =  8.10E-10,  avg # of iterations =  4.0

     total cpu time spent up to now is       58.2 secs

     End of self-consistent calculation

          k = 0.0169 0.0214 0.0407 ( 36525 PWs)   bands (ev):

   -16.2623 -15.9620 -15.2574 -15.1508 -13.8759 -13.8206 -12.4075 -12.2711
   -11.3724 -11.1701  -9.0353  -8.8935  -8.2643  -8.1203  -6.4014  -6.1645
    -5.3613  -5.2243  -5.0368  -4.7284  -4.2035  -4.1753  -4.0993  -3.8120
    -3.3184  -3.0109  -2.7493  -2.6303  -2.4601  -2.1801  -2.0670  -2.0108
    -1.2421  -1.1609  -1.0409  -0.9951  -0.8573  -0.7423  -0.1855   0.1120
     0.5138   0.7166

     occupation numbers 
     1.0000   1.0000   1.0000   1.0000   1.0000   1.0000   1.0000   1.0000
     1.0000   1.0000   1.0000   1.0000   1.0000   1.0000   1.0000   1.0000
     1.0000   1.0000   1.0000   1.0000   1.0000   1.0000   1.0000   1.0000
     1.0000   1.0000   1.0000   1.0000   1.0000   1.0000   1.0000   1.0000
     1.0000   1.0000   1.0000   1.0000   1.0000   1.0000   1.0000   1.0000
     1.0000   1.0000

          k = 0.0169 0.0214 0.1078 ( 36561 PWs)   bands (ev):

   -16.2000 -15.8418 -15.1955 -15.0902 -13.8905 -13.8027 -12.4262 -12.2383
   -11.3478 -11.2201  -9.0127  -8.8658  -8.2378  -8.0837  -6.3942  -6.2647
    -5.3687  -5.2200  -5.0307  -4.8571  -4.3297  -4.2409  -4.1635  -3.9047
    -3.7922  -3.6774  -2.8818  -2.7037  -2.6110  -2.3378  -2.2641  -2.2353
    -1.3253  -1.1353  -1.0456  -0.9898  -0.9292  -0.7367  -0.2469  -0.1592
     0.4825   0.9793

     occupation numbers 
     1.0000   1.0000   1.0000   1.0000   1.0000   1.0000   1.0000   1.0000
     1.0000   1.0000   1.0000   1.0000   1.0000   1.0000   1.0000   1.0000
     1.0000   1.0000   1.0000   1.0000   1.0000   1.0000   1.0000   1.0000
     1.0000   1.0000   1.0000   1.0000   1.0000   1.0000   1.0000   1.0000
     1.0000   1.0000   1.0000   1.0000   1.0000   1.0000   1.0000   1.0000
     1.0000   1.0000

          k = 0.0169 0.0214-0.0936 ( 36547 PWs)   bands (ev):

   -16.2016 -15.8320 -15.2064 -15.0876 -13.8968 -13.8070 -12.4181 -12.2428
   -11.3442 -11.2074  -9.0386  -8.8286  -8.2623  -8.0355  -6.3849  -6.3570
    -5.3785  -5.2156  -5.0604  -4.8668  -4.2415  -4.2099  -4.1507  -3.9776
    -3.7544  -3.6992  -2.7983  -2.7438  -2.5693  -2.4407  -2.3611  -2.2307
    -1.2746  -1.1825  -1.0437  -0.9839  -0.8633  -0.7079  -0.1777  -0.1678
     0.4931   0.9697

     occupation numbers 
     1.0000   1.0000   1.0000   1.0000   1.0000   1.0000   1.0000   1.0000
     1.0000   1.0000   1.0000   1.0000   1.0000   1.0000   1.0000   1.0000
     1.0000   1.0000   1.0000   1.0000   1.0000   1.0000   1.0000   1.0000
     1.0000   1.0000   1.0000   1.0000   1.0000   1.0000   1.0000   1.0000
     1.0000   1.0000   1.0000   1.0000   1.0000   1.0000   1.0000   1.0000
     1.0000   1.0000

          k = 0.0169 0.0214-0.0265 ( 36551 PWs)   bands (ev):

   -16.2640 -15.9538 -15.2671 -15.1476 -13.8732 -13.8338 -12.3996 -12.2754
   -11.3708 -11.1551  -9.0624  -8.8612  -8.2939  -8.0605  -6.4244  -6.2190
    -5.3746  -5.2135  -5.0948  -4.7098  -4.2441  -4.1494  -3.9807  -3.7964
    -3.3074  -3.0535  -2.8347  -2.5806  -2.4451  -2.2712  -2.1135  -1.9834
    -1.2098  -1.0958  -1.0627  -0.9949  -0.8741  -0.6936  -0.1942   0.1795
     0.5255   0.7079

     occupation numbers 
     1.0000   1.0000   1.0000   1.0000   1.0000   1.0000   1.0000   1.0000
     1.0000   1.0000   1.0000   1.0000   1.0000   1.0000   1.0000   1.0000
     1.0000   1.0000   1.0000   1.0000   1.0000   1.0000   1.0000   1.0000
     1.0000   1.0000   1.0000   1.0000   1.0000   1.0000   1.0000   1.0000
     1.0000   1.0000   1.0000   1.0000   1.0000   1.0000   1.0000   1.0000
     1.0000   1.0000

          k = 0.0169 0.0643 0.0407 ( 36518 PWs)   bands (ev):

   -16.2359 -15.9324 -15.2688 -15.1625 -13.9041 -13.8594 -12.4477 -12.3050
   -11.3769 -11.1657  -8.9445  -8.8050  -8.1902  -8.0601  -6.3969  -6.2234
    -5.3439  -5.1747  -5.0564  -4.8750  -4.3396  -4.2865  -4.1155  -3.8307
    -3.3910  -3.0864  -2.7090  -2.5870  -2.4306  -2.2915  -2.1018  -1.9707
    -1.0679  -1.0596  -0.9267  -0.8995  -0.7818  -0.7501  -0.1285   0.1425
     0.5812   0.7256

     occupation numbers 
     1.0000   1.0000   1.0000   1.0000   1.0000   1.0000   1.0000   1.0000
     1.0000   1.0000   1.0000   1.0000   1.0000   1.0000   1.0000   1.0000
     1.0000   1.0000   1.0000   1.0000   1.0000   1.0000   1.0000   1.0000
     1.0000   1.0000   1.0000   1.0000   1.0000   1.0000   1.0000   1.0000
     1.0000   1.0000   1.0000   1.0000   1.0000   1.0000   1.0000   1.0000
     1.0000   1.0000

          k = 0.0169 0.0643 0.1078 ( 36558 PWs)   bands (ev):

   -16.1794 -15.8303 -15.1940 -15.0982 -13.8938 -13.8285 -12.4456 -12.2576
   -11.3533 -11.2498  -8.9760  -8.8521  -8.2134  -8.1075  -6.3929  -6.1980
    -5.3628  -5.2116  -4.9573  -4.7529  -4.3095  -4.2190  -4.1552  -3.9992
    -3.8944  -3.8346  -2.7619  -2.6843  -2.5625  -2.4564  -2.4193  -2.1505
    -1.2803  -1.1281  -1.0798  -0.9561  -0.8692  -0.8285  -0.0744  -0.0146
     0.4782   0.9965

     occupation numbers 
     1.0000   1.0000   1.0000   1.0000   1.0000   1.0000   1.0000   1.0000
     1.0000   1.0000   1.0000   1.0000   1.0000   1.0000   1.0000   1.0000
     1.0000   1.0000   1.0000   1.0000   1.0000   1.0000   1.0000   1.0000
     1.0000   1.0000   1.0000   1.0000   1.0000   1.0000   1.0000   1.0000
     1.0000   1.0000   1.0000   1.0000   1.0000   1.0000   1.0000   1.0000
     1.0000   1.0000

          k = 0.0169 0.0643-0.0936 ( 36547 PWs)   bands (ev):

   -16.1809 -15.8206 -15.2033 -15.0971 -13.9053 -13.8275 -12.4376 -12.2615
   -11.3543 -11.2340  -9.0013  -8.8120  -8.2360  -8.0669  -6.4135  -6.2654
    -5.3689  -5.2057  -4.9291  -4.8097  -4.2835  -4.2106  -4.0789  -4.0233
    -3.8853  -3.8385  -2.7487  -2.7338  -2.6389  -2.4438  -2.3751  -2.2195
    -1.2303  -1.1380  -1.0697  -0.9237  -0.8848  -0.7988  -0.0371   0.0052
     0.4867   0.9916

     occupation numbers 
     1.0000   1.0000   1.0000   1.0000   1.0000   1.0000   1.0000   1.0000
     1.0000   1.0000   1.0000   1.0000   1.0000   1.0000   1.0000   1.0000
     1.0000   1.0000   1.0000   1.0000   1.0000   1.0000   1.0000   1.0000
     1.0000   1.0000   1.0000   1.0000   1.0000   1.0000   1.0000   1.0000
     1.0000   1.0000   1.0000   1.0000   1.0000   1.0000   1.0000   1.0000
     1.0000   1.0000

          k = 0.0169 0.0643-0.0265 ( 36489 PWs)   bands (ev):

   -16.2374 -15.9242 -15.2762 -15.1615 -13.9102 -13.8639 -12.4398 -12.3075
   -11.3796 -11.1501  -8.9688  -8.7703  -8.2031  -8.0172  -6.4314  -6.2911
    -5.3418  -5.1881  -5.0492  -4.8706  -4.3222  -4.2031  -4.0950  -3.9169
    -3.3685  -3.1255  -2.7001  -2.4825  -2.4559  -2.4207  -2.1189  -1.9724
    -1.1273  -0.9815  -0.9604  -0.8550  -0.7843  -0.6922  -0.1331   0.2155
     0.5824   0.7201

     occupation numbers 
     1.0000   1.0000   1.0000   1.0000   1.0000   1.0000   1.0000   1.0000
     1.0000   1.0000   1.0000   1.0000   1.0000   1.0000   1.0000   1.0000
     1.0000   1.0000   1.0000   1.0000   1.0000   1.0000   1.0000   1.0000
     1.0000   1.0000   1.0000   1.0000   1.0000   1.0000   1.0000   1.0000
     1.0000   1.0000   1.0000   1.0000   1.0000   1.0000   1.0000   1.0000
     1.0000   1.0000

          k =-0.0169 0.0214-0.0407 ( 36525 PWs)   bands (ev):

   -16.2636 -15.9550 -15.2618 -15.1519 -13.8838 -13.8235 -12.3996 -12.2736
   -11.3755 -11.1531  -9.0622  -8.8568  -8.2714  -8.0918  -6.4225  -6.2255
    -5.3732  -5.2045  -4.9937  -4.8126  -4.2165  -4.1368  -3.9863  -3.8950
    -3.2831  -3.0480  -2.7544  -2.5998  -2.4480  -2.2864  -2.0881  -1.9990
    -1.2602  -1.1120  -1.0373  -0.9807  -0.8426  -0.7151  -0.1918   0.1807
     0.5111   0.7170

     occupation numbers 
     1.0000   1.0000   1.0000   1.0000   1.0000   1.0000   1.0000   1.0000
     1.0000   1.0000   1.0000   1.0000   1.0000   1.0000   1.0000   1.0000
     1.0000   1.0000   1.0000   1.0000   1.0000   1.0000   1.0000   1.0000
     1.0000   1.0000   1.0000   1.0000   1.0000   1.0000   1.0000   1.0000
     1.0000   1.0000   1.0000   1.0000   1.0000   1.0000   1.0000   1.0000
     1.0000   1.0000

          k =-0.0169 0.0214-0.1078 ( 36561 PWs)   bands (ev):

   -16.2015 -15.8325 -15.2031 -15.0908 -13.8989 -13.8045 -12.4181 -12.2432
   -11.3470 -11.2042  -9.0389  -8.8286  -8.2610  -8.0378  -6.4153  -6.3206
    -5.3780  -5.2122  -5.0053  -4.9483  -4.2728  -4.2191  -4.1332  -3.9041
    -3.7765  -3.6919  -2.8990  -2.6862  -2.5906  -2.3805  -2.3350  -2.2493
    -1.3494  -1.1624  -1.0365  -0.9521  -0.8677  -0.7049  -0.1923  -0.1570
     0.4866   0.9753

     occupation numbers 
     1.0000   1.0000   1.0000   1.0000   1.0000   1.0000   1.0000   1.0000
     1.0000   1.0000   1.0000   1.0000   1.0000   1.0000   1.0000   1.0000
     1.0000   1.0000   1.0000   1.0000   1.0000   1.0000   1.0000   1.0000
     1.0000   1.0000   1.0000   1.0000   1.0000   1.0000   1.0000   1.0000
     1.0000   1.0000   1.0000   1.0000   1.0000   1.0000   1.0000   1.0000
     1.0000   1.0000

          k =-0.0169 0.0214 0.0936 ( 36547 PWs)   bands (ev):

   -16.2002 -15.8412 -15.1983 -15.0879 -13.8827 -13.8106 -12.4262 -12.2386
   -11.3430 -11.2243  -9.0122  -8.8669  -8.2452  -8.0750  -6.3821  -6.2794
    -5.3696  -5.2141  -5.0712  -4.8068  -4.3001  -4.2446  -4.1862  -3.9468
    -3.7769  -3.6863  -2.8224  -2.7182  -2.5585  -2.3859  -2.3050  -2.2496
    -1.2635  -1.1584  -1.0616  -0.9828  -0.9318  -0.7407  -0.2472  -0.1561
     0.4877   0.9741

     occupation numbers 
     1.0000   1.0000   1.0000   1.0000   1.0000   1.0000   1.0000   1.0000
     1.0000   1.0000   1.0000   1.0000   1.0000   1.0000   1.0000   1.0000
     1.0000   1.0000   1.0000   1.0000   1.0000   1.0000   1.0000   1.0000
     1.0000   1.0000   1.0000   1.0000   1.0000   1.0000   1.0000   1.0000
     1.0000   1.0000   1.0000   1.0000   1.0000   1.0000   1.0000   1.0000
     1.0000   1.0000

          k =-0.0169 0.0214 0.0265 ( 36551 PWs)   bands (ev):

   -16.2626 -15.9612 -15.2607 -15.1481 -13.8736 -13.8226 -12.4078 -12.2716
   -11.3728 -11.1687  -9.0371  -8.8936  -8.2835  -8.0944  -6.4272  -6.1395
    -5.3626  -5.2245  -5.0933  -4.6486  -4.2759  -4.1708  -4.0503  -3.7906
    -3.3102  -3.0276  -2.8258  -2.5975  -2.4560  -2.1314  -2.1061  -2.0137
    -1.2082  -1.1414  -1.0530  -1.0148  -0.8762  -0.7361  -0.1851   0.1142
     0.5303   0.7017

     occupation numbers 
     1.0000   1.0000   1.0000   1.0000   1.0000   1.0000   1.0000   1.0000
     1.0000   1.0000   1.0000   1.0000   1.0000   1.0000   1.0000   1.0000
     1.0000   1.0000   1.0000   1.0000   1.0000   1.0000   1.0000   1.0000
     1.0000   1.0000   1.0000   1.0000   1.0000   1.0000   1.0000   1.0000
     1.0000   1.0000   1.0000   1.0000   1.0000   1.0000   1.0000   1.0000
     1.0000   1.0000

          k =-0.0169 0.0643-0.0407 ( 36518 PWs)   bands (ev):

   -16.2372 -15.9246 -15.2743 -15.1632 -13.9127 -13.8610 -12.4402 -12.3083
   -11.3800 -11.1481  -8.9694  -8.7705  -8.1990  -8.0266  -6.4248  -6.2773
    -5.3409  -5.1877  -5.0339  -4.9296  -4.3291  -4.2362  -4.0472  -3.8836
    -3.3599  -3.1238  -2.7048  -2.5755  -2.4347  -2.3906  -2.0870  -1.9811
    -1.1122  -1.0277  -0.8987  -0.8322  -0.8107  -0.7228  -0.1321   0.2146
     0.5834   0.7202

     occupation numbers 
     1.0000   1.0000   1.0000   1.0000   1.0000   1.0000   1.0000   1.0000
     1.0000   1.0000   1.0000   1.0000   1.0000   1.0000   1.0000   1.0000
     1.0000   1.0000   1.0000   1.0000   1.0000   1.0000   1.0000   1.0000
     1.0000   1.0000   1.0000   1.0000   1.0000   1.0000   1.0000   1.0000
     1.0000   1.0000   1.0000   1.0000   1.0000   1.0000   1.0000   1.0000
     1.0000   1.0000

          k =-0.0169 0.0643-0.1078 ( 36558 PWs)   bands (ev):

   -16.1809 -15.8207 -15.2017 -15.0988 -13.9011 -13.8316 -12.4376 -12.2616
   -11.3530 -11.2348  -9.0017  -8.8126  -8.2364  -8.0669  -6.4018  -6.2719
    -5.3663  -5.1959  -4.9141  -4.8593  -4.2754  -4.2169  -4.0875  -3.9506
    -3.9241  -3.8618  -2.7769  -2.6671  -2.5728  -2.4647  -2.3937  -2.2693
    -1.2734  -1.1428  -1.0435  -0.9406  -0.8685  -0.7732  -0.0451   0.0149
     0.4817   0.9914

     occupation numbers 
     1.0000   1.0000   1.0000   1.0000   1.0000   1.0000   1.0000   1.0000
     1.0000   1.0000   1.0000   1.0000   1.0000   1.0000   1.0000   1.0000
     1.0000   1.0000   1.0000   1.0000   1.0000   1.0000   1.0000   1.0000
     1.0000   1.0000   1.0000   1.0000   1.0000   1.0000   1.0000   1.0000
     1.0000   1.0000   1.0000   1.0000   1.0000   1.0000   1.0000   1.0000
     1.0000   1.0000

          k =-0.0169 0.0643 0.0936 ( 36547 PWs)   bands (ev):

   -16.1794 -15.8301 -15.1946 -15.0979 -13.8921 -13.8300 -12.4455 -12.2582
   -11.3532 -11.2494  -8.9754  -8.8524  -8.2211  -8.0993  -6.4049  -6.1860
    -5.3657  -5.2160  -4.9730  -4.7091  -4.3109  -4.2490  -4.1596  -4.0123
    -3.8962  -3.7904  -2.7616  -2.7214  -2.5812  -2.4776  -2.3820  -2.1245
    -1.2436  -1.1582  -1.0752  -0.9700  -0.8879  -0.8114  -0.0709  -0.0189
     0.4836   0.9939

     occupation numbers 
     1.0000   1.0000   1.0000   1.0000   1.0000   1.0000   1.0000   1.0000
     1.0000   1.0000   1.0000   1.0000   1.0000   1.0000   1.0000   1.0000
     1.0000   1.0000   1.0000   1.0000   1.0000   1.0000   1.0000   1.0000
     1.0000   1.0000   1.0000   1.0000   1.0000   1.0000   1.0000   1.0000
     1.0000   1.0000   1.0000   1.0000   1.0000   1.0000   1.0000   1.0000
     1.0000   1.0000

          k =-0.0169 0.0643 0.0265 ( 36489 PWs)   bands (ev):

   -16.2359 -15.9324 -15.2687 -15.1623 -13.9099 -13.8541 -12.4477 -12.3028
   -11.3814 -11.1645  -8.9457  -8.8004  -8.1791  -8.0686  -6.4300  -6.2162
    -5.3456  -5.1746  -5.0324  -4.8294  -4.3202  -4.2644  -4.1266  -3.9570
    -3.3843  -3.0858  -2.6887  -2.5181  -2.4306  -2.3099  -2.1144  -1.9871
    -1.1062  -1.0303  -0.9443  -0.8609  -0.8121  -0.7324  -0.1294   0.1478
     0.5925   0.7105

     occupation numbers 
     1.0000   1.0000   1.0000   1.0000   1.0000   1.0000   1.0000   1.0000
     1.0000   1.0000   1.0000   1.0000   1.0000   1.0000   1.0000   1.0000
     1.0000   1.0000   1.0000   1.0000   1.0000   1.0000   1.0000   1.0000
     1.0000   1.0000   1.0000   1.0000   1.0000   1.0000   1.0000   1.0000
     1.0000   1.0000   1.0000   1.0000   1.0000   1.0000   1.0000   1.0000
     1.0000   1.0000

     highest occupied level (ev):     0.9965

!    total energy              =    -548.03107349 Ry
     Harris-Foulkes estimate   =    -548.03107351 Ry
     estimated scf accuracy    <       0.00000004 Ry

     total all-electron energy =     -4615.874561 Ry

     The total energy is the sum of the following terms:

     one-electron contribution =    -153.52597563 Ry
     hartree contribution      =     108.14407924 Ry
     xc contribution           =    -104.19089143 Ry
     ewald contribution        =    -142.67606841 Ry
     one-center paw contrib.   =    -255.78221725 Ry
      -> PAW hartree energy AE =      19.58021475 Ry
      -> PAW hartree energy PS =     -19.47496473 Ry
      -> PAW xc energy AE      =     -55.73332185 Ry
      -> PAW xc energy PS      =      10.18437060 Ry
      -> total E_H with PAW    =     108.24932926 Ry
      -> total E_XC with PAW   =    -149.73984269 Ry

     convergence has been achieved in  11 iterations
 writing file ./scratch/scf-385.save/charge-density
 writing file ./scratch/scf-385.save/charge-density
 writing file ./scratch/scf-385.save/charge-density
 writing file ./scratch/scf-385.save/charge-density
 writing file ./scratch/scf-385.save/charge-density
 writing file ./scratch/scf-385.save/charge-density
 writing file ./scratch/scf-385.save/charge-density
 writing file ./scratch/scf-385.save/charge-density
 writing file ./scratch/scf-385.save/charge-density
 writing file ./scratch/scf-385.save/charge-density
 writing file ./scratch/scf-385.save/charge-density
 writing file ./scratch/scf-385.save/charge-density
 writing file ./scratch/scf-385.save/charge-density
 writing file ./scratch/scf-385.save/charge-density
 writing file ./scratch/scf-385.save/charge-density
 writing file ./scratch/scf-385.save/charge-density
 writing file ./scratch/scf-385.save/charge-density
 writing file ./scratch/scf-385.save/charge-density
 writing file ./scratch/scf-385.save/charge-density
 writing file ./scratch/scf-385.save/charge-density
 writing file ./scratch/scf-385.save/charge-density
 writing file ./scratch/scf-385.save/charge-density
 writing file ./scratch/scf-385.save/charge-density
 writing file ./scratch/scf-385.save/charge-density
 writing file ./scratch/scf-385.save/charge-density
 writing file ./scratch/scf-385.save/charge-density
 writing file ./scratch/scf-385.save/charge-density
 writing file ./scratch/scf-385.save/charge-density
 writing file ./scratch/scf-385.save/charge-density
 writing file ./scratch/scf-385.save/charge-density
 writing file ./scratch/scf-385.save/charge-density
 writing file ./scratch/scf-385.save/charge-density

     Forces acting on atoms (cartesian axes, Ry/au):

     atom    1 type  2   force =     0.03267513   -0.04121640   -0.00353212
     atom    2 type  1   force =    -0.02162752    0.03370428    0.00856374
     atom    3 type  1   force =    -0.02776562    0.00366769    0.00231601
     atom    4 type  3   force =     0.00094449   -0.00030734   -0.00353597
     atom    5 type  1   force =    -0.00986877    0.02816263   -0.00723165
     atom    6 type  3   force =    -0.00212459   -0.00358280    0.00667233
     atom    7 type  3   force =     0.00227049    0.00129998    0.00183629
     atom    8 type  1   force =     0.01955977   -0.01085570   -0.02266711
     atom    9 type  3   force =     0.00218414    0.00248085   -0.00328174
     atom   10 type  1   force =    -0.01932604    0.01070068    0.02486902
     atom   11 type  1   force =    -0.00269647   -0.00762139   -0.01055775
     atom   12 type  2   force =     0.01305316    0.00261285   -0.00897543
     atom   13 type  3   force =    -0.00732287   -0.00468593    0.00381556
     atom   14 type  1   force =     0.02359991    0.00659715   -0.02917050
     atom   15 type  3   force =     0.00114416    0.00160364   -0.00482838
     atom   16 type  1   force =    -0.01600142   -0.01775714    0.02797797
     atom   17 type  1   force =    -0.04579888    0.02081979   -0.00971408
     atom   18 type  2   force =     0.07042596   -0.03113397    0.00949720
     atom   19 type  3   force =    -0.00203208   -0.00262094   -0.00388617
     atom   20 type  1   force =    -0.01117702    0.02008931    0.02269318
     atom   21 type  3   force =    -0.00194990   -0.00202899    0.00260260
     atom   22 type  1   force =     0.00790844   -0.02443734   -0.02199227
     atom   23 type  1   force =     0.01891000   -0.00714153    0.01591047
     atom   24 type  2   force =    -0.02498448    0.02165062    0.00261879
     The non-local contrib.  to forces
     atom    1 type  2   force =    -0.30258577    0.24048322   -0.06876905
     atom    2 type  1   force =     0.34310171   -0.30646249    0.07911931
     atom    3 type  1   force =    -0.07698228   -0.02043709   -0.03128213
     atom    4 type  3   force =    -0.05817402   -0.01557305   -0.05088157
     atom    5 type  1   force =    -0.05276140    0.00379473   -0.06923558
     atom    6 type  3   force =    -0.00155760   -0.06796172   -0.03868915
     atom    7 type  3   force =     0.01218411   -0.06437188    0.04418048
     atom    8 type  1   force =     0.07488525   -0.07154604    0.02030622
     atom    9 type  3   force =     0.07170406   -0.01597540    0.02687371
     atom   10 type  1   force =     0.02113150   -0.01403685    0.06662792
     atom   11 type  1   force =    -0.39070668   -0.32321167    0.03684120
     atom   12 type  2   force =     0.31659479    0.22917862   -0.06847903
     atom   13 type  3   force =    -0.00301409    0.06389585    0.04525342
     atom   14 type  1   force =     0.06762036    0.05270286    0.01278940
     atom   15 type  3   force =     0.05978125    0.01590458    0.04931250
     atom   16 type  1   force =     0.01380178    0.00841021    0.08129216
     atom   17 type  1   force =    -0.40587584    0.32940389   -0.04029774
     atom   18 type  2   force =     0.33576762   -0.21022000    0.02380658
     atom   19 type  3   force =    -0.01183179    0.06326238   -0.04547233
     atom   20 type  1   force =    -0.06495912    0.06715709   -0.01148679
     atom   21 type  3   force =    -0.07223366    0.01527954   -0.02849501
     atom   22 type  1   force =    -0.04710047    0.00338217   -0.06545821
     atom   23 type  1   force =     0.41890157    0.29610036   -0.05418294
     atom   24 type  2   force =    -0.35709907   -0.15068361    0.07499968
     The ionic contribution  to forces
     atom    1 type  2   force =     4.73220921   -4.70777486    0.78427939
     atom    2 type  1   force =     1.13581000   -1.69201620    0.09246291
     atom    3 type  1   force =     3.35056799    1.90216908    2.59777252
     atom    4 type  3   force =     1.64060394    0.65731035    1.48799195
     atom    5 type  1   force =    -0.01770225    3.92638731    2.33262279
     atom    6 type  3   force =     0.00827749    1.95167911    1.21651420
     atom    7 type  3   force =    -0.42480632    1.81973726   -1.19548933
     atom    8 type  1   force =    -1.16171409    4.37515148   -1.78419101
     atom    9 type  3   force =    -2.26579907    0.57229610   -0.90535646
     atom   10 type  1   force =    -4.23012354    1.42571195   -2.33794654
     atom   11 type  1   force =    -1.89120169   -1.83690463    0.15772003
     atom   12 type  2   force =    -5.24377734   -3.60771727    0.02481169
     atom   13 type  3   force =    -0.28598806   -1.90878938   -1.47005136
     atom   14 type  1   force =    -1.90239020   -4.21362510   -2.43367568
     atom   15 type  3   force =    -2.03020606   -0.64676109   -1.61824088
     atom   16 type  1   force =    -4.22648823   -1.31191608   -3.86275382
     atom   17 type  1   force =    -3.12370631    2.29524789   -0.75334194
     atom   18 type  2   force =    -4.65636019    2.87005346   -0.55001751
     atom   19 type  3   force =     0.78884163   -1.85972291    1.40388346
     atom   20 type  1   force =     2.36072930   -4.49319690    2.28103255
     atom   21 type  3   force =     2.37429154   -0.75314553    0.97812061
     atom   22 type  1   force =     4.96873824   -1.68309072    2.72668861
     atom   23 type  1   force =     2.67078271    2.29827921    0.16730117
     atom   24 type  2   force =     7.42941128    4.62063747    0.65986270
     The local contribution  to forces
     atom    1 type  2   force =    -4.40769489    4.43414126   -0.72177854
     atom    2 type  1   force =    -1.49225367    2.02452614   -0.16139405
     atom    3 type  1   force =    -3.30067363   -1.87747687   -2.56352856
     atom    4 type  3   force =    -1.58149647   -0.64203977   -1.44065408
     atom    5 type  1   force =     0.05981581   -3.90040701   -2.27024841
     atom    6 type  3   force =    -0.00882865   -1.88732217   -1.17116002
     atom    7 type  3   force =     0.41488722   -1.75407091    1.15314540
     atom    8 type  1   force =     1.10699675   -4.31329814    1.74093171
     atom    9 type  3   force =     2.19626678   -0.55383513    0.87519371
     atom   10 type  1   force =     4.18841766   -1.40074373    2.29578635
     atom   11 type  1   force =     2.26901578    2.14423569   -0.20368327
     atom   12 type  2   force =     4.95333476    3.39061128    0.03163627
     atom   13 type  3   force =     0.28169565    1.84018448    1.42861022
     atom   14 type  1   force =     1.85883569    4.16626485    2.39143917
     atom   15 type  3   force =     1.97155683    0.63246143    1.56408934
     atom   16 type  1   force =     4.19585261    1.28567769    3.80844463
     atom   17 type  1   force =     3.47266064   -2.59430056    0.78313334
     atom   18 type  2   force =     4.40748369   -2.70092405    0.53697140
     atom   19 type  3   force =    -0.77903662    1.79382904   -1.36229407
     atom   20 type  1   force =    -2.30733575    4.44483610   -2.24637439
     atom   21 type  3   force =    -2.30400768    0.73584511   -0.94702559
     atom   22 type  1   force =    -4.91290258    1.65507031   -2.68277472
     atom   23 type  1   force =    -3.06018836   -2.59340731   -0.09920287
     atom   24 type  2   force =    -7.11288747   -4.45388228   -0.72892291
     The core correction contribution to forces
     atom    1 type  2   force =     0.01072295   -0.00809677    0.00275209
     atom    2 type  1   force =    -0.00820791    0.00769678   -0.00155821
     atom    3 type  1   force =    -0.00067747   -0.00051865   -0.00063162
     atom    4 type  3   force =     0.00000000    0.00000000    0.00000000
     atom    5 type  1   force =     0.00088759   -0.00158891   -0.00032419
     atom    6 type  3   force =     0.00000000    0.00000000    0.00000000
     atom    7 type  3   force =     0.00000000    0.00000000    0.00000000
     atom    8 type  1   force =    -0.00059781   -0.00111938    0.00027367
     atom    9 type  3   force =     0.00000000    0.00000000    0.00000000
     atom   10 type  1   force =     0.00117266   -0.00015306    0.00033872
     atom   11 type  1   force =     0.01012190    0.00826395   -0.00147389
     atom   12 type  2   force =    -0.01328334   -0.00949747    0.00295430
     atom   13 type  3   force =     0.00000000    0.00000000    0.00000000
     atom   14 type  1   force =    -0.00035847    0.00122558    0.00032091
     atom   15 type  3   force =     0.00000000    0.00000000    0.00000000
     atom   16 type  1   force =     0.00084236    0.00011079    0.00099019
     atom   17 type  1   force =     0.01123189   -0.00945084    0.00087205
     atom   18 type  2   force =    -0.01652562    0.01000898   -0.00128027
     atom   19 type  3   force =     0.00000000    0.00000000    0.00000000
     atom   20 type  1   force =     0.00045267    0.00126884   -0.00045639
     atom   21 type  3   force =     0.00000000    0.00000000    0.00000000
     atom   22 type  1   force =    -0.00076366    0.00025636   -0.00045336
     atom   23 type  1   force =    -0.01056808   -0.00806530    0.00199702
     atom   24 type  2   force =     0.01549975    0.00550549   -0.00325368
     The Hubbard contrib.    to forces
     atom    1 type  2   force =     0.00000000    0.00000000    0.00000000
     atom    2 type  1   force =     0.00000000    0.00000000    0.00000000
     atom    3 type  1   force =     0.00000000    0.00000000    0.00000000
     atom    4 type  3   force =     0.00000000    0.00000000    0.00000000
     atom    5 type  1   force =     0.00000000    0.00000000    0.00000000
     atom    6 type  3   force =     0.00000000    0.00000000    0.00000000
     atom    7 type  3   force =     0.00000000    0.00000000    0.00000000
     atom    8 type  1   force =     0.00000000    0.00000000    0.00000000
     atom    9 type  3   force =     0.00000000    0.00000000    0.00000000
     atom   10 type  1   force =     0.00000000    0.00000000    0.00000000
     atom   11 type  1   force =     0.00000000    0.00000000    0.00000000
     atom   12 type  2   force =     0.00000000    0.00000000    0.00000000
     atom   13 type  3   force =     0.00000000    0.00000000    0.00000000
     atom   14 type  1   force =     0.00000000    0.00000000    0.00000000
     atom   15 type  3   force =     0.00000000    0.00000000    0.00000000
     atom   16 type  1   force =     0.00000000    0.00000000    0.00000000
     atom   17 type  1   force =     0.00000000    0.00000000    0.00000000
     atom   18 type  2   force =     0.00000000    0.00000000    0.00000000
     atom   19 type  3   force =     0.00000000    0.00000000    0.00000000
     atom   20 type  1   force =     0.00000000    0.00000000    0.00000000
     atom   21 type  3   force =     0.00000000    0.00000000    0.00000000
     atom   22 type  1   force =     0.00000000    0.00000000    0.00000000
     atom   23 type  1   force =     0.00000000    0.00000000    0.00000000
     atom   24 type  2   force =     0.00000000    0.00000000    0.00000000
     The SCF correction term to forces
     atom    1 type  2   force =     0.00002331    0.00003164   -0.00001685
     atom    2 type  1   force =    -0.00007797   -0.00003904   -0.00006707
     atom    3 type  1   force =    -0.00000054   -0.00006787   -0.00001505
     atom    4 type  3   force =     0.00001073   -0.00000397    0.00000689
     atom    5 type  1   force =    -0.00010883   -0.00002258   -0.00004710
     atom    6 type  3   force =    -0.00001615    0.00002289    0.00000646
     atom    7 type  3   force =     0.00000515    0.00000641   -0.00000111
     atom    8 type  1   force =    -0.00001064   -0.00004271    0.00001146
     atom    9 type  3   force =     0.00001205   -0.00000381    0.00000645
     atom   10 type  1   force =     0.00007535   -0.00007673    0.00006173
     atom   11 type  1   force =     0.00007391   -0.00000383    0.00003734
     atom   12 type  2   force =     0.00018398    0.00003859    0.00010050
     atom   13 type  3   force =    -0.00001668    0.00002402    0.00000243
     atom   14 type  1   force =    -0.00010778    0.00002986   -0.00004516
     atom   15 type  3   force =     0.00001182   -0.00000038    0.00000981
     atom   16 type  1   force =    -0.00001025   -0.00003884    0.00000396
     atom   17 type  1   force =    -0.00010956   -0.00007969   -0.00008064
     atom   18 type  2   force =     0.00006014   -0.00005145    0.00001615
     atom   19 type  3   force =    -0.00000561    0.00001146   -0.00000409
     atom   20 type  1   force =    -0.00006442    0.00002509   -0.00002265
     atom   21 type  3   force =    -0.00000041   -0.00000721    0.00000174
     atom   22 type  1   force =    -0.00006341   -0.00005456    0.00000456
     atom   23 type  1   force =    -0.00001816   -0.00004758   -0.00000276
     atom   24 type  2   force =     0.00009071    0.00007445   -0.00006786

     Total force =     0.156230     Total SCF correction =     0.000432

     Writing output data file scf-385.save
 writing file ./scratch/scf-385.save/charge-density
 writing file ./scratch/scf-385.save/charge-density
 writing file ./scratch/scf-385.save/charge-density
 writing file ./scratch/scf-385.save/charge-density
 writing file ./scratch/scf-385.save/charge-density
 writing file ./scratch/scf-385.save/charge-density
 writing file ./scratch/scf-385.save/charge-density
 writing file ./scratch/scf-385.save/charge-density
 writing file ./scratch/scf-385.save/charge-density
 writing file ./scratch/scf-385.save/charge-density
 writing file ./scratch/scf-385.save/charge-density
 writing file ./scratch/scf-385.save/charge-density
 writing file ./scratch/scf-385.save/charge-density
 writing file ./scratch/scf-385.save/charge-density
 writing file ./scratch/scf-385.save/charge-density
 writing file ./scratch/scf-385.save/charge-density
 writing file ./scratch/scf-385.save/charge-density
 writing file ./scratch/scf-385.save/charge-density
 writing file ./scratch/scf-385.save/charge-density
 writing file ./scratch/scf-385.save/charge-density
 writing file ./scratch/scf-385.save/charge-density
 writing file ./scratch/scf-385.save/charge-density
 writing file ./scratch/scf-385.save/charge-density
 writing file ./scratch/scf-385.save/charge-density
 writing file ./scratch/scf-385.save/charge-density
 writing file ./scratch/scf-385.save/charge-density
 writing file ./scratch/scf-385.save/charge-density
 writing file ./scratch/scf-385.save/charge-density
 writing file ./scratch/scf-385.save/charge-density
 writing file ./scratch/scf-385.save/charge-density
 writing file ./scratch/scf-385.save/charge-density
 writing file ./scratch/scf-385.save/charge-density
 
     init_run     :      4.40s CPU      4.62s WALL (       1 calls)
     electrons    :     50.33s CPU     53.12s WALL (       1 calls)
     forces       :      2.34s CPU      2.47s WALL (       1 calls)

     Called by init_run:
     wfcinit      :      1.64s CPU      1.65s WALL (       1 calls)
     wfcinit:atom :      0.02s CPU      0.02s WALL (      16 calls)
     wfcinit:wfcr :      1.52s CPU      1.53s WALL (      16 calls)
     potinit      :      0.89s CPU      0.91s WALL (       1 calls)

     Called by electrons:
     c_bands      :     39.22s CPU     39.52s WALL (      11 calls)
     sum_band     :      7.00s CPU      8.16s WALL (      11 calls)
     v_of_rho     :      0.93s CPU      0.97s WALL (      12 calls)
     v_h          :      0.06s CPU      0.06s WALL (      12 calls)
     v_xc         :      0.95s CPU      0.98s WALL (      13 calls)
     newd         :      1.53s CPU      2.86s WALL (      12 calls)
     PAW_pot      :      1.64s CPU      1.69s WALL (      12 calls)
     mix_rho      :      0.14s CPU      0.14s WALL (      11 calls)

     Called by c_bands:
     init_us_2    :      0.89s CPU      0.86s WALL (     384 calls)
     cegterg      :     36.92s CPU     37.14s WALL (     176 calls)

     Called by sum_band:
     sum_band:bec :      0.02s CPU      0.02s WALL (     176 calls)
     addusdens    :      1.57s CPU      2.69s WALL (      11 calls)

     Called by *egterg:
     h_psi        :     27.65s CPU     27.80s WALL (     863 calls)
     s_psi        :      2.02s CPU      2.05s WALL (     863 calls)
     g_psi        :      0.17s CPU      0.16s WALL (     671 calls)
     cdiaghg      :      3.44s CPU      3.41s WALL (     847 calls)
     cegterg:over :      1.67s CPU      1.63s WALL (     671 calls)
     cegterg:upda :      1.17s CPU      1.27s WALL (     671 calls)
     cegterg:last :      0.47s CPU      0.44s WALL (     192 calls)

     Called by h_psi:
     h_psi:pot    :     27.34s CPU     27.53s WALL (     863 calls)
     h_psi:calbec :      2.20s CPU      2.26s WALL (     863 calls)
     vloc_psi     :     23.12s CPU     23.27s WALL (     863 calls)
     add_vuspsi   :      2.00s CPU      1.99s WALL (     863 calls)

     General routines
     calbec       :      2.95s CPU      3.01s WALL (    1103 calls)
     fft          :      0.77s CPU      0.79s WALL (     199 calls)
     ffts         :      0.02s CPU      0.03s WALL (      23 calls)
     fftw         :     20.94s CPU     20.91s WALL (   55474 calls)
     interpolate  :      0.14s CPU      0.15s WALL (      23 calls)
     davcio       :      0.00s CPU      0.01s WALL (      16 calls)
 
     Parallel routines
     fft_scatter  :      7.21s CPU      7.16s WALL (   55696 calls)

     PAW routines
     PAW_pot      :      1.64s CPU      1.69s WALL (      12 calls)
 
     PWSCF        :  0m57.77s CPU     1m 1.32s WALL

 
   This run was terminated on:  13:17: 2  20May2017            

=------------------------------------------------------------------------------=
   JOB DONE.
=------------------------------------------------------------------------------=
