
     Program PWSCF v.6.1 starts on 20May2017 at 10:15:38 

     This program is part of the open-source Quantum ESPRESSO suite
     for quantum simulation of materials; please cite
         "P. Giannozzi et al., J. Phys.:Condens. Matter 21 395502 (2009);
          URL http://www.quantum-espresso.org", 
     in publications or presentations arising from this work. More details at
     http://www.quantum-espresso.org/quote

     Parallel version (MPI & OpenMP), running on      32 processor cores
     Number of MPI processes:                32
     Threads/MPI process:                     1
     R & G space division:  proc/nbgrp/npool/nimage =      32
     Waiting for input...
     Reading input from standard input
Warning: card &IONS ignored
Warning: card     ION_TEMPERATURE   = 'INITIAL' ignored
Warning: card     TEMPW             = 586.D0 ignored
Warning: card     TOLP              = 100.D0 ignored
Warning: card     DELTA_T           = 1.D0 ignored
Warning: card     NRAISE            = 1 ignored
Warning: card / ignored
Warning: card &CELL ignored
Warning: card     CELL_DYNAMICS     = 'BFGS' ignored
Warning: card / ignored

     Current dimensions of program PWSCF are:
     Max number of different atomic species (ntypx) = 10
     Max number of k-points (npk) =  40000
     Max angular momentum in pseudopotentials (lmaxx) =  3
               file C.pbe-n-kjpaw_psl.1.0.0.UPF: wavefunction(s)  2S 2P renormalized
               file Cl.pbe-n-kjpaw_psl.1.0.0.UPF: wavefunction(s)  3S 3P renormalized
               file H.pbe-kjpaw_psl.1.0.0.UPF: wavefunction(s)  1S renormalized

     Subspace diagonalization in iterative solution of the eigenvalue problem:
     a serial algorithm will be used

 
     Parallelization info
     --------------------
     sticks:   dense  smooth     PW     G-vecs:    dense   smooth      PW
     Min         764     305     83                36108     9133    1292
     Max         765     306     84                36110     9135    1293
     Sum       24467    9791   2657              1155489   292295   41363
 


     bravais-lattice index     =            0
     lattice parameter (alat)  =       1.8897  a.u.
     unit-cell volume          =    2163.5316 (a.u.)^3
     number of atoms/cell      =           24
     number of atomic types    =            3
     number of electrons       =        84.00
     number of Kohn-Sham states=           42
     kinetic-energy cutoff     =     100.0000  Ry
     charge density cutoff     =    1000.0000  Ry
     convergence threshold     =      1.0E-07
     mixing beta               =       0.7000
     number of iterations used =            8  plain     mixing
     Exchange-correlation      =  SLA  PW   PBX  PBC ( 1  4  3  4 0 0)

     celldm(1)=   1.889726  celldm(2)=   0.000000  celldm(3)=   0.000000
     celldm(4)=   0.000000  celldm(5)=   0.000000  celldm(6)=   0.000000

     crystal axes: (cart. coord. in units of alat)
               a(1) = (  14.762000   0.000000   0.000000 )  
               a(2) = (   0.000000   5.832000   0.000000 )  
               a(3) = (  -1.563876   0.000000   3.723951 )  

     reciprocal axes: (cart. coord. in units 2 pi/alat)
               b(1) = (  0.067741  0.000000  0.028448 )  
               b(2) = (  0.000000  0.171468  0.000000 )  
               b(3) = (  0.000000  0.000000  0.268532 )  


     PseudoPot. # 1 for  C read from file:
     /global/cscratch1/sd/almno10/.data/PSEUDOPOTENTIALS/C.pbe-n-kjpaw_psl.1.0.0.UPF
     MD5 check sum: 2ba8448e293caca687844dde9a1b88a8
     Pseudo is Projector augmented-wave + core cor, Zval =  4.0
     Generated using "atomic" code by A. Dal Corso  v.5.3.0 svn rev. 11974
     Shape of augmentation charge: PSQ
     Using radial grid of 1073 points,  4 beta functions with: 
                l(1) =   0
                l(2) =   0
                l(3) =   1
                l(4) =   1
     Q(r) pseudized with 0 coefficients 


     PseudoPot. # 2 for Cl read from file:
     /global/cscratch1/sd/almno10/.data/PSEUDOPOTENTIALS/Cl.pbe-n-kjpaw_psl.1.0.0.UPF
     MD5 check sum: dca63699d6b897c5771335df08a09219
     Pseudo is Projector augmented-wave + core cor, Zval =  7.0
     Generated using "atomic" code by A. Dal Corso  v.5.3.0 svn rev. 11974
     Shape of augmentation charge: PSQ
     Using radial grid of 1157 points,  6 beta functions with: 
                l(1) =   0
                l(2) =   0
                l(3) =   1
                l(4) =   1
                l(5) =   2
                l(6) =   2
     Q(r) pseudized with 0 coefficients 


     PseudoPot. # 3 for  H read from file:
     /global/cscratch1/sd/almno10/.data/PSEUDOPOTENTIALS/H.pbe-kjpaw_psl.1.0.0.UPF
     MD5 check sum: bc0feb48a24907a0b97fa6ee2d589a29
     Pseudo is Projector augmented-wave, Zval =  1.0
     Generated using "atomic" code by A. Dal Corso  v.5.3.0 svn rev. 11974
     Shape of augmentation charge: PSQ
     Using radial grid of  929 points,  2 beta functions with: 
                l(1) =   0
                l(2) =   0
     Q(r) pseudized with 0 coefficients 


     atomic species   valence    mass     pseudopotential
        C              4.00    12.01100      C( 1.00)
        Cl             7.00    35.45270     Cl( 1.00)
        H              1.00     1.00790      H( 1.00)

     No symmetry found


                                    s                        frac. trans.

      isym =  1     identity                                     

 cryst.   s( 1) = (     1          0          0      )
                  (     0          1          0      )
                  (     0          0          1      )

 cart.    s( 1) = (  1.0000000  0.0000000 -0.0000000 )
                  (  0.0000000  1.0000000  0.0000000 )
                  (  0.0000000  0.0000000  1.0000000 )


   Cartesian axes

     site n.     atom                  positions (alat units)
         1           Cl  tau(   1) = (  16.3583881   1.1955107   1.8050956  )
         2           C   tau(   2) = (  15.0358825   2.3362892   1.7169741  )
         3           C   tau(   3) = (  15.0927828   3.5910878   2.3204570  )
         4           H   tau(   4) = (  15.9976014   3.9292868   2.8228426  )
         5           C   tau(   5) = (  13.8901747   4.2684688   2.5191576  )
         6           H   tau(   6) = (  13.8919141   5.2490115   2.9928119  )
         7           H   tau(   7) = (   6.6442543   2.0551567   0.6002807  )
         8           C   tau(   8) = (   6.6750283   1.1426362   1.1928559  )
         9           H   tau(   9) = (   4.7210164   0.4838182   0.5643751  )
        10           C   tau(  10) = (   5.6238690   0.2298338   1.1172041  )
        11           C   tau(  11) = (   5.6466561  -0.9486294   1.8621623  )
        12           Cl  tau(  12) = (   4.2225237  -2.0165181   1.7316122  )
        13           H   tau(  13) = (  13.8804334   0.9558409   0.5282612  )
        14           C   tau(  14) = (  13.8716455   1.8835099   1.0966691  )
        15           H   tau(  15) = (  11.8014231   2.3013759   0.6674880  )
        16           C   tau(  16) = (  12.7093467   2.6509045   1.1550651  )
        17           C   tau(  17) = (  12.7300407   3.8316349   1.8806955  )
        18           Cl  tau(  18) = (  11.2306200   4.7927865   1.9887854  )
        19           H   tau(  19) = (   6.7730509  -2.1897652   3.2561045  )
        20           C   tau(  20) = (   6.7466760  -1.2856726   2.6497101  )
        21           H   tau(  21) = (   8.7007449  -0.6293096   3.2775231  )
        22           C   tau(  22) = (   7.8257356  -0.4038560   2.6711609  )
        23           C   tau(  23) = (   7.8090842   0.7624162   1.9082717  )
        24           Cl  tau(  24) = (   9.2823270   1.6556395   2.0135247  )

   Crystallographic axes

     site n.     atom                  positions (cryst. coord.)
         1           Cl  tau(   1) = (  1.1594932  0.2049915  0.4847259  )
         2           C   tau(   2) = (  1.0673978  0.4005983  0.4610624  )
         3           C   tau(   3) = (  1.0884203  0.6157558  0.6231169  )
         4           H   tau(   4) = (  1.1640059  0.6737460  0.7580235  )
         5           C   tau(   5) = (  1.0126065  0.7319048  0.6764743  )
         6           H   tau(   6) = (  1.0261988  0.9000363  0.8036657  )
         7           H   tau(   7) = (  0.4671686  0.3523931  0.1611946  )
         8           C   tau(   8) = (  0.4861109  0.1959253  0.3203199  )
         9           H   tau(   9) = (  0.3358641  0.0829592  0.1515528  )
        10           C   tau(  10) = (  0.4127516  0.0394091  0.3000050  )
        11           C   tau(  11) = (  0.4354879 -0.1626594  0.5000501  )
        12           Cl  tau(  12) = (  0.3353011 -0.3457679  0.4649932  )
        13           H   tau(  13) = (  0.9553094  0.1638959  0.1418550  )
        14           C   tau(  14) = (  0.9708842  0.3229612  0.2944907  )
        15           H   tau(  15) = (  0.8184348  0.3946118  0.1792419  )
        16           C   tau(  16) = (  0.8938096  0.4545447  0.3101719  )
        17           C   tau(  17) = (  0.9158542  0.6570019  0.5050269  )
        18           Cl  tau(  18) = (  0.8173562  0.8218084  0.5340525  )
        19           H   tau(  19) = (  0.5514465 -0.3754741  0.8743681  )
        20           C   tau(  20) = (  0.5324091 -0.2204514  0.7115319  )
        21           H   tau(  21) = (  0.6826408 -0.1079063  0.8801197  )
        22           C   tau(  22) = (  0.6061165 -0.0692483  0.7172921  )
        23           C   tau(  23) = (  0.5832857  0.1307298  0.5124320  )
        24           Cl  tau(  24) = (  0.6860797  0.2838888  0.5406958  )

     number of k points=    16
                       cart. coord. in units 2pi/alat
        k(    1) = (   0.0169354   0.0214335   0.0406785), wk =   0.1250000
        k(    2) = (   0.0169354   0.0214335   0.1078115), wk =   0.1250000
        k(    3) = (   0.0169354   0.0214335  -0.0935875), wk =   0.1250000
        k(    4) = (   0.0169354   0.0214335  -0.0264545), wk =   0.1250000
        k(    5) = (   0.0169354   0.0643004   0.0406785), wk =   0.1250000
        k(    6) = (   0.0169354   0.0643004   0.1078115), wk =   0.1250000
        k(    7) = (   0.0169354   0.0643004  -0.0935875), wk =   0.1250000
        k(    8) = (   0.0169354   0.0643004  -0.0264545), wk =   0.1250000
        k(    9) = (  -0.0169354   0.0214335  -0.0406785), wk =   0.1250000
        k(   10) = (  -0.0169354   0.0214335  -0.1078115), wk =   0.1250000
        k(   11) = (  -0.0169354   0.0214335   0.0935875), wk =   0.1250000
        k(   12) = (  -0.0169354   0.0214335   0.0264545), wk =   0.1250000
        k(   13) = (  -0.0169354   0.0643004  -0.0406785), wk =   0.1250000
        k(   14) = (  -0.0169354   0.0643004  -0.1078115), wk =   0.1250000
        k(   15) = (  -0.0169354   0.0643004   0.0935875), wk =   0.1250000
        k(   16) = (  -0.0169354   0.0643004   0.0264545), wk =   0.1250000

                       cryst. coord.
        k(    1) = (   0.2500000   0.1250000   0.1250000), wk =   0.1250000
        k(    2) = (   0.2500000   0.1250000   0.3750000), wk =   0.1250000
        k(    3) = (   0.2500000   0.1250000  -0.3750000), wk =   0.1250000
        k(    4) = (   0.2500000   0.1250000  -0.1250000), wk =   0.1250000
        k(    5) = (   0.2500000   0.3750000   0.1250000), wk =   0.1250000
        k(    6) = (   0.2500000   0.3750000   0.3750000), wk =   0.1250000
        k(    7) = (   0.2500000   0.3750000  -0.3750000), wk =   0.1250000
        k(    8) = (   0.2500000   0.3750000  -0.1250000), wk =   0.1250000
        k(    9) = (  -0.2500000   0.1250000  -0.1250000), wk =   0.1250000
        k(   10) = (  -0.2500000   0.1250000  -0.3750000), wk =   0.1250000
        k(   11) = (  -0.2500000   0.1250000   0.3750000), wk =   0.1250000
        k(   12) = (  -0.2500000   0.1250000   0.1250000), wk =   0.1250000
        k(   13) = (  -0.2500000   0.3750000  -0.1250000), wk =   0.1250000
        k(   14) = (  -0.2500000   0.3750000  -0.3750000), wk =   0.1250000
        k(   15) = (  -0.2500000   0.3750000   0.3750000), wk =   0.1250000
        k(   16) = (  -0.2500000   0.3750000   0.1250000), wk =   0.1250000

     Dense  grid:  1155489 G-vectors     FFT dimensions: ( 288, 120,  80)

     Smooth grid:   292295 G-vectors     FFT dimensions: ( 180,  72,  50)

     Estimated max dynamical RAM per process >     147.21MB

     Estimated total allocated dynamical RAM >    4710.62MB

     Initial potential from superposition of free atoms

     starting charge   83.99939, renormalised to   84.00000
     Starting wfc are   72 randomized atomic wfcs
     Checking if some PAW data can be deallocated... 
       node    0, deallocated PAW data for type:  1
       node    0, deallocated PAW data for type:  3
       node    1, deallocated PAW data for type:  1
       node    1, deallocated PAW data for type:  3
       node    2, deallocated PAW data for type:  2
       node    2, deallocated PAW data for type:  3
       node    3, deallocated PAW data for type:  2
       node    3, deallocated PAW data for type:  3
       node    4, deallocated PAW data for type:  2
       node    4, deallocated PAW data for type:  3
       node    5, deallocated PAW data for type:  2
       node    5, deallocated PAW data for type:  3
       node    6, deallocated PAW data for type:  1
       node    6, deallocated PAW data for type:  2
       node    7, deallocated PAW data for type:  1
       node    7, deallocated PAW data for type:  2
       node    8, deallocated PAW data for type:  2
       node    8, deallocated PAW data for type:  3
       node    9, deallocated PAW data for type:  2
       node    9, deallocated PAW data for type:  3
       node   10, deallocated PAW data for type:  1
       node   10, deallocated PAW data for type:  2
       node   11, deallocated PAW data for type:  1
       node   11, deallocated PAW data for type:  2
       node   12, deallocated PAW data for type:  1
       node   12, deallocated PAW data for type:  2
       node   13, deallocated PAW data for type:  1
       node   13, deallocated PAW data for type:  2
       node   14, deallocated PAW data for type:  2
       node   14, deallocated PAW data for type:  3
       node   15, deallocated PAW data for type:  2
       node   15, deallocated PAW data for type:  3
       node   16, deallocated PAW data for type:  1
       node   16, deallocated PAW data for type:  2
       node   17, deallocated PAW data for type:  2
       node   17, deallocated PAW data for type:  3
       node   18, deallocated PAW data for type:  2
       node   18, deallocated PAW data for type:  3
       node   19, deallocated PAW data for type:  1
       node   19, deallocated PAW data for type:  3
       node   20, deallocated PAW data for type:  1
       node   20, deallocated PAW data for type:  2
       node   21, deallocated PAW data for type:  2
       node   21, deallocated PAW data for type:  3
       node   22, deallocated PAW data for type:  1
       node   22, deallocated PAW data for type:  2
       node   23, deallocated PAW data for type:  2
       node   23, deallocated PAW data for type:  3
       node   24, deallocated PAW data for type:  2
       node   24, deallocated PAW data for type:  3
       node   25, deallocated PAW data for type:  1
       node   25, deallocated PAW data for type:  3
       node   26, deallocated PAW data for type:  1
       node   26, deallocated PAW data for type:  2
       node   27, deallocated PAW data for type:  2
       node   27, deallocated PAW data for type:  3
       node   28, deallocated PAW data for type:  1
       node   28, deallocated PAW data for type:  2
       node   29, deallocated PAW data for type:  2
       node   29, deallocated PAW data for type:  3
       node   30, deallocated PAW data for type:  2
       node   30, deallocated PAW data for type:  3
       node   31, deallocated PAW data for type:  1
       node   31, deallocated PAW data for type:  3

     total cpu time spent up to now is        5.4 secs

     per-process dynamical memory:    20.7 Mb

     Self-consistent Calculation

     iteration #  1     ecut=   100.00 Ry     beta= 0.70
     Davidson diagonalization with overlap
     ethr =  1.00E-04,  avg # of iterations =  5.0

     total cpu time spent up to now is       12.0 secs

     total energy              =    -547.13567806 Ry
     Harris-Foulkes estimate   =    -548.99220713 Ry
     estimated scf accuracy    <       2.72115342 Ry

     iteration #  2     ecut=   100.00 Ry     beta= 0.70
     Davidson diagonalization with overlap
     ethr =  3.24E-03,  avg # of iterations =  3.0

     total cpu time spent up to now is       16.8 secs

     total energy              =    -547.53312124 Ry
     Harris-Foulkes estimate   =    -548.60558428 Ry
     estimated scf accuracy    <       1.93463792 Ry

     iteration #  3     ecut=   100.00 Ry     beta= 0.70
     Davidson diagonalization with overlap
     ethr =  2.30E-03,  avg # of iterations =  2.9

     total cpu time spent up to now is       21.2 secs

     total energy              =    -548.01538588 Ry
     Harris-Foulkes estimate   =    -548.05693035 Ry
     estimated scf accuracy    <       0.08366910 Ry

     iteration #  4     ecut=   100.00 Ry     beta= 0.70
     Davidson diagonalization with overlap
     ethr =  9.96E-05,  avg # of iterations =  3.9

     total cpu time spent up to now is       25.9 secs

     total energy              =    -548.04253799 Ry
     Harris-Foulkes estimate   =    -548.05274384 Ry
     estimated scf accuracy    <       0.02010895 Ry

     iteration #  5     ecut=   100.00 Ry     beta= 0.70
     Davidson diagonalization with overlap
     ethr =  2.39E-05,  avg # of iterations =  3.0

     total cpu time spent up to now is       30.2 secs

     total energy              =    -548.04660597 Ry
     Harris-Foulkes estimate   =    -548.04726780 Ry
     estimated scf accuracy    <       0.00125097 Ry

     iteration #  6     ecut=   100.00 Ry     beta= 0.70
     Davidson diagonalization with overlap
     ethr =  1.49E-06,  avg # of iterations =  4.0

     total cpu time spent up to now is       34.9 secs

     total energy              =    -548.04681817 Ry
     Harris-Foulkes estimate   =    -548.04729815 Ry
     estimated scf accuracy    <       0.00118015 Ry

     iteration #  7     ecut=   100.00 Ry     beta= 0.70
     Davidson diagonalization with overlap
     ethr =  1.40E-06,  avg # of iterations =  4.0

     total cpu time spent up to now is       39.2 secs

     total energy              =    -548.04706296 Ry
     Harris-Foulkes estimate   =    -548.04710238 Ry
     estimated scf accuracy    <       0.00010990 Ry

     iteration #  8     ecut=   100.00 Ry     beta= 0.70
     Davidson diagonalization with overlap
     ethr =  1.31E-07,  avg # of iterations =  4.0

     total cpu time spent up to now is       43.5 secs

     total energy              =    -548.04708440 Ry
     Harris-Foulkes estimate   =    -548.04708994 Ry
     estimated scf accuracy    <       0.00001178 Ry

     iteration #  9     ecut=   100.00 Ry     beta= 0.70
     Davidson diagonalization with overlap
     ethr =  1.40E-08,  avg # of iterations =  4.0

     total cpu time spent up to now is       48.2 secs

     total energy              =    -548.04708726 Ry
     Harris-Foulkes estimate   =    -548.04708829 Ry
     estimated scf accuracy    <       0.00000231 Ry

     iteration # 10     ecut=   100.00 Ry     beta= 0.70
     Davidson diagonalization with overlap
     ethr =  2.75E-09,  avg # of iterations =  4.0

     total cpu time spent up to now is       52.7 secs

     total energy              =    -548.04708776 Ry
     Harris-Foulkes estimate   =    -548.04708789 Ry
     estimated scf accuracy    <       0.00000027 Ry

     iteration # 11     ecut=   100.00 Ry     beta= 0.70
     Davidson diagonalization with overlap
     ethr =  3.25E-10,  avg # of iterations =  4.0

     total cpu time spent up to now is       57.4 secs

     End of self-consistent calculation

          k = 0.0169 0.0214 0.0407 ( 36525 PWs)   bands (ev):

   -16.0840 -15.9967 -15.3171 -15.2293 -13.9393 -13.8991 -12.3612 -12.3421
   -11.2758 -11.2551  -8.9983  -8.9552  -8.2402  -8.1450  -6.3858  -6.2791
    -5.3341  -5.2851  -5.0281  -4.8035  -4.1942  -4.1233  -4.0321  -3.8945
    -3.1938  -3.1704  -2.7165  -2.6068  -2.4014  -2.3174  -2.1786  -2.0952
    -1.3018  -1.1481  -1.0000  -0.9259  -0.8350  -0.7161  -0.0928   0.0320
     0.5620   0.7549

     occupation numbers 
     1.0000   1.0000   1.0000   1.0000   1.0000   1.0000   1.0000   1.0000
     1.0000   1.0000   1.0000   1.0000   1.0000   1.0000   1.0000   1.0000
     1.0000   1.0000   1.0000   1.0000   1.0000   1.0000   1.0000   1.0000
     1.0000   1.0000   1.0000   1.0000   1.0000   1.0000   1.0000   1.0000
     1.0000   1.0000   1.0000   1.0000   1.0000   1.0000   1.0000   1.0000
     1.0000   1.0000

          k = 0.0169 0.0214 0.1078 ( 36561 PWs)   bands (ev):

   -16.0033 -15.9157 -15.2651 -15.1881 -13.9278 -13.8642 -12.3456 -12.3339
   -11.2989 -11.2348  -8.9665  -8.9219  -8.2020  -8.1407  -6.3764  -6.2750
    -5.3292  -5.2896  -5.0232  -4.9524  -4.3405  -4.1490  -4.1160  -4.0068
    -3.7549  -3.7108  -2.8411  -2.7640  -2.5629  -2.3938  -2.3331  -2.2420
    -1.3630  -1.2122  -1.1528  -1.0190  -0.8662  -0.6871  -0.2544  -0.2026
     0.6043   0.7525

     occupation numbers 
     1.0000   1.0000   1.0000   1.0000   1.0000   1.0000   1.0000   1.0000
     1.0000   1.0000   1.0000   1.0000   1.0000   1.0000   1.0000   1.0000
     1.0000   1.0000   1.0000   1.0000   1.0000   1.0000   1.0000   1.0000
     1.0000   1.0000   1.0000   1.0000   1.0000   1.0000   1.0000   1.0000
     1.0000   1.0000   1.0000   1.0000   1.0000   1.0000   1.0000   1.0000
     1.0000   1.0000

          k = 0.0169 0.0214-0.0936 ( 36547 PWs)   bands (ev):

   -16.0025 -15.9171 -15.2723 -15.1799 -13.9185 -13.8729 -12.3518 -12.3284
   -11.2921 -11.2431  -8.9548  -8.9318  -8.2156  -8.1330  -6.3528  -6.2881
    -5.3175  -5.2916  -5.0944  -4.8705  -4.3508  -4.2110  -4.0798  -4.0177
    -3.7476  -3.7161  -2.7842  -2.6896  -2.5469  -2.4345  -2.3601  -2.3327
    -1.2962  -1.2036  -1.1497  -1.0600  -0.8576  -0.6953  -0.2955  -0.1714
     0.5967   0.7606

     occupation numbers 
     1.0000   1.0000   1.0000   1.0000   1.0000   1.0000   1.0000   1.0000
     1.0000   1.0000   1.0000   1.0000   1.0000   1.0000   1.0000   1.0000
     1.0000   1.0000   1.0000   1.0000   1.0000   1.0000   1.0000   1.0000
     1.0000   1.0000   1.0000   1.0000   1.0000   1.0000   1.0000   1.0000
     1.0000   1.0000   1.0000   1.0000   1.0000   1.0000   1.0000   1.0000
     1.0000   1.0000

          k = 0.0169 0.0214-0.0265 ( 36551 PWs)   bands (ev):

   -16.0855 -15.9950 -15.3261 -15.2203 -13.9313 -13.9057 -12.3552 -12.3504
   -11.2799 -11.2505  -8.9896  -8.9651  -8.2840  -8.0974  -6.4334  -6.2179
    -5.3276  -5.2905  -5.1274  -4.6945  -4.2962  -4.1667  -3.8918  -3.8503
    -3.2250  -3.1742  -2.7955  -2.5646  -2.3849  -2.3200  -2.1945  -2.1117
    -1.2588  -1.1131  -1.0427  -0.9124  -0.8616  -0.7006  -0.0724  -0.0080
     0.5632   0.7576

     occupation numbers 
     1.0000   1.0000   1.0000   1.0000   1.0000   1.0000   1.0000   1.0000
     1.0000   1.0000   1.0000   1.0000   1.0000   1.0000   1.0000   1.0000
     1.0000   1.0000   1.0000   1.0000   1.0000   1.0000   1.0000   1.0000
     1.0000   1.0000   1.0000   1.0000   1.0000   1.0000   1.0000   1.0000
     1.0000   1.0000   1.0000   1.0000   1.0000   1.0000   1.0000   1.0000
     1.0000   1.0000

          k = 0.0169 0.0643 0.0407 ( 36518 PWs)   bands (ev):

   -16.0562 -15.9726 -15.3131 -15.2462 -13.9620 -13.9338 -12.4040 -12.3821
   -11.2860 -11.2672  -8.9093  -8.8784  -8.1588  -8.0886  -6.3570  -6.3060
    -5.2874  -5.2499  -5.0217  -4.9745  -4.3781  -4.2732  -4.0702  -3.9038
    -3.2626  -3.2254  -2.6291  -2.6036  -2.4321  -2.3324  -2.1392  -2.0030
    -1.0965  -0.9787  -0.9152  -0.8844  -0.8516  -0.7877  -0.0437   0.0742
     0.6446   0.7613

     occupation numbers 
     1.0000   1.0000   1.0000   1.0000   1.0000   1.0000   1.0000   1.0000
     1.0000   1.0000   1.0000   1.0000   1.0000   1.0000   1.0000   1.0000
     1.0000   1.0000   1.0000   1.0000   1.0000   1.0000   1.0000   1.0000
     1.0000   1.0000   1.0000   1.0000   1.0000   1.0000   1.0000   1.0000
     1.0000   1.0000   1.0000   1.0000   1.0000   1.0000   1.0000   1.0000
     1.0000   1.0000

          k = 0.0169 0.0643 0.1078 ( 36558 PWs)   bands (ev):

   -15.9860 -15.8979 -15.2617 -15.1939 -13.9311 -13.8978 -12.3638 -12.3574
   -11.3106 -11.2578  -8.9370  -8.9010  -8.1791  -8.1262  -6.3626  -6.3101
    -5.3143  -5.2648  -4.9191  -4.8879  -4.3090  -4.2071  -4.0856  -4.0180
    -3.9015  -3.8354  -2.7612  -2.6584  -2.6379  -2.4450  -2.3378  -2.3050
    -1.3067  -1.1544  -1.0517  -0.9788  -0.9197  -0.7970  -0.1180  -0.0670
     0.6326   0.7735

     occupation numbers 
     1.0000   1.0000   1.0000   1.0000   1.0000   1.0000   1.0000   1.0000
     1.0000   1.0000   1.0000   1.0000   1.0000   1.0000   1.0000   1.0000
     1.0000   1.0000   1.0000   1.0000   1.0000   1.0000   1.0000   1.0000
     1.0000   1.0000   1.0000   1.0000   1.0000   1.0000   1.0000   1.0000
     1.0000   1.0000   1.0000   1.0000   1.0000   1.0000   1.0000   1.0000
     1.0000   1.0000

          k = 0.0169 0.0643-0.0936 ( 36547 PWs)   bands (ev):

   -15.9839 -15.9011 -15.2647 -15.1894 -13.9263 -13.9017 -12.3705 -12.3512
   -11.3117 -11.2589  -8.9299  -8.9041  -8.1834  -8.1296  -6.3487  -6.3178
    -5.3078  -5.2757  -4.9752  -4.7936  -4.3212  -4.2620  -4.1069  -4.0047
    -3.8643  -3.8014  -2.7873  -2.7120  -2.6476  -2.4932  -2.2922  -2.2384
    -1.2209  -1.1644  -1.0819  -1.0264  -0.8933  -0.8230  -0.1631  -0.0368
     0.6318   0.7837

     occupation numbers 
     1.0000   1.0000   1.0000   1.0000   1.0000   1.0000   1.0000   1.0000
     1.0000   1.0000   1.0000   1.0000   1.0000   1.0000   1.0000   1.0000
     1.0000   1.0000   1.0000   1.0000   1.0000   1.0000   1.0000   1.0000
     1.0000   1.0000   1.0000   1.0000   1.0000   1.0000   1.0000   1.0000
     1.0000   1.0000   1.0000   1.0000   1.0000   1.0000   1.0000   1.0000
     1.0000   1.0000

          k = 0.0169 0.0643-0.0265 ( 36489 PWs)   bands (ev):

   -16.0547 -15.9749 -15.3163 -15.2416 -13.9600 -13.9354 -12.3958 -12.3890
   -11.2883 -11.2699  -8.9078  -8.8726  -8.1645  -8.0860  -6.3892  -6.2986
    -5.2858  -5.2485  -5.0422  -4.8660  -4.3747  -4.2587  -4.1179  -3.9689
    -3.2806  -3.2174  -2.6266  -2.5237  -2.4213  -2.3503  -2.1481  -2.0310
    -1.0755  -1.0354  -0.9312  -0.8674  -0.8213  -0.7696  -0.0214   0.0393
     0.6374   0.7645

     occupation numbers 
     1.0000   1.0000   1.0000   1.0000   1.0000   1.0000   1.0000   1.0000
     1.0000   1.0000   1.0000   1.0000   1.0000   1.0000   1.0000   1.0000
     1.0000   1.0000   1.0000   1.0000   1.0000   1.0000   1.0000   1.0000
     1.0000   1.0000   1.0000   1.0000   1.0000   1.0000   1.0000   1.0000
     1.0000   1.0000   1.0000   1.0000   1.0000   1.0000   1.0000   1.0000
     1.0000   1.0000

          k =-0.0169 0.0214-0.0407 ( 36525 PWs)   bands (ev):

   -16.0825 -15.9990 -15.3192 -15.2260 -13.9383 -13.8992 -12.3552 -12.3490
   -11.2761 -11.2563  -8.9883  -8.9629  -8.2506  -8.1403  -6.3796  -6.2737
    -5.3195  -5.2917  -5.0581  -4.7835  -4.2479  -4.1342  -3.9694  -3.8778
    -3.2168  -3.1706  -2.7319  -2.5515  -2.3964  -2.3515  -2.1851  -2.0979
    -1.2960  -1.1464  -0.9887  -0.9310  -0.8360  -0.7148  -0.0716  -0.0062
     0.5567   0.7609

     occupation numbers 
     1.0000   1.0000   1.0000   1.0000   1.0000   1.0000   1.0000   1.0000
     1.0000   1.0000   1.0000   1.0000   1.0000   1.0000   1.0000   1.0000
     1.0000   1.0000   1.0000   1.0000   1.0000   1.0000   1.0000   1.0000
     1.0000   1.0000   1.0000   1.0000   1.0000   1.0000   1.0000   1.0000
     1.0000   1.0000   1.0000   1.0000   1.0000   1.0000   1.0000   1.0000
     1.0000   1.0000

          k =-0.0169 0.0214-0.1078 ( 36561 PWs)   bands (ev):

   -16.0011 -15.9190 -15.2673 -15.1843 -13.9270 -13.8642 -12.3524 -12.3276
   -11.3004 -11.2354  -8.9592  -8.9268  -8.2106  -8.1384  -6.3632  -6.2767
    -5.3163  -5.2991  -5.0477  -4.9278  -4.3683  -4.1767  -4.1167  -3.9556
    -3.7717  -3.6886  -2.8425  -2.7571  -2.5620  -2.4242  -2.3074  -2.2514
    -1.3502  -1.2335  -1.1362  -1.0148  -0.8635  -0.6942  -0.2990  -0.1724
     0.6005   0.7575

     occupation numbers 
     1.0000   1.0000   1.0000   1.0000   1.0000   1.0000   1.0000   1.0000
     1.0000   1.0000   1.0000   1.0000   1.0000   1.0000   1.0000   1.0000
     1.0000   1.0000   1.0000   1.0000   1.0000   1.0000   1.0000   1.0000
     1.0000   1.0000   1.0000   1.0000   1.0000   1.0000   1.0000   1.0000
     1.0000   1.0000   1.0000   1.0000   1.0000   1.0000   1.0000   1.0000
     1.0000   1.0000

          k =-0.0169 0.0214 0.0936 ( 36547 PWs)   bands (ev):

   -16.0045 -15.9138 -15.2711 -15.1826 -13.9211 -13.8713 -12.3441 -12.3355
   -11.2897 -11.2435  -8.9655  -8.9237  -8.2050  -8.1371  -6.3622  -6.2892
    -5.3265  -5.2941  -5.0739  -4.8823  -4.2984  -4.2007  -4.1445  -4.0242
    -3.7423  -3.7060  -2.7641  -2.7254  -2.5686  -2.4064  -2.3695  -2.3132
    -1.2852  -1.2451  -1.1422  -1.0572  -0.8509  -0.6933  -0.2477  -0.2034
     0.6051   0.7501

     occupation numbers 
     1.0000   1.0000   1.0000   1.0000   1.0000   1.0000   1.0000   1.0000
     1.0000   1.0000   1.0000   1.0000   1.0000   1.0000   1.0000   1.0000
     1.0000   1.0000   1.0000   1.0000   1.0000   1.0000   1.0000   1.0000
     1.0000   1.0000   1.0000   1.0000   1.0000   1.0000   1.0000   1.0000
     1.0000   1.0000   1.0000   1.0000   1.0000   1.0000   1.0000   1.0000
     1.0000   1.0000

          k =-0.0169 0.0214 0.0265 ( 36551 PWs)   bands (ev):

   -16.0872 -15.9922 -15.3257 -15.2220 -13.9320 -13.9059 -12.3627 -12.3423
   -11.2801 -11.2481  -8.9975  -8.9614  -8.2763  -8.0974  -6.4421  -6.2171
    -5.3351  -5.2882  -5.1262  -4.6966  -4.2888  -4.1099  -3.9302  -3.8838
    -3.2300  -3.1554  -2.7971  -2.5619  -2.3890  -2.3240  -2.1938  -2.1027
    -1.2737  -1.1012  -1.0456  -0.9105  -0.8733  -0.6960  -0.0940   0.0302
     0.5660   0.7532

     occupation numbers 
     1.0000   1.0000   1.0000   1.0000   1.0000   1.0000   1.0000   1.0000
     1.0000   1.0000   1.0000   1.0000   1.0000   1.0000   1.0000   1.0000
     1.0000   1.0000   1.0000   1.0000   1.0000   1.0000   1.0000   1.0000
     1.0000   1.0000   1.0000   1.0000   1.0000   1.0000   1.0000   1.0000
     1.0000   1.0000   1.0000   1.0000   1.0000   1.0000   1.0000   1.0000
     1.0000   1.0000

          k =-0.0169 0.0643-0.0407 ( 36518 PWs)   bands (ev):

   -16.0544 -15.9753 -15.3160 -15.2419 -13.9613 -13.9337 -12.3982 -12.3888
   -11.2877 -11.2671  -8.9114  -8.8738  -8.1549  -8.0996  -6.3584  -6.2915
    -5.2837  -5.2488  -5.0812  -4.9143  -4.4451  -4.2225  -4.0314  -3.9270
    -3.2900  -3.2113  -2.6696  -2.5504  -2.4362  -2.3294  -2.1444  -2.0049
    -1.0993  -0.9920  -0.9088  -0.8811  -0.8310  -0.7905  -0.0235   0.0359
     0.6343   0.7720

     occupation numbers 
     1.0000   1.0000   1.0000   1.0000   1.0000   1.0000   1.0000   1.0000
     1.0000   1.0000   1.0000   1.0000   1.0000   1.0000   1.0000   1.0000
     1.0000   1.0000   1.0000   1.0000   1.0000   1.0000   1.0000   1.0000
     1.0000   1.0000   1.0000   1.0000   1.0000   1.0000   1.0000   1.0000
     1.0000   1.0000   1.0000   1.0000   1.0000   1.0000   1.0000   1.0000
     1.0000   1.0000

          k =-0.0169 0.0643-0.1078 ( 36558 PWs)   bands (ev):

   -15.9837 -15.9014 -15.2643 -15.1896 -13.9302 -13.8979 -12.3708 -12.3510
   -11.3126 -11.2580  -8.9328  -8.9025  -8.1799  -8.1322  -6.3467  -6.3155
    -5.3027  -5.2749  -4.9708  -4.8259  -4.3122  -4.2662  -4.0785  -3.9886
    -3.8954  -3.8198  -2.7790  -2.6683  -2.6117  -2.4605  -2.3617  -2.2724
    -1.3054  -1.1539  -1.0433  -0.9677  -0.9379  -0.7929  -0.1641  -0.0357
     0.6301   0.7774

     occupation numbers 
     1.0000   1.0000   1.0000   1.0000   1.0000   1.0000   1.0000   1.0000
     1.0000   1.0000   1.0000   1.0000   1.0000   1.0000   1.0000   1.0000
     1.0000   1.0000   1.0000   1.0000   1.0000   1.0000   1.0000   1.0000
     1.0000   1.0000   1.0000   1.0000   1.0000   1.0000   1.0000   1.0000
     1.0000   1.0000   1.0000   1.0000   1.0000   1.0000   1.0000   1.0000
     1.0000   1.0000

          k =-0.0169 0.0643 0.0936 ( 36547 PWs)   bands (ev):

   -15.9862 -15.8976 -15.2630 -15.1927 -13.9298 -13.8992 -12.3630 -12.3581
   -11.3089 -11.2597  -8.9371  -8.8999  -8.1790  -8.1268  -6.3578  -6.3181
    -5.3166  -5.2759  -4.9210  -4.8513  -4.2946  -4.2335  -4.1172  -4.0535
    -3.8727  -3.7782  -2.7597  -2.7073  -2.6563  -2.5271  -2.2902  -2.2281
    -1.2262  -1.1703  -1.0859  -1.0085  -0.9220  -0.8037  -0.1200  -0.0659
     0.6417   0.7718

     occupation numbers 
     1.0000   1.0000   1.0000   1.0000   1.0000   1.0000   1.0000   1.0000
     1.0000   1.0000   1.0000   1.0000   1.0000   1.0000   1.0000   1.0000
     1.0000   1.0000   1.0000   1.0000   1.0000   1.0000   1.0000   1.0000
     1.0000   1.0000   1.0000   1.0000   1.0000   1.0000   1.0000   1.0000
     1.0000   1.0000   1.0000   1.0000   1.0000   1.0000   1.0000   1.0000
     1.0000   1.0000

          k =-0.0169 0.0643 0.0265 ( 36489 PWs)   bands (ev):

   -16.0570 -15.9715 -15.3155 -15.2440 -13.9605 -13.9357 -12.4034 -12.3811
   -11.2890 -11.2670  -8.9052  -8.8800  -8.1635  -8.0777  -6.4021  -6.2944
    -5.2863  -5.2505  -5.0188  -4.9021  -4.3799  -4.2183  -4.0993  -4.0114
    -3.2728  -3.2179  -2.6405  -2.5158  -2.4119  -2.3545  -2.1386  -2.0458
    -1.0760  -1.0092  -0.9590  -0.8835  -0.8217  -0.7577  -0.0418   0.0758
     0.6421   0.7584

     occupation numbers 
     1.0000   1.0000   1.0000   1.0000   1.0000   1.0000   1.0000   1.0000
     1.0000   1.0000   1.0000   1.0000   1.0000   1.0000   1.0000   1.0000
     1.0000   1.0000   1.0000   1.0000   1.0000   1.0000   1.0000   1.0000
     1.0000   1.0000   1.0000   1.0000   1.0000   1.0000   1.0000   1.0000
     1.0000   1.0000   1.0000   1.0000   1.0000   1.0000   1.0000   1.0000
     1.0000   1.0000

     highest occupied level (ev):     0.7837

!    total energy              =    -548.04708782 Ry
     Harris-Foulkes estimate   =    -548.04708786 Ry
     estimated scf accuracy    <       0.00000005 Ry

     total all-electron energy =     -4615.890576 Ry

     The total energy is the sum of the following terms:

     one-electron contribution =    -152.13770866 Ry
     hartree contribution      =     107.42084031 Ry
     xc contribution           =    -104.20504541 Ry
     ewald contribution        =    -143.34286449 Ry
     one-center paw contrib.   =    -255.78230956 Ry
      -> PAW hartree energy AE =      19.24686457 Ry
      -> PAW hartree energy PS =     -19.14214920 Ry
      -> PAW xc energy AE      =     -55.67095523 Ry
      -> PAW xc energy PS      =      10.12417971 Ry
      -> total E_H with PAW    =     107.52555567 Ry
      -> total E_XC with PAW   =    -149.75182093 Ry

     convergence has been achieved in  11 iterations
 writing file ./scratch/scf-61.save/charge-density
 writing file ./scratch/scf-61.save/charge-density
 writing file ./scratch/scf-61.save/charge-density
 writing file ./scratch/scf-61.save/charge-density
 writing file ./scratch/scf-61.save/charge-density
 writing file ./scratch/scf-61.save/charge-density
 writing file ./scratch/scf-61.save/charge-density
 writing file ./scratch/scf-61.save/charge-density
 writing file ./scratch/scf-61.save/charge-density
 writing file ./scratch/scf-61.save/charge-density
 writing file ./scratch/scf-61.save/charge-density
 writing file ./scratch/scf-61.save/charge-density
 writing file ./scratch/scf-61.save/charge-density
 writing file ./scratch/scf-61.save/charge-density
 writing file ./scratch/scf-61.save/charge-density
 writing file ./scratch/scf-61.save/charge-density
 writing file ./scratch/scf-61.save/charge-density
 writing file ./scratch/scf-61.save/charge-density
 writing file ./scratch/scf-61.save/charge-density
 writing file ./scratch/scf-61.save/charge-density
 writing file ./scratch/scf-61.save/charge-density
 writing file ./scratch/scf-61.save/charge-density
 writing file ./scratch/scf-61.save/charge-density
 writing file ./scratch/scf-61.save/charge-density
 writing file ./scratch/scf-61.save/charge-density
 writing file ./scratch/scf-61.save/charge-density
 writing file ./scratch/scf-61.save/charge-density
 writing file ./scratch/scf-61.save/charge-density
 writing file ./scratch/scf-61.save/charge-density
 writing file ./scratch/scf-61.save/charge-density
 writing file ./scratch/scf-61.save/charge-density
 writing file ./scratch/scf-61.save/charge-density

     Forces acting on atoms (cartesian axes, Ry/au):

     atom    1 type  2   force =     0.01010264    0.01331766   -0.00508276
     atom    2 type  1   force =    -0.00466707   -0.01322989   -0.00548575
     atom    3 type  1   force =    -0.00660328   -0.02614270    0.03627422
     atom    4 type  3   force =     0.00163520    0.00196176   -0.00438890
     atom    5 type  1   force =    -0.00072586    0.03579203   -0.03501756
     atom    6 type  3   force =     0.00194354   -0.00364717    0.00870697
     atom    7 type  3   force =    -0.00049611    0.00165807    0.00294335
     atom    8 type  1   force =     0.01857723   -0.01026843   -0.01842445
     atom    9 type  3   force =     0.00245599    0.00102288   -0.00533448
     atom   10 type  1   force =    -0.01868372    0.00876187    0.01591043
     atom   11 type  1   force =    -0.01686869   -0.01130103   -0.01319332
     atom   12 type  2   force =     0.02623807    0.01332589    0.00878830
     atom   13 type  3   force =    -0.00276457   -0.00412341    0.00492973
     atom   14 type  1   force =    -0.00223585    0.00439725   -0.00609342
     atom   15 type  3   force =     0.00146163    0.00227786   -0.00090738
     atom   16 type  1   force =     0.00049750   -0.00909346    0.00000550
     atom   17 type  1   force =    -0.02107587    0.01038559    0.00975343
     atom   18 type  2   force =     0.03424663   -0.01481965    0.00268931
     atom   19 type  3   force =    -0.00157715   -0.00042072   -0.00190534
     atom   20 type  1   force =    -0.00658815    0.00242462    0.00102209
     atom   21 type  3   force =    -0.00216158   -0.00272644   -0.00081999
     atom   22 type  1   force =    -0.00847689   -0.01608160   -0.00318034
     atom   23 type  1   force =    -0.00423784   -0.01548974    0.02475934
     atom   24 type  2   force =     0.00000420    0.03201874   -0.01594898
     The non-local contrib.  to forces
     atom    1 type  2   force =    -0.28434079    0.27476026   -0.02730670
     atom    2 type  1   force =     0.39580908   -0.30706599   -0.01540064
     atom    3 type  1   force =    -0.05411017   -0.08668783    0.00578025
     atom    4 type  3   force =    -0.06526134   -0.02444521   -0.03673788
     atom    5 type  1   force =    -0.02999814   -0.00301533   -0.08716725
     atom    6 type  3   force =    -0.00048337   -0.07071353   -0.03354830
     atom    7 type  3   force =     0.00288744   -0.06557060    0.04309261
     atom    8 type  1   force =     0.06908296   -0.05982376    0.01432585
     atom    9 type  3   force =     0.06537089   -0.01858979    0.03960514
     atom   10 type  1   force =     0.01934887   -0.02071414    0.06751236
     atom   11 type  1   force =    -0.39489869   -0.31957073   -0.05181929
     atom   12 type  2   force =     0.31850557    0.23813833    0.03413245
     atom   13 type  3   force =    -0.00030718    0.06664114    0.04161480
     atom   14 type  1   force =     0.02638719    0.04817331    0.01765693
     atom   15 type  3   force =     0.06576635    0.02571684    0.03551103
     atom   16 type  1   force =     0.04369969    0.03303618    0.04878025
     atom   17 type  1   force =    -0.43110778    0.27197194    0.06308152
     atom   18 type  2   force =     0.33644826   -0.21826622   -0.02044633
     atom   19 type  3   force =    -0.00253855    0.06478522   -0.04390028
     atom   20 type  1   force =    -0.05276731    0.02895718   -0.04071612
     atom   21 type  3   force =    -0.06345469    0.01650686   -0.04455027
     atom   22 type  1   force =    -0.06100757    0.00999411   -0.05720647
     atom   23 type  1   force =     0.39477191    0.28346165    0.05370482
     atom   24 type  2   force =    -0.35188036   -0.18114899   -0.03847283
     The ionic contribution  to forces
     atom    1 type  2   force =     6.91931018   -4.31648504    1.33404294
     atom    2 type  1   force =     3.49819292   -1.34735356    0.50841559
     atom    3 type  1   force =     5.33034773    2.61938629    1.95943525
     atom    4 type  3   force =     2.19496199    0.90247017    1.17157298
     atom    5 type  1   force =     1.55640846    3.91094804    3.12862994
     atom    6 type  3   force =     0.39963189    2.06598729    1.20719716
     atom    7 type  3   force =    -0.43533540    1.92683625   -1.40352208
     atom    8 type  1   force =    -1.96161388    4.44160724   -2.47357258
     atom    9 type  3   force =    -2.20102710    0.71986528   -1.34664073
     atom   10 type  1   force =    -4.76092800    1.64816692   -3.32944634
     atom   11 type  1   force =    -3.24792533   -1.86660154   -0.60995530
     atom   12 type  2   force =    -6.16258796   -3.68569989   -1.14334650
     atom   13 type  3   force =     0.00927193   -2.00609631   -1.17906129
     atom   14 type  1   force =    -0.09610186   -4.25850497   -1.81576071
     atom   15 type  3   force =    -1.87222084   -0.83273063   -0.99729533
     atom   16 type  1   force =    -3.46454186   -2.09524885   -2.13339096
     atom   17 type  1   force =    -1.84014469    1.75312710    0.16422537
     atom   18 type  2   force =    -4.24067882    3.14080767    0.12352559
     atom   19 type  3   force =     0.02990881   -1.94997545    1.25839376
     atom   20 type  1   force =    -0.01575666   -4.26236727    2.08807868
     atom   21 type  3   force =     1.72647624   -0.68976140    1.25776643
     atom   22 type  1   force =     2.89795627   -1.84818902    2.40706171
     atom   23 type  1   force =     1.11985241    1.95030705   -0.36482052
     atom   24 type  2   force =     4.61654355    4.07950463    0.18846692
     The local contribution  to forces
     atom    1 type  2   force =    -6.63606270    4.06672274   -1.31306856
     atom    2 type  1   force =    -3.88814371    1.63355863   -0.49880243
     atom    3 type  1   force =    -5.28147474   -2.55876501   -1.92886426
     atom    4 type  3   force =    -2.12806522   -0.87606957   -1.13922754
     atom    5 type  1   force =    -1.52741822   -3.87091899   -3.07580687
     atom    6 type  3   force =    -0.39718663   -1.99889962   -1.16493022
     atom    7 type  3   force =     0.43196427   -1.85959493    1.36337330
     atom    8 type  1   force =     1.91186271   -4.39075494    2.44038808
     atom    9 type  3   force =     2.13810604   -0.70025669    1.30169860
     atom   10 type  1   force =     4.72194610   -1.61865348    3.27733146
     atom   11 type  1   force =     3.61551101    2.16633450    0.64769151
     atom   12 type  2   force =     5.88434533    3.47130298    1.11963434
     atom   13 type  3   force =    -0.01172256    1.93533854    1.14238297
     atom   14 type  1   force =     0.06774718    4.21351427    1.79132459
     atom   15 type  3   force =     1.80789225    0.80927675    0.96086261
     atom   16 type  1   force =     3.42026959    2.05258670    2.08400010
     atom   17 type  1   force =     2.23877442   -2.00718444   -0.21599833
     atom   18 type  2   force =     3.95292655   -2.94685022   -0.10116977
     atom   19 type  3   force =    -0.02894130    1.88479156   -1.21640696
     atom   20 type  1   force =     0.06127650    4.23431786   -2.04578219
     atom   21 type  3   force =    -1.66521269    0.67053027   -1.21405241
     atom   22 type  1   force =    -2.84497102    1.82156941   -2.35266452
     atom   23 type  1   force =    -1.50899962   -2.24192788    0.33638828
     atom   24 type  2   force =    -4.27879279   -3.87266535   -0.16798228
     The core correction contribution to forces
     atom    1 type  2   force =     0.01117333   -0.01162920    0.00127590
     atom    2 type  1   force =    -0.01046183    0.00760367    0.00032147
     atom    3 type  1   force =    -0.00124469   -0.00011962   -0.00005981
     atom    4 type  3   force =     0.00000000    0.00000000    0.00000000
     atom    5 type  1   force =     0.00045244   -0.00117726   -0.00060293
     atom    6 type  3   force =     0.00000000    0.00000000    0.00000000
     atom    7 type  3   force =     0.00000000    0.00000000    0.00000000
     atom    8 type  1   force =    -0.00067694   -0.00130251    0.00046712
     atom    9 type  3   force =     0.00000000    0.00000000    0.00000000
     atom   10 type  1   force =     0.00097607   -0.00011073    0.00055516
     atom   11 type  1   force =     0.01052556    0.00849587    0.00094169
     atom   12 type  2   force =    -0.01393116   -0.01033350   -0.00162588
     atom   13 type  3   force =     0.00000000    0.00000000    0.00000000
     atom   14 type  1   force =    -0.00017551    0.00113064    0.00069388
     atom   15 type  3   force =     0.00000000    0.00000000    0.00000000
     atom   16 type  1   force =     0.00104842    0.00039285    0.00054734
     atom   17 type  1   force =     0.01136427   -0.00750917   -0.00156572
     atom   18 type  2   force =    -0.01475151    0.00963672    0.00070386
     atom   19 type  3   force =     0.00000000    0.00000000    0.00000000
     atom   20 type  1   force =     0.00071614    0.00155491   -0.00055930
     atom   21 type  3   force =     0.00000000    0.00000000    0.00000000
     atom   22 type  1   force =    -0.00048666    0.00049788   -0.00037310
     atom   23 type  1   force =    -0.00984024   -0.00740603   -0.00047027
     atom   24 type  2   force =     0.01400020    0.00629041    0.00199752
     The Hubbard contrib.    to forces
     atom    1 type  2   force =     0.00000000    0.00000000    0.00000000
     atom    2 type  1   force =     0.00000000    0.00000000    0.00000000
     atom    3 type  1   force =     0.00000000    0.00000000    0.00000000
     atom    4 type  3   force =     0.00000000    0.00000000    0.00000000
     atom    5 type  1   force =     0.00000000    0.00000000    0.00000000
     atom    6 type  3   force =     0.00000000    0.00000000    0.00000000
     atom    7 type  3   force =     0.00000000    0.00000000    0.00000000
     atom    8 type  1   force =     0.00000000    0.00000000    0.00000000
     atom    9 type  3   force =     0.00000000    0.00000000    0.00000000
     atom   10 type  1   force =     0.00000000    0.00000000    0.00000000
     atom   11 type  1   force =     0.00000000    0.00000000    0.00000000
     atom   12 type  2   force =     0.00000000    0.00000000    0.00000000
     atom   13 type  3   force =     0.00000000    0.00000000    0.00000000
     atom   14 type  1   force =     0.00000000    0.00000000    0.00000000
     atom   15 type  3   force =     0.00000000    0.00000000    0.00000000
     atom   16 type  1   force =     0.00000000    0.00000000    0.00000000
     atom   17 type  1   force =     0.00000000    0.00000000    0.00000000
     atom   18 type  2   force =     0.00000000    0.00000000    0.00000000
     atom   19 type  3   force =     0.00000000    0.00000000    0.00000000
     atom   20 type  1   force =     0.00000000    0.00000000    0.00000000
     atom   21 type  3   force =     0.00000000    0.00000000    0.00000000
     atom   22 type  1   force =     0.00000000    0.00000000    0.00000000
     atom   23 type  1   force =     0.00000000    0.00000000    0.00000000
     atom   24 type  2   force =     0.00000000    0.00000000    0.00000000
     The SCF correction term to forces
     atom    1 type  2   force =     0.00002259   -0.00005062   -0.00002666
     atom    2 type  1   force =    -0.00006357    0.00002784   -0.00002006
     atom    3 type  1   force =    -0.00012144    0.00004395   -0.00001752
     atom    4 type  3   force =    -0.00000026    0.00000684    0.00000323
     atom    5 type  1   force =    -0.00017043   -0.00004397   -0.00007076
     atom    6 type  3   force =    -0.00001838   -0.00002085   -0.00001198
     atom    7 type  3   force =    -0.00001245   -0.00001218   -0.00000080
     atom    8 type  1   force =    -0.00007765    0.00000601   -0.00003323
     atom    9 type  3   force =     0.00000613    0.00000455    0.00000220
     atom   10 type  1   force =    -0.00002679    0.00007377   -0.00004252
     atom   11 type  1   force =    -0.00008127    0.00004133   -0.00005224
     atom   12 type  2   force =    -0.00009374   -0.00008157   -0.00000643
     atom   13 type  3   force =    -0.00000679   -0.00000631   -0.00000706
     atom   14 type  1   force =    -0.00009288    0.00008447   -0.00000843
     atom   15 type  3   force =     0.00002384    0.00001537    0.00001399
     atom   16 type  1   force =     0.00002162    0.00014014    0.00006845
     atom   17 type  1   force =     0.00003788   -0.00001937    0.00001028
     atom   18 type  2   force =     0.00030210   -0.00014714    0.00007564
     atom   19 type  3   force =    -0.00000614   -0.00002157    0.00000783
     atom   20 type  1   force =    -0.00005686   -0.00003758    0.00000070
     atom   21 type  3   force =     0.00002953   -0.00000170    0.00001594
     atom   22 type  1   force =     0.00003206    0.00004648    0.00000172
     atom   23 type  1   force =    -0.00002234    0.00007595   -0.00004328
     atom   24 type  2   force =     0.00013357    0.00003851    0.00004138

     Total force =     0.114264     Total SCF correction =     0.000553

     Writing output data file scf-61.save
 writing file ./scratch/scf-61.save/charge-density
 writing file ./scratch/scf-61.save/charge-density
 writing file ./scratch/scf-61.save/charge-density
 writing file ./scratch/scf-61.save/charge-density
 writing file ./scratch/scf-61.save/charge-density
 writing file ./scratch/scf-61.save/charge-density
 writing file ./scratch/scf-61.save/charge-density
 writing file ./scratch/scf-61.save/charge-density
 writing file ./scratch/scf-61.save/charge-density
 writing file ./scratch/scf-61.save/charge-density
 writing file ./scratch/scf-61.save/charge-density
 writing file ./scratch/scf-61.save/charge-density
 writing file ./scratch/scf-61.save/charge-density
 writing file ./scratch/scf-61.save/charge-density
 writing file ./scratch/scf-61.save/charge-density
 writing file ./scratch/scf-61.save/charge-density
 writing file ./scratch/scf-61.save/charge-density
 writing file ./scratch/scf-61.save/charge-density
 writing file ./scratch/scf-61.save/charge-density
 writing file ./scratch/scf-61.save/charge-density
 writing file ./scratch/scf-61.save/charge-density
 writing file ./scratch/scf-61.save/charge-density
 writing file ./scratch/scf-61.save/charge-density
 writing file ./scratch/scf-61.save/charge-density
 writing file ./scratch/scf-61.save/charge-density
 writing file ./scratch/scf-61.save/charge-density
 writing file ./scratch/scf-61.save/charge-density
 writing file ./scratch/scf-61.save/charge-density
 writing file ./scratch/scf-61.save/charge-density
 writing file ./scratch/scf-61.save/charge-density
 writing file ./scratch/scf-61.save/charge-density
 writing file ./scratch/scf-61.save/charge-density
 
     init_run     :      4.36s CPU      4.60s WALL (       1 calls)
     electrons    :     49.30s CPU     52.11s WALL (       1 calls)
     forces       :      2.30s CPU      2.45s WALL (       1 calls)

     Called by init_run:
     wfcinit      :      1.59s CPU      1.62s WALL (       1 calls)
     wfcinit:atom :      0.01s CPU      0.02s WALL (      16 calls)
     wfcinit:wfcr :      1.47s CPU      1.50s WALL (      16 calls)
     potinit      :      0.88s CPU      0.91s WALL (       1 calls)

     Called by electrons:
     c_bands      :     38.52s CPU     38.75s WALL (      11 calls)
     sum_band     :      6.69s CPU      7.91s WALL (      11 calls)
     v_of_rho     :      0.91s CPU      0.97s WALL (      12 calls)
     v_h          :      0.06s CPU      0.06s WALL (      12 calls)
     v_xc         :      0.92s CPU      0.98s WALL (      13 calls)
     newd         :      1.52s CPU      2.85s WALL (      12 calls)
     PAW_pot      :      1.64s CPU      1.70s WALL (      12 calls)
     mix_rho      :      0.14s CPU      0.14s WALL (      11 calls)

     Called by c_bands:
     init_us_2    :      0.83s CPU      0.85s WALL (     384 calls)
     cegterg      :     36.20s CPU     36.40s WALL (     176 calls)

     Called by sum_band:
     sum_band:bec :      0.01s CPU      0.02s WALL (     176 calls)
     addusdens    :      1.47s CPU      2.65s WALL (      11 calls)

     Called by *egterg:
     h_psi        :     26.86s CPU     27.08s WALL (     861 calls)
     s_psi        :      1.98s CPU      1.98s WALL (     861 calls)
     g_psi        :      0.17s CPU      0.16s WALL (     669 calls)
     cdiaghg      :      3.34s CPU      3.38s WALL (     845 calls)
     cegterg:over :      1.71s CPU      1.66s WALL (     669 calls)
     cegterg:upda :      1.18s CPU      1.26s WALL (     669 calls)
     cegterg:last :      0.42s CPU      0.43s WALL (     192 calls)

     Called by h_psi:
     h_psi:pot    :     26.61s CPU     26.81s WALL (     861 calls)
     h_psi:calbec :      2.31s CPU      2.24s WALL (     861 calls)
     vloc_psi     :     22.48s CPU     22.64s WALL (     861 calls)
     add_vuspsi   :      1.82s CPU      1.92s WALL (     861 calls)

     General routines
     calbec       :      3.03s CPU      2.98s WALL (    1101 calls)
     fft          :      0.69s CPU      0.78s WALL (     199 calls)
     ffts         :      0.02s CPU      0.03s WALL (      23 calls)
     fftw         :     21.33s CPU     21.49s WALL (   55502 calls)
     interpolate  :      0.14s CPU      0.15s WALL (      23 calls)
     davcio       :      0.00s CPU      0.01s WALL (      16 calls)
 
     Parallel routines
     fft_scatter  :      7.60s CPU      7.78s WALL (   55724 calls)

     PAW routines
     PAW_pot      :      1.64s CPU      1.70s WALL (      12 calls)
 
     PWSCF        :  0m56.62s CPU     1m 0.44s WALL

 
   This run was terminated on:  10:16:38  20May2017            

=------------------------------------------------------------------------------=
   JOB DONE.
=------------------------------------------------------------------------------=
