
     Program PWSCF v.6.1 starts on 22May2017 at 13:41:22 

     This program is part of the open-source Quantum ESPRESSO suite
     for quantum simulation of materials; please cite
         "P. Giannozzi et al., J. Phys.:Condens. Matter 21 395502 (2009);
          URL http://www.quantum-espresso.org", 
     in publications or presentations arising from this work. More details at
     http://www.quantum-espresso.org/quote

     Parallel version (MPI & OpenMP), running on      32 processor cores
     Number of MPI processes:                32
     Threads/MPI process:                     1
     R & G space division:  proc/nbgrp/npool/nimage =      32
     Waiting for input...
     Reading input from standard input
Warning: card &IONS ignored
Warning: card     ION_TEMPERATURE   = 'INITIAL' ignored
Warning: card     TEMPW             = 586.D0 ignored
Warning: card     TOLP              = 100.D0 ignored
Warning: card     DELTA_T           = 1.D0 ignored
Warning: card     NRAISE            = 1 ignored
Warning: card / ignored
Warning: card &CELL ignored
Warning: card     CELL_DYNAMICS     = 'BFGS' ignored
Warning: card / ignored

     Current dimensions of program PWSCF are:
     Max number of different atomic species (ntypx) = 10
     Max number of k-points (npk) =  40000
     Max angular momentum in pseudopotentials (lmaxx) =  3
               file C.pbe-n-kjpaw_psl.1.0.0.UPF: wavefunction(s)  2S 2P renormalized
               file Cl.pbe-n-kjpaw_psl.1.0.0.UPF: wavefunction(s)  3S 3P renormalized
               file H.pbe-kjpaw_psl.1.0.0.UPF: wavefunction(s)  1S renormalized

     Subspace diagonalization in iterative solution of the eigenvalue problem:
     a serial algorithm will be used

 
     Parallelization info
     --------------------
     sticks:   dense  smooth     PW     G-vecs:    dense   smooth      PW
     Min         764     305     83                36108     9133    1292
     Max         765     306     84                36110     9135    1293
     Sum       24467    9791   2657              1155489   292295   41363
 


     bravais-lattice index     =            0
     lattice parameter (alat)  =       1.8897  a.u.
     unit-cell volume          =    2163.5316 (a.u.)^3
     number of atoms/cell      =           24
     number of atomic types    =            3
     number of electrons       =        84.00
     number of Kohn-Sham states=           42
     kinetic-energy cutoff     =     100.0000  Ry
     charge density cutoff     =    1000.0000  Ry
     convergence threshold     =      1.0E-07
     mixing beta               =       0.7000
     number of iterations used =            8  plain     mixing
     Exchange-correlation      =  SLA  PW   PBX  PBC ( 1  4  3  4 0 0)

     celldm(1)=   1.889726  celldm(2)=   0.000000  celldm(3)=   0.000000
     celldm(4)=   0.000000  celldm(5)=   0.000000  celldm(6)=   0.000000

     crystal axes: (cart. coord. in units of alat)
               a(1) = (  14.762000   0.000000   0.000000 )  
               a(2) = (   0.000000   5.832000   0.000000 )  
               a(3) = (  -1.563876   0.000000   3.723951 )  

     reciprocal axes: (cart. coord. in units 2 pi/alat)
               b(1) = (  0.067741  0.000000  0.028448 )  
               b(2) = (  0.000000  0.171468  0.000000 )  
               b(3) = (  0.000000  0.000000  0.268532 )  


     PseudoPot. # 1 for  C read from file:
     /global/cscratch1/sd/almno10/.data/PSEUDOPOTENTIALS/C.pbe-n-kjpaw_psl.1.0.0.UPF
     MD5 check sum: 2ba8448e293caca687844dde9a1b88a8
     Pseudo is Projector augmented-wave + core cor, Zval =  4.0
     Generated using "atomic" code by A. Dal Corso  v.5.3.0 svn rev. 11974
     Shape of augmentation charge: PSQ
     Using radial grid of 1073 points,  4 beta functions with: 
                l(1) =   0
                l(2) =   0
                l(3) =   1
                l(4) =   1
     Q(r) pseudized with 0 coefficients 


     PseudoPot. # 2 for Cl read from file:
     /global/cscratch1/sd/almno10/.data/PSEUDOPOTENTIALS/Cl.pbe-n-kjpaw_psl.1.0.0.UPF
     MD5 check sum: dca63699d6b897c5771335df08a09219
     Pseudo is Projector augmented-wave + core cor, Zval =  7.0
     Generated using "atomic" code by A. Dal Corso  v.5.3.0 svn rev. 11974
     Shape of augmentation charge: PSQ
     Using radial grid of 1157 points,  6 beta functions with: 
                l(1) =   0
                l(2) =   0
                l(3) =   1
                l(4) =   1
                l(5) =   2
                l(6) =   2
     Q(r) pseudized with 0 coefficients 


     PseudoPot. # 3 for  H read from file:
     /global/cscratch1/sd/almno10/.data/PSEUDOPOTENTIALS/H.pbe-kjpaw_psl.1.0.0.UPF
     MD5 check sum: bc0feb48a24907a0b97fa6ee2d589a29
     Pseudo is Projector augmented-wave, Zval =  1.0
     Generated using "atomic" code by A. Dal Corso  v.5.3.0 svn rev. 11974
     Shape of augmentation charge: PSQ
     Using radial grid of  929 points,  2 beta functions with: 
                l(1) =   0
                l(2) =   0
     Q(r) pseudized with 0 coefficients 


     atomic species   valence    mass     pseudopotential
        C              4.00    12.01100      C( 1.00)
        Cl             7.00    35.45270     Cl( 1.00)
        H              1.00     1.00790      H( 1.00)

     No symmetry found


                                    s                        frac. trans.

      isym =  1     identity                                     

 cryst.   s( 1) = (     1          0          0      )
                  (     0          1          0      )
                  (     0          0          1      )

 cart.    s( 1) = (  1.0000000  0.0000000 -0.0000000 )
                  (  0.0000000  1.0000000  0.0000000 )
                  (  0.0000000  0.0000000  1.0000000 )


   Cartesian axes

     site n.     atom                  positions (alat units)
         1           Cl  tau(   1) = (  16.4545779   1.1158393   1.6723958  )
         2           C   tau(   2) = (  15.0701367   2.1253838   1.9249921  )
         3           C   tau(   3) = (  15.2177837   3.2824007   2.6892671  )
         4           H   tau(   4) = (  16.1880621   3.4592728   3.1513176  )
         5           C   tau(   5) = (  14.1750377   4.1854708   2.8901259  )
         6           H   tau(   6) = (  14.3362977   5.0732239   3.5000468  )
         7           H   tau(   7) = (   6.4069246   2.0807295   0.3494923  )
         8           C   tau(   8) = (   6.4875435   1.1539655   0.9140711  )
         9           H   tau(   9) = (   4.4493957   0.5627743   0.5286104  )
        10           C   tau(  10) = (   5.4021633   0.2783385   0.9714216  )
        11           C   tau(  11) = (   5.5053416  -0.9127424   1.6877262  )
        12           Cl  tau(  12) = (   4.0212196  -2.0084910   1.8550426  )
        13           H   tau(  13) = (  13.7088427   0.9154564   0.7146809  )
        14           C   tau(  14) = (  13.8546769   1.8078714   1.3201353  )
        15           H   tau(  15) = (  11.8369091   2.5100288   1.0383187  )
        16           C   tau(  16) = (  12.8044609   2.7085417   1.4936257  )
        17           C   tau(  17) = (  12.9626924   3.8851165   2.2702682  )
        18           Cl  tau(  18) = (  11.5545535   4.9890535   2.3095012  )
        19           H   tau(  19) = (   6.7837256  -2.2144299   2.8661903  )
        20           C   tau(  20) = (   6.6991201  -1.2846893   2.3058088  )
        21           H   tau(  21) = (   8.7418175  -0.7042183   2.6728981  )
        22           C   tau(  22) = (   7.8009868  -0.4380215   2.1953212  )
        23           C   tau(  23) = (   7.6952470   0.7564493   1.4853129  )
        24           Cl  tau(  24) = (   9.0561377   1.7174168   1.6793523  )

   Crystallographic axes

     site n.     atom                  positions (cryst. coord.)
         1           Cl  tau(   1) = (  1.1622342  0.1913305  0.4490917  )
         2           C   tau(   2) = (  1.0756360  0.3644348  0.5169219  )
         3           C   tau(   3) = (  1.1073800  0.5628259  0.7221542  )
         4           H   tau(   4) = (  1.1862525  0.5931538  0.8462295  )
         5           C   tau(   5) = (  1.0424568  0.7176733  0.7760912  )
         6           H   tau(   6) = (  1.0707319  0.8698944  0.9398745  )
         7           H   tau(   7) = (  0.4439571  0.3567780  0.0938498  )
         8           C   tau(   8) = (  0.4654795  0.1978679  0.2454573  )
         9           H   tau(   9) = (  0.3164467  0.0964977  0.1419488  )
        10           C   tau(  10) = (  0.3935857  0.0477261  0.2608577  )
        11           C   tau(  11) = (  0.4209527 -0.1565059  0.4532084  )
        12           Cl  tau(  12) = (  0.3251758 -0.3443915  0.4981382  )
        13           H   tau(  13) = (  0.9489888  0.1569713  0.1919147  )
        14           C   tau(  14) = (  0.9760919  0.3099917  0.3544985  )
        15           H   tau(  15) = (  0.8313881  0.4303890  0.2788218  )
        16           C   tau(  16) = (  0.9098842  0.4644276  0.4010862  )
        17           C   tau(  17) = (  0.9426970  0.6661722  0.6096396  )
        18           Cl  tau(  18) = (  0.8484237  0.8554619  0.6201749  )
        19           H   tau(  19) = (  0.5410774 -0.3797034  0.7696637  )
        20           C   tau(  20) = (  0.5194043 -0.2202828  0.6191834  )
        21           H   tau(  21) = (  0.6682226 -0.1207507  0.7177586  )
        22           C   tau(  22) = (  0.5909032 -0.0751066  0.5895139  )
        23           C   tau(  23) = (  0.5635419  0.1297067  0.3988540  )
        24           Cl  tau(  24) = (  0.6612507  0.2944816  0.4509598  )

     number of k points=    16
                       cart. coord. in units 2pi/alat
        k(    1) = (   0.0169354   0.0214335   0.0406785), wk =   0.1250000
        k(    2) = (   0.0169354   0.0214335   0.1078115), wk =   0.1250000
        k(    3) = (   0.0169354   0.0214335  -0.0935875), wk =   0.1250000
        k(    4) = (   0.0169354   0.0214335  -0.0264545), wk =   0.1250000
        k(    5) = (   0.0169354   0.0643004   0.0406785), wk =   0.1250000
        k(    6) = (   0.0169354   0.0643004   0.1078115), wk =   0.1250000
        k(    7) = (   0.0169354   0.0643004  -0.0935875), wk =   0.1250000
        k(    8) = (   0.0169354   0.0643004  -0.0264545), wk =   0.1250000
        k(    9) = (  -0.0169354   0.0214335  -0.0406785), wk =   0.1250000
        k(   10) = (  -0.0169354   0.0214335  -0.1078115), wk =   0.1250000
        k(   11) = (  -0.0169354   0.0214335   0.0935875), wk =   0.1250000
        k(   12) = (  -0.0169354   0.0214335   0.0264545), wk =   0.1250000
        k(   13) = (  -0.0169354   0.0643004  -0.0406785), wk =   0.1250000
        k(   14) = (  -0.0169354   0.0643004  -0.1078115), wk =   0.1250000
        k(   15) = (  -0.0169354   0.0643004   0.0935875), wk =   0.1250000
        k(   16) = (  -0.0169354   0.0643004   0.0264545), wk =   0.1250000

                       cryst. coord.
        k(    1) = (   0.2500000   0.1250000   0.1250000), wk =   0.1250000
        k(    2) = (   0.2500000   0.1250000   0.3750000), wk =   0.1250000
        k(    3) = (   0.2500000   0.1250000  -0.3750000), wk =   0.1250000
        k(    4) = (   0.2500000   0.1250000  -0.1250000), wk =   0.1250000
        k(    5) = (   0.2500000   0.3750000   0.1250000), wk =   0.1250000
        k(    6) = (   0.2500000   0.3750000   0.3750000), wk =   0.1250000
        k(    7) = (   0.2500000   0.3750000  -0.3750000), wk =   0.1250000
        k(    8) = (   0.2500000   0.3750000  -0.1250000), wk =   0.1250000
        k(    9) = (  -0.2500000   0.1250000  -0.1250000), wk =   0.1250000
        k(   10) = (  -0.2500000   0.1250000  -0.3750000), wk =   0.1250000
        k(   11) = (  -0.2500000   0.1250000   0.3750000), wk =   0.1250000
        k(   12) = (  -0.2500000   0.1250000   0.1250000), wk =   0.1250000
        k(   13) = (  -0.2500000   0.3750000  -0.1250000), wk =   0.1250000
        k(   14) = (  -0.2500000   0.3750000  -0.3750000), wk =   0.1250000
        k(   15) = (  -0.2500000   0.3750000   0.3750000), wk =   0.1250000
        k(   16) = (  -0.2500000   0.3750000   0.1250000), wk =   0.1250000

     Dense  grid:  1155489 G-vectors     FFT dimensions: ( 288, 120,  80)

     Smooth grid:   292295 G-vectors     FFT dimensions: ( 180,  72,  50)

     Estimated max dynamical RAM per process >     147.21MB

     Estimated total allocated dynamical RAM >    4710.62MB

     Initial potential from superposition of free atoms

     starting charge   83.99939, renormalised to   84.00000
     Starting wfc are   72 randomized atomic wfcs
     Checking if some PAW data can be deallocated... 
       node    0, deallocated PAW data for type:  1
       node    0, deallocated PAW data for type:  3
       node    1, deallocated PAW data for type:  1
       node    1, deallocated PAW data for type:  3
       node    2, deallocated PAW data for type:  2
       node    2, deallocated PAW data for type:  3
       node    3, deallocated PAW data for type:  2
       node    3, deallocated PAW data for type:  3
       node    4, deallocated PAW data for type:  2
       node    4, deallocated PAW data for type:  3
       node    5, deallocated PAW data for type:  2
       node    5, deallocated PAW data for type:  3
       node    6, deallocated PAW data for type:  1
       node    6, deallocated PAW data for type:  2
       node    7, deallocated PAW data for type:  1
       node    7, deallocated PAW data for type:  2
       node    8, deallocated PAW data for type:  2
       node    8, deallocated PAW data for type:  3
       node    9, deallocated PAW data for type:  2
       node    9, deallocated PAW data for type:  3
       node   10, deallocated PAW data for type:  1
       node   10, deallocated PAW data for type:  2
       node   11, deallocated PAW data for type:  1
       node   11, deallocated PAW data for type:  2
       node   12, deallocated PAW data for type:  1
       node   12, deallocated PAW data for type:  2
       node   13, deallocated PAW data for type:  1
       node   13, deallocated PAW data for type:  2
       node   14, deallocated PAW data for type:  2
       node   14, deallocated PAW data for type:  3
       node   15, deallocated PAW data for type:  2
       node   15, deallocated PAW data for type:  3
       node   16, deallocated PAW data for type:  1
       node   16, deallocated PAW data for type:  2
       node   17, deallocated PAW data for type:  2
       node   17, deallocated PAW data for type:  3
       node   18, deallocated PAW data for type:  2
       node   18, deallocated PAW data for type:  3
       node   19, deallocated PAW data for type:  1
       node   19, deallocated PAW data for type:  3
       node   20, deallocated PAW data for type:  1
       node   20, deallocated PAW data for type:  2
       node   21, deallocated PAW data for type:  2
       node   21, deallocated PAW data for type:  3
       node   22, deallocated PAW data for type:  1
       node   22, deallocated PAW data for type:  2
       node   23, deallocated PAW data for type:  2
       node   23, deallocated PAW data for type:  3
       node   24, deallocated PAW data for type:  2
       node   24, deallocated PAW data for type:  3
       node   25, deallocated PAW data for type:  1
       node   25, deallocated PAW data for type:  3
       node   26, deallocated PAW data for type:  1
       node   26, deallocated PAW data for type:  2
       node   27, deallocated PAW data for type:  2
       node   27, deallocated PAW data for type:  3
       node   28, deallocated PAW data for type:  1
       node   28, deallocated PAW data for type:  2
       node   29, deallocated PAW data for type:  2
       node   29, deallocated PAW data for type:  3
       node   30, deallocated PAW data for type:  2
       node   30, deallocated PAW data for type:  3
       node   31, deallocated PAW data for type:  1
       node   31, deallocated PAW data for type:  3

     total cpu time spent up to now is        5.3 secs

     per-process dynamical memory:    20.7 Mb

     Self-consistent Calculation

     iteration #  1     ecut=   100.00 Ry     beta= 0.70
     Davidson diagonalization with overlap
     ethr =  1.00E-04,  avg # of iterations =  5.0

     total cpu time spent up to now is       12.0 secs

     total energy              =    -547.12525974 Ry
     Harris-Foulkes estimate   =    -548.98188881 Ry
     estimated scf accuracy    <       2.71633233 Ry

     iteration #  2     ecut=   100.00 Ry     beta= 0.70
     Davidson diagonalization with overlap
     ethr =  3.23E-03,  avg # of iterations =  3.0

     total cpu time spent up to now is       16.8 secs

     total energy              =    -547.51976223 Ry
     Harris-Foulkes estimate   =    -548.60612625 Ry
     estimated scf accuracy    <       1.96666102 Ry

     iteration #  3     ecut=   100.00 Ry     beta= 0.70
     Davidson diagonalization with overlap
     ethr =  2.34E-03,  avg # of iterations =  3.0

     total cpu time spent up to now is       21.1 secs

     total energy              =    -548.00704408 Ry
     Harris-Foulkes estimate   =    -548.05125897 Ry
     estimated scf accuracy    <       0.08790833 Ry

     iteration #  4     ecut=   100.00 Ry     beta= 0.70
     Davidson diagonalization with overlap
     ethr =  1.05E-04,  avg # of iterations =  4.0

     total cpu time spent up to now is       25.9 secs

     total energy              =    -548.03488622 Ry
     Harris-Foulkes estimate   =    -548.04753135 Ry
     estimated scf accuracy    <       0.02533074 Ry

     iteration #  5     ecut=   100.00 Ry     beta= 0.70
     Davidson diagonalization with overlap
     ethr =  3.02E-05,  avg # of iterations =  3.0

     total cpu time spent up to now is       30.2 secs

     total energy              =    -548.03970432 Ry
     Harris-Foulkes estimate   =    -548.04104586 Ry
     estimated scf accuracy    <       0.00246702 Ry

     iteration #  6     ecut=   100.00 Ry     beta= 0.70
     Davidson diagonalization with overlap
     ethr =  2.94E-06,  avg # of iterations =  4.0

     total cpu time spent up to now is       34.9 secs

     total energy              =    -548.04018212 Ry
     Harris-Foulkes estimate   =    -548.04107529 Ry
     estimated scf accuracy    <       0.00236008 Ry

     iteration #  7     ecut=   100.00 Ry     beta= 0.70
     Davidson diagonalization with overlap
     ethr =  2.81E-06,  avg # of iterations =  4.0

     total cpu time spent up to now is       39.1 secs

     total energy              =    -548.04062044 Ry
     Harris-Foulkes estimate   =    -548.04065494 Ry
     estimated scf accuracy    <       0.00008653 Ry

     iteration #  8     ecut=   100.00 Ry     beta= 0.70
     Davidson diagonalization with overlap
     ethr =  1.03E-07,  avg # of iterations =  4.0

     total cpu time spent up to now is       43.8 secs

     total energy              =    -548.04064328 Ry
     Harris-Foulkes estimate   =    -548.04065358 Ry
     estimated scf accuracy    <       0.00002311 Ry

     iteration #  9     ecut=   100.00 Ry     beta= 0.70
     Davidson diagonalization with overlap
     ethr =  2.75E-08,  avg # of iterations =  4.0

     total cpu time spent up to now is       48.4 secs

     total energy              =    -548.04064835 Ry
     Harris-Foulkes estimate   =    -548.04064982 Ry
     estimated scf accuracy    <       0.00000353 Ry

     iteration # 10     ecut=   100.00 Ry     beta= 0.70
     Davidson diagonalization with overlap
     ethr =  4.20E-09,  avg # of iterations =  4.0

     total cpu time spent up to now is       52.9 secs

     total energy              =    -548.04064905 Ry
     Harris-Foulkes estimate   =    -548.04064917 Ry
     estimated scf accuracy    <       0.00000027 Ry

     iteration # 11     ecut=   100.00 Ry     beta= 0.70
     Davidson diagonalization with overlap
     ethr =  3.27E-10,  avg # of iterations =  4.0

     total cpu time spent up to now is       57.7 secs

     End of self-consistent calculation

          k = 0.0169 0.0214 0.0407 ( 36525 PWs)   bands (ev):

   -16.3010 -15.9780 -15.2330 -15.1852 -13.8822 -13.8485 -12.3750 -12.2947
   -11.2928 -11.1535  -9.0344  -8.8480  -8.2624  -8.1213  -6.3635  -6.2349
    -5.3738  -5.2276  -5.0164  -4.7988  -4.2488  -4.1520  -3.9923  -3.8439
    -3.2535  -3.0804  -2.7363  -2.5664  -2.3641  -2.3237  -2.1534  -2.0935
    -1.2455  -1.1572  -1.0193  -0.9586  -0.8941  -0.7764  -0.0211   0.1303
     0.5504   0.6757

     occupation numbers 
     1.0000   1.0000   1.0000   1.0000   1.0000   1.0000   1.0000   1.0000
     1.0000   1.0000   1.0000   1.0000   1.0000   1.0000   1.0000   1.0000
     1.0000   1.0000   1.0000   1.0000   1.0000   1.0000   1.0000   1.0000
     1.0000   1.0000   1.0000   1.0000   1.0000   1.0000   1.0000   1.0000
     1.0000   1.0000   1.0000   1.0000   1.0000   1.0000   1.0000   1.0000
     1.0000   1.0000

          k = 0.0169 0.0214 0.1078 ( 36561 PWs)   bands (ev):

   -16.2381 -15.8721 -15.1838 -15.1274 -13.8836 -13.8341 -12.3503 -12.2682
   -11.2992 -11.1754  -9.0012  -8.8157  -8.2205  -8.0848  -6.3617  -6.3272
    -5.3683  -5.2214  -5.0891  -4.9286  -4.2596  -4.1999  -4.1228  -3.8752
    -3.7884  -3.7183  -2.7740  -2.7055  -2.6083  -2.4550  -2.3529  -2.3000
    -1.2949  -1.1422  -1.1038  -0.9674  -0.8817  -0.7752  -0.3032  -0.1595
     0.6613   0.8554

     occupation numbers 
     1.0000   1.0000   1.0000   1.0000   1.0000   1.0000   1.0000   1.0000
     1.0000   1.0000   1.0000   1.0000   1.0000   1.0000   1.0000   1.0000
     1.0000   1.0000   1.0000   1.0000   1.0000   1.0000   1.0000   1.0000
     1.0000   1.0000   1.0000   1.0000   1.0000   1.0000   1.0000   1.0000
     1.0000   1.0000   1.0000   1.0000   1.0000   1.0000   1.0000   1.0000
     1.0000   1.0000

          k = 0.0169 0.0214-0.0936 ( 36547 PWs)   bands (ev):

   -16.2359 -15.8801 -15.1796 -15.1245 -13.8785 -13.8345 -12.3557 -12.2659
   -11.2929 -11.1881  -8.9725  -8.8537  -8.2177  -8.1055  -6.3948  -6.2461
    -5.3589  -5.2277  -5.1073  -4.8517  -4.3068  -4.2100  -4.1151  -3.9341
    -3.7894  -3.6832  -2.7371  -2.6750  -2.6081  -2.4329  -2.3904  -2.3232
    -1.2380  -1.1480  -1.0980  -1.0113  -0.9347  -0.7874  -0.2535  -0.2220
     0.6567   0.8610

     occupation numbers 
     1.0000   1.0000   1.0000   1.0000   1.0000   1.0000   1.0000   1.0000
     1.0000   1.0000   1.0000   1.0000   1.0000   1.0000   1.0000   1.0000
     1.0000   1.0000   1.0000   1.0000   1.0000   1.0000   1.0000   1.0000
     1.0000   1.0000   1.0000   1.0000   1.0000   1.0000   1.0000   1.0000
     1.0000   1.0000   1.0000   1.0000   1.0000   1.0000   1.0000   1.0000
     1.0000   1.0000

          k = 0.0169 0.0214-0.0265 ( 36551 PWs)   bands (ev):

   -16.2990 -15.9843 -15.2334 -15.1797 -13.8828 -13.8424 -12.3808 -12.2927
   -11.2879 -11.1639  -9.0078  -8.8847  -8.2771  -8.1190  -6.3996  -6.1474
    -5.3619  -5.2453  -5.0795  -4.6809  -4.2714  -4.1960  -4.0130  -3.7815
    -3.2783  -3.0771  -2.7495  -2.5731  -2.4031  -2.2204  -2.1596  -2.1171
    -1.2125  -1.1335  -1.0767  -0.9726  -0.9215  -0.7917   0.0131   0.0763
     0.5572   0.6715

     occupation numbers 
     1.0000   1.0000   1.0000   1.0000   1.0000   1.0000   1.0000   1.0000
     1.0000   1.0000   1.0000   1.0000   1.0000   1.0000   1.0000   1.0000
     1.0000   1.0000   1.0000   1.0000   1.0000   1.0000   1.0000   1.0000
     1.0000   1.0000   1.0000   1.0000   1.0000   1.0000   1.0000   1.0000
     1.0000   1.0000   1.0000   1.0000   1.0000   1.0000   1.0000   1.0000
     1.0000   1.0000

          k = 0.0169 0.0643 0.0407 ( 36518 PWs)   bands (ev):

   -16.2813 -15.9462 -15.2372 -15.1915 -13.9164 -13.8914 -12.4173 -12.3227
   -11.3001 -11.1498  -8.9416  -8.7686  -8.1835  -8.0431  -6.3724  -6.3139
    -5.3198  -5.1975  -5.0698  -4.9401  -4.3171  -4.2855  -3.9946  -3.8912
    -3.3167  -3.1643  -2.6729  -2.5578  -2.4504  -2.3692  -2.1076  -2.0635
    -1.0523  -1.0082  -0.9099  -0.8703  -0.8259  -0.7734   0.0049   0.1253
     0.6371   0.7012

     occupation numbers 
     1.0000   1.0000   1.0000   1.0000   1.0000   1.0000   1.0000   1.0000
     1.0000   1.0000   1.0000   1.0000   1.0000   1.0000   1.0000   1.0000
     1.0000   1.0000   1.0000   1.0000   1.0000   1.0000   1.0000   1.0000
     1.0000   1.0000   1.0000   1.0000   1.0000   1.0000   1.0000   1.0000
     1.0000   1.0000   1.0000   1.0000   1.0000   1.0000   1.0000   1.0000
     1.0000   1.0000

          k = 0.0169 0.0643 0.1078 ( 36558 PWs)   bands (ev):

   -16.2246 -15.8584 -15.1796 -15.1269 -13.8898 -13.8583 -12.3766 -12.2829
   -11.3192 -11.2004  -8.9639  -8.8065  -8.2041  -8.0972  -6.3514  -6.2730
    -5.3427  -5.2086  -4.9451  -4.8609  -4.2895  -4.2670  -4.0594  -3.9586
    -3.8924  -3.8685  -2.7270  -2.6579  -2.6001  -2.4803  -2.3753  -2.3060
    -1.2009  -1.1142  -1.0741  -1.0015  -0.9134  -0.8158  -0.1790  -0.0254
     0.6863   0.8667

     occupation numbers 
     1.0000   1.0000   1.0000   1.0000   1.0000   1.0000   1.0000   1.0000
     1.0000   1.0000   1.0000   1.0000   1.0000   1.0000   1.0000   1.0000
     1.0000   1.0000   1.0000   1.0000   1.0000   1.0000   1.0000   1.0000
     1.0000   1.0000   1.0000   1.0000   1.0000   1.0000   1.0000   1.0000
     1.0000   1.0000   1.0000   1.0000   1.0000   1.0000   1.0000   1.0000
     1.0000   1.0000

          k = 0.0169 0.0643-0.0936 ( 36547 PWs)   bands (ev):

   -16.2222 -15.8671 -15.1712 -15.1278 -13.8882 -13.8554 -12.3816 -12.2802
   -11.3135 -11.2136  -8.9351  -8.8449  -8.1882  -8.1278  -6.3728  -6.2094
    -5.3379  -5.2241  -4.9740  -4.7359  -4.3391  -4.2611  -4.1168  -4.0219
    -3.8564  -3.8034  -2.7644  -2.6815  -2.6211  -2.5175  -2.3470  -2.1724
    -1.2193  -1.1156  -1.0869  -1.0456  -0.8865  -0.8629  -0.1357  -0.0873
     0.6864   0.8715

     occupation numbers 
     1.0000   1.0000   1.0000   1.0000   1.0000   1.0000   1.0000   1.0000
     1.0000   1.0000   1.0000   1.0000   1.0000   1.0000   1.0000   1.0000
     1.0000   1.0000   1.0000   1.0000   1.0000   1.0000   1.0000   1.0000
     1.0000   1.0000   1.0000   1.0000   1.0000   1.0000   1.0000   1.0000
     1.0000   1.0000   1.0000   1.0000   1.0000   1.0000   1.0000   1.0000
     1.0000   1.0000

          k = 0.0169 0.0643-0.0265 ( 36489 PWs)   bands (ev):

   -16.2791 -15.9537 -15.2305 -15.1919 -13.9176 -13.8861 -12.4223 -12.3182
   -11.2951 -11.1645  -8.9154  -8.7999  -8.1641  -8.0814  -6.3984  -6.2590
    -5.3229  -5.1905  -5.0497  -4.8697  -4.3401  -4.2549  -4.0737  -3.9353
    -3.3394  -3.1309  -2.6398  -2.5171  -2.4567  -2.3459  -2.1260  -2.0605
    -1.0941  -0.9856  -0.9558  -0.8693  -0.8481  -0.7646   0.0400   0.0750
     0.6388   0.6952

     occupation numbers 
     1.0000   1.0000   1.0000   1.0000   1.0000   1.0000   1.0000   1.0000
     1.0000   1.0000   1.0000   1.0000   1.0000   1.0000   1.0000   1.0000
     1.0000   1.0000   1.0000   1.0000   1.0000   1.0000   1.0000   1.0000
     1.0000   1.0000   1.0000   1.0000   1.0000   1.0000   1.0000   1.0000
     1.0000   1.0000   1.0000   1.0000   1.0000   1.0000   1.0000   1.0000
     1.0000   1.0000

          k =-0.0169 0.0214-0.0407 ( 36525 PWs)   bands (ev):

   -16.2988 -15.9850 -15.2267 -15.1859 -13.8850 -13.8405 -12.3798 -12.2932
   -11.2867 -11.1660  -9.0050  -8.8854  -8.2487  -8.1543  -6.3750  -6.1720
    -5.3573  -5.2445  -5.0205  -4.7473  -4.2496  -4.1882  -4.0765  -3.7641
    -3.2832  -3.0457  -2.7242  -2.5813  -2.4370  -2.2224  -2.1432  -2.0951
    -1.2532  -1.1790  -1.0221  -0.9669  -0.9073  -0.8024   0.0137   0.0777
     0.5504   0.6759

     occupation numbers 
     1.0000   1.0000   1.0000   1.0000   1.0000   1.0000   1.0000   1.0000
     1.0000   1.0000   1.0000   1.0000   1.0000   1.0000   1.0000   1.0000
     1.0000   1.0000   1.0000   1.0000   1.0000   1.0000   1.0000   1.0000
     1.0000   1.0000   1.0000   1.0000   1.0000   1.0000   1.0000   1.0000
     1.0000   1.0000   1.0000   1.0000   1.0000   1.0000   1.0000   1.0000
     1.0000   1.0000

          k =-0.0169 0.0214-0.1078 ( 36561 PWs)   bands (ev):

   -16.2358 -15.8805 -15.1761 -15.1278 -13.8819 -13.8312 -12.3556 -12.2655
   -11.2928 -11.1891  -8.9717  -8.8530  -8.1933  -8.1336  -6.3724  -6.2688
    -5.3568  -5.2354  -5.0566  -4.8950  -4.2897  -4.2435  -4.1187  -3.8922
    -3.8190  -3.6689  -2.7653  -2.7098  -2.6034  -2.4423  -2.3724  -2.2541
    -1.2948  -1.1328  -1.1086  -0.9956  -0.8982  -0.8118  -0.2628  -0.2136
     0.6585   0.8591

     occupation numbers 
     1.0000   1.0000   1.0000   1.0000   1.0000   1.0000   1.0000   1.0000
     1.0000   1.0000   1.0000   1.0000   1.0000   1.0000   1.0000   1.0000
     1.0000   1.0000   1.0000   1.0000   1.0000   1.0000   1.0000   1.0000
     1.0000   1.0000   1.0000   1.0000   1.0000   1.0000   1.0000   1.0000
     1.0000   1.0000   1.0000   1.0000   1.0000   1.0000   1.0000   1.0000
     1.0000   1.0000

          k =-0.0169 0.0214 0.0936 ( 36547 PWs)   bands (ev):

   -16.2382 -15.8717 -15.1870 -15.1245 -13.8780 -13.8397 -12.3504 -12.2683
   -11.2980 -11.1761  -9.0010  -8.8173  -8.2304  -8.0708  -6.3893  -6.3031
    -5.3648  -5.2265  -5.1189  -4.8931  -4.2620  -4.1847  -4.1089  -3.9296
    -3.7839  -3.7036  -2.7564  -2.6682  -2.5994  -2.4256  -2.3890  -2.3756
    -1.2236  -1.1539  -1.1059  -1.0140  -0.8782  -0.7716  -0.2980  -0.1583
     0.6595   0.8573

     occupation numbers 
     1.0000   1.0000   1.0000   1.0000   1.0000   1.0000   1.0000   1.0000
     1.0000   1.0000   1.0000   1.0000   1.0000   1.0000   1.0000   1.0000
     1.0000   1.0000   1.0000   1.0000   1.0000   1.0000   1.0000   1.0000
     1.0000   1.0000   1.0000   1.0000   1.0000   1.0000   1.0000   1.0000
     1.0000   1.0000   1.0000   1.0000   1.0000   1.0000   1.0000   1.0000
     1.0000   1.0000

          k =-0.0169 0.0214 0.0265 ( 36551 PWs)   bands (ev):

   -16.3012 -15.9774 -15.2371 -15.1817 -13.8755 -13.8547 -12.3747 -12.2961
   -11.2927 -11.1520  -9.0333  -8.8529  -8.2801  -8.0960  -6.3969  -6.1998
    -5.3710  -5.2369  -5.0679  -4.7404  -4.2318  -4.2084  -3.9906  -3.7793
    -3.2691  -3.0802  -2.7730  -2.5523  -2.3659  -2.2956  -2.1770  -2.1140
    -1.1994  -1.1235  -1.0566  -0.9719  -0.9197  -0.7570  -0.0237   0.1301
     0.5555   0.6733

     occupation numbers 
     1.0000   1.0000   1.0000   1.0000   1.0000   1.0000   1.0000   1.0000
     1.0000   1.0000   1.0000   1.0000   1.0000   1.0000   1.0000   1.0000
     1.0000   1.0000   1.0000   1.0000   1.0000   1.0000   1.0000   1.0000
     1.0000   1.0000   1.0000   1.0000   1.0000   1.0000   1.0000   1.0000
     1.0000   1.0000   1.0000   1.0000   1.0000   1.0000   1.0000   1.0000
     1.0000   1.0000

          k =-0.0169 0.0643-0.0407 ( 36518 PWs)   bands (ev):

   -16.2790 -15.9539 -15.2284 -15.1939 -13.9184 -13.8849 -12.4221 -12.3200
   -11.2936 -11.1638  -8.9137  -8.8040  -8.1578  -8.0913  -6.3829  -6.2528
    -5.3207  -5.1933  -5.0504  -4.9047  -4.3436  -4.3038  -4.0874  -3.8181
    -3.3464  -3.1245  -2.6576  -2.5718  -2.4596  -2.3097  -2.1302  -2.0495
    -1.0863  -0.9860  -0.9329  -0.8854  -0.8362  -0.7895   0.0397   0.0720
     0.6333   0.7038

     occupation numbers 
     1.0000   1.0000   1.0000   1.0000   1.0000   1.0000   1.0000   1.0000
     1.0000   1.0000   1.0000   1.0000   1.0000   1.0000   1.0000   1.0000
     1.0000   1.0000   1.0000   1.0000   1.0000   1.0000   1.0000   1.0000
     1.0000   1.0000   1.0000   1.0000   1.0000   1.0000   1.0000   1.0000
     1.0000   1.0000   1.0000   1.0000   1.0000   1.0000   1.0000   1.0000
     1.0000   1.0000

          k =-0.0169 0.0643-0.1078 ( 36558 PWs)   bands (ev):

   -16.2222 -15.8671 -15.1713 -15.1276 -13.8890 -13.8546 -12.3818 -12.2804
   -11.3128 -11.2137  -8.9349  -8.8458  -8.1768  -8.1414  -6.3587  -6.2133
    -5.3345  -5.2274  -4.9622  -4.7835  -4.3276  -4.2708  -4.0914  -3.9880
    -3.8731  -3.8313  -2.7264  -2.6582  -2.6269  -2.4736  -2.4186  -2.1968
    -1.2457  -1.0953  -1.0661  -1.0380  -0.9157  -0.8475  -0.1351  -0.0838
     0.6843   0.8693

     occupation numbers 
     1.0000   1.0000   1.0000   1.0000   1.0000   1.0000   1.0000   1.0000
     1.0000   1.0000   1.0000   1.0000   1.0000   1.0000   1.0000   1.0000
     1.0000   1.0000   1.0000   1.0000   1.0000   1.0000   1.0000   1.0000
     1.0000   1.0000   1.0000   1.0000   1.0000   1.0000   1.0000   1.0000
     1.0000   1.0000   1.0000   1.0000   1.0000   1.0000   1.0000   1.0000
     1.0000   1.0000

          k =-0.0169 0.0643 0.0936 ( 36547 PWs)   bands (ev):

   -16.2246 -15.8583 -15.1797 -15.1269 -13.8854 -13.8629 -12.3764 -12.2825
   -11.3187 -11.2020  -8.9631  -8.8065  -8.2049  -8.0938  -6.3564  -6.2826
    -5.3418  -5.2138  -4.9323  -4.8330  -4.3007  -4.2344  -4.1075  -4.0142
    -3.8637  -3.8298  -2.7509  -2.6857  -2.6006  -2.5283  -2.3166  -2.2657
    -1.1859  -1.1238  -1.0649  -1.0140  -0.9105  -0.8317  -0.1814  -0.0257
     0.6888   0.8698

     occupation numbers 
     1.0000   1.0000   1.0000   1.0000   1.0000   1.0000   1.0000   1.0000
     1.0000   1.0000   1.0000   1.0000   1.0000   1.0000   1.0000   1.0000
     1.0000   1.0000   1.0000   1.0000   1.0000   1.0000   1.0000   1.0000
     1.0000   1.0000   1.0000   1.0000   1.0000   1.0000   1.0000   1.0000
     1.0000   1.0000   1.0000   1.0000   1.0000   1.0000   1.0000   1.0000
     1.0000   1.0000

          k =-0.0169 0.0643 0.0265 ( 36489 PWs)   bands (ev):

   -16.2813 -15.9461 -15.2361 -15.1926 -13.9098 -13.8981 -12.4164 -12.3228
   -11.3001 -11.1514  -8.9388  -8.7706  -8.1825  -8.0398  -6.4028  -6.3023
    -5.3173  -5.1956  -5.0555  -4.9199  -4.3226  -4.2061  -4.1192  -3.8888
    -3.3208  -3.1567  -2.6389  -2.5328  -2.4467  -2.3928  -2.1240  -2.0642
    -1.0608  -0.9863  -0.9515  -0.8800  -0.8338  -0.7281   0.0046   0.1287
     0.6341   0.7011

     occupation numbers 
     1.0000   1.0000   1.0000   1.0000   1.0000   1.0000   1.0000   1.0000
     1.0000   1.0000   1.0000   1.0000   1.0000   1.0000   1.0000   1.0000
     1.0000   1.0000   1.0000   1.0000   1.0000   1.0000   1.0000   1.0000
     1.0000   1.0000   1.0000   1.0000   1.0000   1.0000   1.0000   1.0000
     1.0000   1.0000   1.0000   1.0000   1.0000   1.0000   1.0000   1.0000
     1.0000   1.0000

     highest occupied level (ev):     0.8715

!    total energy              =    -548.04064912 Ry
     Harris-Foulkes estimate   =    -548.04064916 Ry
     estimated scf accuracy    <       0.00000005 Ry

     total all-electron energy =     -4615.884137 Ry

     The total energy is the sum of the following terms:

     one-electron contribution =    -152.31739686 Ry
     hartree contribution      =     107.52515360 Ry
     xc contribution           =    -104.17569445 Ry
     ewald contribution        =    -143.29149753 Ry
     one-center paw contrib.   =    -255.78121388 Ry
      -> PAW hartree energy AE =      19.35998954 Ry
      -> PAW hartree energy PS =     -19.25507619 Ry
      -> PAW xc energy AE      =     -55.69211811 Ry
      -> PAW xc energy PS      =      10.14451259 Ry
      -> total E_H with PAW    =     107.63006695 Ry
      -> total E_XC with PAW   =    -149.72329997 Ry

     convergence has been achieved in  11 iterations
 writing file ./scratch/scf-1590.save/charge-density
 writing file ./scratch/scf-1590.save/charge-density
 writing file ./scratch/scf-1590.save/charge-density
 writing file ./scratch/scf-1590.save/charge-density
 writing file ./scratch/scf-1590.save/charge-density
 writing file ./scratch/scf-1590.save/charge-density
 writing file ./scratch/scf-1590.save/charge-density
 writing file ./scratch/scf-1590.save/charge-density
 writing file ./scratch/scf-1590.save/charge-density
 writing file ./scratch/scf-1590.save/charge-density
 writing file ./scratch/scf-1590.save/charge-density
 writing file ./scratch/scf-1590.save/charge-density
 writing file ./scratch/scf-1590.save/charge-density
 writing file ./scratch/scf-1590.save/charge-density
 writing file ./scratch/scf-1590.save/charge-density
 writing file ./scratch/scf-1590.save/charge-density
 writing file ./scratch/scf-1590.save/charge-density
 writing file ./scratch/scf-1590.save/charge-density
 writing file ./scratch/scf-1590.save/charge-density
 writing file ./scratch/scf-1590.save/charge-density
 writing file ./scratch/scf-1590.save/charge-density
 writing file ./scratch/scf-1590.save/charge-density
 writing file ./scratch/scf-1590.save/charge-density
 writing file ./scratch/scf-1590.save/charge-density
 writing file ./scratch/scf-1590.save/charge-density
 writing file ./scratch/scf-1590.save/charge-density
 writing file ./scratch/scf-1590.save/charge-density
 writing file ./scratch/scf-1590.save/charge-density
 writing file ./scratch/scf-1590.save/charge-density
 writing file ./scratch/scf-1590.save/charge-density
 writing file ./scratch/scf-1590.save/charge-density
 writing file ./scratch/scf-1590.save/charge-density

     Forces acting on atoms (cartesian axes, Ry/au):

     atom    1 type  2   force =     0.00664063   -0.01003425    0.00499604
     atom    2 type  1   force =    -0.01062840    0.01179511   -0.00458535
     atom    3 type  1   force =     0.01832161   -0.00653475    0.00542177
     atom    4 type  3   force =    -0.00256630    0.00558642    0.00050360
     atom    5 type  1   force =    -0.01217678   -0.00820383   -0.01102740
     atom    6 type  3   force =    -0.00461204   -0.00054558   -0.00251494
     atom    7 type  3   force =    -0.00173358    0.00308289    0.00389004
     atom    8 type  1   force =     0.01106931   -0.00885808   -0.01866268
     atom    9 type  3   force =     0.00223839    0.00042729   -0.00411086
     atom   10 type  1   force =    -0.01748209   -0.00389091    0.01253606
     atom   11 type  1   force =    -0.03125755   -0.02427572    0.00537318
     atom   12 type  2   force =     0.05787069    0.04129766   -0.00693829
     atom   13 type  3   force =     0.00335285   -0.00022099    0.00079707
     atom   14 type  1   force =    -0.00522481    0.01532798    0.00782607
     atom   15 type  3   force =    -0.00043479   -0.00067250   -0.00299311
     atom   16 type  1   force =    -0.00374077    0.02277477    0.01879342
     atom   17 type  1   force =    -0.02351806   -0.01377544   -0.02846008
     atom   18 type  2   force =     0.03007471   -0.01736908    0.00596727
     atom   19 type  3   force =    -0.00172264    0.00072075    0.00054352
     atom   20 type  1   force =    -0.00618094   -0.00824248   -0.00350087
     atom   21 type  3   force =    -0.00133374   -0.00097561    0.00109910
     atom   22 type  1   force =    -0.02410709   -0.02606320   -0.00282775
     atom   23 type  1   force =    -0.03414726   -0.03450903    0.03651370
     atom   24 type  2   force =     0.05129864    0.06315859   -0.01863949
     The non-local contrib.  to forces
     atom    1 type  2   force =    -0.31787237    0.22553863    0.06194663
     atom    2 type  1   force =     0.39284817   -0.29195393   -0.07008626
     atom    3 type  1   force =    -0.04589381   -0.04690497   -0.03550313
     atom    4 type  3   force =    -0.07001339   -0.01266547   -0.03377382
     atom    5 type  1   force =    -0.05728502   -0.06038607   -0.05615113
     atom    6 type  3   force =    -0.01218187   -0.06398260   -0.04438484
     atom    7 type  3   force =     0.00630441   -0.06677919    0.04138859
     atom    8 type  1   force =     0.06129764   -0.08084316    0.00031300
     atom    9 type  3   force =     0.06890977   -0.02072481    0.03210048
     atom   10 type  1   force =     0.02869948   -0.04863524    0.06036301
     atom   11 type  1   force =    -0.42361691   -0.32418686    0.03613365
     atom   12 type  2   force =     0.31559887    0.23382104   -0.03523812
     atom   13 type  3   force =     0.01128301    0.06462885    0.04412570
     atom   14 type  1   force =     0.03066159    0.06083553    0.05322743
     atom   15 type  3   force =     0.06982215    0.01449396    0.03294867
     atom   16 type  1   force =     0.02453929    0.06139056    0.06165552
     atom   17 type  1   force =    -0.40892773    0.29307234   -0.00260593
     atom   18 type  2   force =     0.31403925   -0.24469958    0.00672427
     atom   19 type  3   force =    -0.00660709    0.06690913   -0.04045735
     atom   20 type  1   force =    -0.06136769    0.02245165   -0.04012330
     atom   21 type  3   force =    -0.06807397    0.01965088   -0.03468187
     atom   22 type  1   force =    -0.06153529   -0.01486148   -0.04269272
     atom   23 type  1   force =     0.35793167    0.27778349    0.06627170
     atom   24 type  2   force =    -0.32131084   -0.20097751   -0.07845295
     The ionic contribution  to forces
     atom    1 type  2   force =     5.47522330   -4.28322760   -0.10273579
     atom    2 type  1   force =     1.48822721   -1.80529307   -0.00303605
     atom    3 type  1   force =     3.80695419    1.66139371    1.96960692
     atom    4 type  3   force =     2.08490905    0.55024131    0.99126774
     atom    5 type  1   force =     0.68275834    4.06635460    2.22067081
     atom    6 type  3   force =     0.39008751    1.81398937    1.21759652
     atom    7 type  3   force =    -0.16244020    1.92100752   -1.16727976
     atom    8 type  1   force =    -0.60930713    4.25598081   -1.82373485
     atom    9 type  3   force =    -1.97620178    0.69369501   -0.96240247
     atom   10 type  1   force =    -3.70104811    1.61052888   -2.22637441
     atom   11 type  1   force =    -2.10906548   -2.00187199    0.06907083
     atom   12 type  2   force =    -3.67667819   -3.06490839    0.38607823
     atom   13 type  3   force =    -0.74068651   -1.83809205   -1.38903986
     atom   14 type  1   force =    -2.34084607   -4.00533789   -2.77291265
     atom   15 type  3   force =    -2.39124954   -0.55424017   -1.22175093
     atom   16 type  1   force =    -5.33171294   -1.36787139   -2.64961564
     atom   17 type  1   force =    -3.26317448    1.77119776   -0.31542440
     atom   18 type  2   force =    -6.67729876    3.55822352   -1.10733072
     atom   19 type  3   force =     0.56992815   -1.93915101    1.36780287
     atom   20 type  1   force =     1.80667512   -4.17777544    2.66607917
     atom   21 type  3   force =     2.18001026   -0.85149011    1.24360691
     atom   22 type  1   force =     4.83083206   -2.21976622    2.61851030
     atom   23 type  1   force =     2.55094277    1.44783667   -0.37970225
     atom   24 type  2   force =     7.11316123    4.75857618    1.37104949
     The local contribution  to forces
     atom    1 type  2   force =    -5.16329929    4.05638480    0.04828246
     atom    2 type  1   force =    -1.88179072    2.10153804    0.06696684
     atom    3 type  1   force =    -3.74202068   -1.62099373   -1.92837031
     atom    4 type  3   force =    -2.01748626   -0.53198264   -0.95699745
     atom    5 type  1   force =    -0.63827138   -4.01318167   -2.17505993
     atom    6 type  3   force =    -0.38252321   -1.75058004   -1.17574108
     atom    7 type  3   force =     0.15440467   -1.85115525    1.12978946
     atom    8 type  1   force =     0.55963752   -4.18315915    1.80399195
     atom    9 type  3   force =     1.90951033   -0.67253254    0.92618088
     atom   10 type  1   force =     3.65377037   -1.56590427    2.17814666
     atom   11 type  1   force =     2.48967219    2.29279092   -0.09880443
     atom   12 type  2   force =     3.43412588    2.88366420   -0.35940378
     atom   13 type  3   force =     0.73276270    1.77322643    1.34570985
     atom   14 type  1   force =     2.30507973    3.95877693    2.72714152
     atom   15 type  3   force =     2.32098964    0.53908286    1.18581048
     atom   16 type  1   force =     5.30226297    1.33033014    2.60718278
     atom   17 type  1   force =     3.63787329   -2.07035425    0.28994416
     atom   18 type  2   force =     6.40747008   -3.34188777    1.10710812
     atom   19 type  3   force =    -0.56503342    1.87295109   -1.32679498
     atom   20 type  1   force =    -1.75214329    4.14553241   -2.62887238
     atom   21 type  3   force =    -2.11328429    0.83086752   -1.20783199
     atom   22 type  1   force =    -4.79252376    2.20746741   -2.57834880
     atom   23 type  1   force =    -2.93450186   -1.75340634    0.34995242
     atom   24 type  2   force =    -6.75134831   -4.50043470   -1.31482743
     The core correction contribution to forces
     atom    1 type  2   force =     0.01255153   -0.00878647   -0.00253126
     atom    2 type  1   force =    -0.00988839    0.00756854    0.00160035
     atom    3 type  1   force =    -0.00076667    0.00008978   -0.00028175
     atom    4 type  3   force =     0.00000000    0.00000000    0.00000000
     atom    5 type  1   force =     0.00059786   -0.00099939   -0.00051000
     atom    6 type  3   force =     0.00000000    0.00000000    0.00000000
     atom    7 type  3   force =     0.00000000    0.00000000    0.00000000
     atom    8 type  1   force =    -0.00052019   -0.00074001    0.00075694
     atom    9 type  3   force =     0.00000000    0.00000000    0.00000000
     atom   10 type  1   force =     0.00109454    0.00021000    0.00037142
     atom   11 type  1   force =     0.01172685    0.00893933   -0.00101399
     atom   12 type  2   force =    -0.01525418   -0.01134032    0.00159084
     atom   13 type  3   force =     0.00000000    0.00000000    0.00000000
     atom   14 type  1   force =    -0.00011305    0.00104959    0.00036461
     atom   15 type  3   force =     0.00000000    0.00000000    0.00000000
     atom   16 type  1   force =     0.00118132   -0.00095816   -0.00037196
     atom   17 type  1   force =     0.01079002   -0.00763063   -0.00031855
     atom   18 type  2   force =    -0.01397674    0.01085323   -0.00053329
     atom   19 type  3   force =     0.00000000    0.00000000    0.00000000
     atom   20 type  1   force =     0.00076988    0.00154165   -0.00054694
     atom   21 type  3   force =     0.00000000    0.00000000    0.00000000
     atom   22 type  1   force =    -0.00079647    0.00109727   -0.00026056
     atom   23 type  1   force =    -0.00850810   -0.00673174    0.00002164
     atom   24 type  2   force =     0.01077196    0.00593693    0.00362427
     The Hubbard contrib.    to forces
     atom    1 type  2   force =     0.00000000    0.00000000    0.00000000
     atom    2 type  1   force =     0.00000000    0.00000000    0.00000000
     atom    3 type  1   force =     0.00000000    0.00000000    0.00000000
     atom    4 type  3   force =     0.00000000    0.00000000    0.00000000
     atom    5 type  1   force =     0.00000000    0.00000000    0.00000000
     atom    6 type  3   force =     0.00000000    0.00000000    0.00000000
     atom    7 type  3   force =     0.00000000    0.00000000    0.00000000
     atom    8 type  1   force =     0.00000000    0.00000000    0.00000000
     atom    9 type  3   force =     0.00000000    0.00000000    0.00000000
     atom   10 type  1   force =     0.00000000    0.00000000    0.00000000
     atom   11 type  1   force =     0.00000000    0.00000000    0.00000000
     atom   12 type  2   force =     0.00000000    0.00000000    0.00000000
     atom   13 type  3   force =     0.00000000    0.00000000    0.00000000
     atom   14 type  1   force =     0.00000000    0.00000000    0.00000000
     atom   15 type  3   force =     0.00000000    0.00000000    0.00000000
     atom   16 type  1   force =     0.00000000    0.00000000    0.00000000
     atom   17 type  1   force =     0.00000000    0.00000000    0.00000000
     atom   18 type  2   force =     0.00000000    0.00000000    0.00000000
     atom   19 type  3   force =     0.00000000    0.00000000    0.00000000
     atom   20 type  1   force =     0.00000000    0.00000000    0.00000000
     atom   21 type  3   force =     0.00000000    0.00000000    0.00000000
     atom   22 type  1   force =     0.00000000    0.00000000    0.00000000
     atom   23 type  1   force =     0.00000000    0.00000000    0.00000000
     atom   24 type  2   force =     0.00000000    0.00000000    0.00000000
     The SCF correction term to forces
     atom    1 type  2   force =     0.00003817    0.00005550    0.00003428
     atom    2 type  1   force =    -0.00002396   -0.00006537   -0.00002996
     atom    3 type  1   force =     0.00004928   -0.00012044   -0.00002970
     atom    4 type  3   force =     0.00002500   -0.00000768    0.00000740
     atom    5 type  1   force =     0.00002412    0.00000779    0.00002312
     atom    6 type  3   force =     0.00000624    0.00002679    0.00001474
     atom    7 type  3   force =    -0.00000176    0.00000891   -0.00000799
     atom    8 type  1   force =    -0.00003783   -0.00009747    0.00001055
     atom    9 type  3   force =     0.00002077   -0.00001127    0.00001052
     atom   10 type  1   force =     0.00000232   -0.00009119    0.00002965
     atom   11 type  1   force =     0.00002650    0.00005198   -0.00001261
     atom   12 type  2   force =     0.00007901    0.00006023    0.00003481
     atom   13 type  3   force =    -0.00000565    0.00001488    0.00000165
     atom   14 type  1   force =    -0.00000631    0.00000293    0.00000544
     atom   15 type  3   force =     0.00000366   -0.00001004   -0.00000106
     atom   16 type  1   force =    -0.00001071   -0.00011729   -0.00005700
     atom   17 type  1   force =    -0.00007845   -0.00006156   -0.00005509
     atom   18 type  2   force =    -0.00015842    0.00014061   -0.00000084
     atom   19 type  3   force =    -0.00000957    0.00001065   -0.00000675
     atom   20 type  1   force =    -0.00011426    0.00000635   -0.00003716
     atom   21 type  3   force =     0.00001496   -0.00000480    0.00000632
     atom   22 type  1   force =    -0.00008293   -0.00000107   -0.00003570
     atom   23 type  1   force =    -0.00001103    0.00000799   -0.00002954
     atom   24 type  2   force =     0.00002530    0.00005678   -0.00003260

     Total force =     0.158451     Total SCF correction =     0.000415

     Writing output data file scf-1590.save
 writing file ./scratch/scf-1590.save/charge-density
 writing file ./scratch/scf-1590.save/charge-density
 writing file ./scratch/scf-1590.save/charge-density
 writing file ./scratch/scf-1590.save/charge-density
 writing file ./scratch/scf-1590.save/charge-density
 writing file ./scratch/scf-1590.save/charge-density
 writing file ./scratch/scf-1590.save/charge-density
 writing file ./scratch/scf-1590.save/charge-density
 writing file ./scratch/scf-1590.save/charge-density
 writing file ./scratch/scf-1590.save/charge-density
 writing file ./scratch/scf-1590.save/charge-density
 writing file ./scratch/scf-1590.save/charge-density
 writing file ./scratch/scf-1590.save/charge-density
 writing file ./scratch/scf-1590.save/charge-density
 writing file ./scratch/scf-1590.save/charge-density
 writing file ./scratch/scf-1590.save/charge-density
 writing file ./scratch/scf-1590.save/charge-density
 writing file ./scratch/scf-1590.save/charge-density
 writing file ./scratch/scf-1590.save/charge-density
 writing file ./scratch/scf-1590.save/charge-density
 writing file ./scratch/scf-1590.save/charge-density
 writing file ./scratch/scf-1590.save/charge-density
 writing file ./scratch/scf-1590.save/charge-density
 writing file ./scratch/scf-1590.save/charge-density
 writing file ./scratch/scf-1590.save/charge-density
 writing file ./scratch/scf-1590.save/charge-density
 writing file ./scratch/scf-1590.save/charge-density
 writing file ./scratch/scf-1590.save/charge-density
 writing file ./scratch/scf-1590.save/charge-density
 writing file ./scratch/scf-1590.save/charge-density
 writing file ./scratch/scf-1590.save/charge-density
 writing file ./scratch/scf-1590.save/charge-density
 
     init_run     :      4.38s CPU      4.59s WALL (       1 calls)
     electrons    :     49.69s CPU     52.57s WALL (       1 calls)
     forces       :      2.33s CPU      2.48s WALL (       1 calls)

     Called by init_run:
     wfcinit      :      1.58s CPU      1.61s WALL (       1 calls)
     wfcinit:atom :      0.02s CPU      0.02s WALL (      16 calls)
     wfcinit:wfcr :      1.46s CPU      1.49s WALL (      16 calls)
     potinit      :      0.89s CPU      0.91s WALL (       1 calls)

     Called by electrons:
     c_bands      :     38.85s CPU     39.16s WALL (      11 calls)
     sum_band     :      6.82s CPU      7.95s WALL (      11 calls)
     v_of_rho     :      0.90s CPU      0.97s WALL (      12 calls)
     v_h          :      0.06s CPU      0.06s WALL (      12 calls)
     v_xc         :      0.91s CPU      0.98s WALL (      13 calls)
     newd         :      1.48s CPU      2.86s WALL (      12 calls)
     PAW_pot      :      1.63s CPU      1.70s WALL (      12 calls)
     mix_rho      :      0.15s CPU      0.14s WALL (      11 calls)

     Called by c_bands:
     init_us_2    :      0.82s CPU      0.86s WALL (     384 calls)
     cegterg      :     36.56s CPU     36.74s WALL (     176 calls)

     Called by sum_band:
     sum_band:bec :      0.01s CPU      0.02s WALL (     176 calls)
     addusdens    :      1.54s CPU      2.66s WALL (      11 calls)

     Called by *egterg:
     h_psi        :     27.26s CPU     27.36s WALL (     864 calls)
     s_psi        :      2.04s CPU      2.04s WALL (     864 calls)
     g_psi        :      0.16s CPU      0.16s WALL (     672 calls)
     cdiaghg      :      3.40s CPU      3.43s WALL (     848 calls)
     cegterg:over :      1.72s CPU      1.64s WALL (     672 calls)
     cegterg:upda :      1.25s CPU      1.27s WALL (     672 calls)
     cegterg:last :      0.44s CPU      0.44s WALL (     192 calls)

     Called by h_psi:
     h_psi:pot    :     26.90s CPU     27.08s WALL (     864 calls)
     h_psi:calbec :      2.36s CPU      2.29s WALL (     864 calls)
     vloc_psi     :     22.66s CPU     22.81s WALL (     864 calls)
     add_vuspsi   :      1.89s CPU      1.98s WALL (     864 calls)

     General routines
     calbec       :      3.12s CPU      3.04s WALL (    1104 calls)
     fft          :      0.78s CPU      0.79s WALL (     199 calls)
     ffts         :      0.03s CPU      0.03s WALL (      23 calls)
     fftw         :     21.42s CPU     21.51s WALL (   55832 calls)
     interpolate  :      0.15s CPU      0.15s WALL (      23 calls)
     davcio       :      0.00s CPU      0.01s WALL (      16 calls)
 
     Parallel routines
     fft_scatter  :      7.37s CPU      7.59s WALL (   56054 calls)

     PAW routines
     PAW_pot      :      1.63s CPU      1.70s WALL (      12 calls)
 
     PWSCF        :  0m57.08s CPU     1m 0.89s WALL

 
   This run was terminated on:  13:42:23  22May2017            

=------------------------------------------------------------------------------=
   JOB DONE.
=------------------------------------------------------------------------------=
