
     Program PWSCF v.6.1 starts on 20May2017 at 11:29:21 

     This program is part of the open-source Quantum ESPRESSO suite
     for quantum simulation of materials; please cite
         "P. Giannozzi et al., J. Phys.:Condens. Matter 21 395502 (2009);
          URL http://www.quantum-espresso.org", 
     in publications or presentations arising from this work. More details at
     http://www.quantum-espresso.org/quote

     Parallel version (MPI & OpenMP), running on      32 processor cores
     Number of MPI processes:                32
     Threads/MPI process:                     1
     R & G space division:  proc/nbgrp/npool/nimage =      32
     Waiting for input...
     Reading input from standard input
Warning: card &IONS ignored
Warning: card     ION_TEMPERATURE   = 'INITIAL' ignored
Warning: card     TEMPW             = 586.D0 ignored
Warning: card     TOLP              = 100.D0 ignored
Warning: card     DELTA_T           = 1.D0 ignored
Warning: card     NRAISE            = 1 ignored
Warning: card / ignored
Warning: card &CELL ignored
Warning: card     CELL_DYNAMICS     = 'BFGS' ignored
Warning: card / ignored

     Current dimensions of program PWSCF are:
     Max number of different atomic species (ntypx) = 10
     Max number of k-points (npk) =  40000
     Max angular momentum in pseudopotentials (lmaxx) =  3
               file C.pbe-n-kjpaw_psl.1.0.0.UPF: wavefunction(s)  2S 2P renormalized
               file Cl.pbe-n-kjpaw_psl.1.0.0.UPF: wavefunction(s)  3S 3P renormalized
               file H.pbe-kjpaw_psl.1.0.0.UPF: wavefunction(s)  1S renormalized

     Subspace diagonalization in iterative solution of the eigenvalue problem:
     a serial algorithm will be used

 
     Parallelization info
     --------------------
     sticks:   dense  smooth     PW     G-vecs:    dense   smooth      PW
     Min         764     305     83                36108     9133    1292
     Max         765     306     84                36110     9135    1293
     Sum       24467    9791   2657              1155489   292295   41363
 


     bravais-lattice index     =            0
     lattice parameter (alat)  =       1.8897  a.u.
     unit-cell volume          =    2163.5316 (a.u.)^3
     number of atoms/cell      =           24
     number of atomic types    =            3
     number of electrons       =        84.00
     number of Kohn-Sham states=           42
     kinetic-energy cutoff     =     100.0000  Ry
     charge density cutoff     =    1000.0000  Ry
     convergence threshold     =      1.0E-07
     mixing beta               =       0.7000
     number of iterations used =            8  plain     mixing
     Exchange-correlation      =  SLA  PW   PBX  PBC ( 1  4  3  4 0 0)

     celldm(1)=   1.889726  celldm(2)=   0.000000  celldm(3)=   0.000000
     celldm(4)=   0.000000  celldm(5)=   0.000000  celldm(6)=   0.000000

     crystal axes: (cart. coord. in units of alat)
               a(1) = (  14.762000   0.000000   0.000000 )  
               a(2) = (   0.000000   5.832000   0.000000 )  
               a(3) = (  -1.563876   0.000000   3.723951 )  

     reciprocal axes: (cart. coord. in units 2 pi/alat)
               b(1) = (  0.067741  0.000000  0.028448 )  
               b(2) = (  0.000000  0.171468  0.000000 )  
               b(3) = (  0.000000  0.000000  0.268532 )  


     PseudoPot. # 1 for  C read from file:
     /global/cscratch1/sd/almno10/.data/PSEUDOPOTENTIALS/C.pbe-n-kjpaw_psl.1.0.0.UPF
     MD5 check sum: 2ba8448e293caca687844dde9a1b88a8
     Pseudo is Projector augmented-wave + core cor, Zval =  4.0
     Generated using "atomic" code by A. Dal Corso  v.5.3.0 svn rev. 11974
     Shape of augmentation charge: PSQ
     Using radial grid of 1073 points,  4 beta functions with: 
                l(1) =   0
                l(2) =   0
                l(3) =   1
                l(4) =   1
     Q(r) pseudized with 0 coefficients 


     PseudoPot. # 2 for Cl read from file:
     /global/cscratch1/sd/almno10/.data/PSEUDOPOTENTIALS/Cl.pbe-n-kjpaw_psl.1.0.0.UPF
     MD5 check sum: dca63699d6b897c5771335df08a09219
     Pseudo is Projector augmented-wave + core cor, Zval =  7.0
     Generated using "atomic" code by A. Dal Corso  v.5.3.0 svn rev. 11974
     Shape of augmentation charge: PSQ
     Using radial grid of 1157 points,  6 beta functions with: 
                l(1) =   0
                l(2) =   0
                l(3) =   1
                l(4) =   1
                l(5) =   2
                l(6) =   2
     Q(r) pseudized with 0 coefficients 


     PseudoPot. # 3 for  H read from file:
     /global/cscratch1/sd/almno10/.data/PSEUDOPOTENTIALS/H.pbe-kjpaw_psl.1.0.0.UPF
     MD5 check sum: bc0feb48a24907a0b97fa6ee2d589a29
     Pseudo is Projector augmented-wave, Zval =  1.0
     Generated using "atomic" code by A. Dal Corso  v.5.3.0 svn rev. 11974
     Shape of augmentation charge: PSQ
     Using radial grid of  929 points,  2 beta functions with: 
                l(1) =   0
                l(2) =   0
     Q(r) pseudized with 0 coefficients 


     atomic species   valence    mass     pseudopotential
        C              4.00    12.01100      C( 1.00)
        Cl             7.00    35.45270     Cl( 1.00)
        H              1.00     1.00790      H( 1.00)

     No symmetry found


                                    s                        frac. trans.

      isym =  1     identity                                     

 cryst.   s( 1) = (     1          0          0      )
                  (     0          1          0      )
                  (     0          0          1      )

 cart.    s( 1) = (  1.0000000  0.0000000 -0.0000000 )
                  (  0.0000000  1.0000000  0.0000000 )
                  (  0.0000000  0.0000000  1.0000000 )


   Cartesian axes

     site n.     atom                  positions (alat units)
         1           Cl  tau(   1) = (  16.3482623   1.1906259   1.8032456  )
         2           C   tau(   2) = (  14.9670662   2.1267314   1.7909594  )
         3           C   tau(   3) = (  15.0429447   3.2776908   2.5746698  )
         4           H   tau(   4) = (  15.9633971   3.4553120   3.1291569  )
         5           C   tau(   5) = (  14.0592747   4.2646674   2.5217803  )
         6           H   tau(   6) = (  14.1444521   5.1492318   3.1506452  )
         7           H   tau(   7) = (   6.3529593   2.0280883   0.6685714  )
         8           C   tau(   8) = (   6.4845058   1.1071949   1.2333138  )
         9           H   tau(   9) = (   4.5195376   0.3566134   0.7586068  )
        10           C   tau(  10) = (   5.4725111   0.1478156   1.2428760  )
        11           C   tau(  11) = (   5.6328494  -1.0388045   1.9567151  )
        12           Cl  tau(  12) = (   4.2817118  -2.1878422   1.8740229  )
        13           H   tau(  13) = (  13.7407016   0.9352721   0.4390088  )
        14           C   tau(  14) = (  13.8475889   1.8603943   1.0020000  )
        15           H   tau(  15) = (  11.8885858   2.5904126   0.4766782  )
        16           C   tau(  16) = (  12.7795550   2.7554176   1.0773542  )
        17           C   tau(  17) = (  12.9036330   3.9674135   1.7994144  )
        18           Cl  tau(  18) = (  11.4330931   5.0248065   1.9329166  )
        19           H   tau(  19) = (   6.9507049  -2.2460207   3.1912722  )
        20           C   tau(  20) = (   6.8314142  -1.3381193   2.6030402  )
        21           H   tau(  21) = (   8.7829005  -0.5739655   3.1037999  )
        22           C   tau(  22) = (   7.8370087  -0.3736245   2.6039064  )
        23           C   tau(  23) = (   7.6896903   0.7955706   1.8593388  )
        24           Cl  tau(  24) = (   9.0695895   1.7844401   1.8636348  )

   Crystallographic axes

     site n.     atom                  positions (cryst. coord.)
         1           Cl  tau(   1) = (  1.1587547  0.2041540  0.4842291  )
         2           C   tau(   2) = (  1.0648408  0.3646659  0.4809298  )
         3           C   tau(   3) = (  1.0922760  0.5620183  0.6913811  )
         4           H   tau(   4) = (  1.1704030  0.5924746  0.8402787  )
         5           C   tau(   5) = (  1.0241362  0.7312530  0.6771786  )
         6           H   tau(   6) = (  1.0477962  0.8829273  0.8460489  )
         7           H   tau(   7) = (  0.4493786  0.3477518  0.1795328  )
         8           C   tau(   8) = (  0.4743556  0.1898482  0.3311842  )
         9           H   tau(   9) = (  0.3277412  0.0611477  0.2037102  )
        10           C   tau(  10) = (  0.4060735  0.0253456  0.3337519  )
        11           C   tau(  11) = (  0.4372425 -0.1781215  0.5254406  )
        12           Cl  tau(  12) = (  0.3433619 -0.3751444  0.5032351  )
        13           H   tau(  13) = (  0.9433047  0.1603690  0.1178879  )
        14           C   tau(  14) = (  0.9665614  0.3189976  0.2690690  )
        15           H   tau(  15) = (  0.8189112  0.4441722  0.1280033  )
        16           C   tau(  16) = (  0.8963549  0.4724653  0.2893040  )
        17           C   tau(  17) = (  0.9253013  0.6802835  0.4832003  )
        18           Cl  tau(  18) = (  0.8294826  0.8615923  0.5190499  )
        19           H   tau(  19) = (  0.5616367 -0.3851201  0.8569586  )
        20           C   tau(  20) = (  0.5368217 -0.2294443  0.6989995  )
        21           H   tau(  21) = (  0.6832640 -0.0984166  0.8334695  )
        22           C   tau(  22) = (  0.6049669 -0.0640646  0.6992321  )
        23           C   tau(  23) = (  0.5738058  0.1364147  0.4992919  )
        24           Cl  tau(  24) = (  0.6674044  0.3059739  0.5004455  )

     number of k points=    16
                       cart. coord. in units 2pi/alat
        k(    1) = (   0.0169354   0.0214335   0.0406785), wk =   0.1250000
        k(    2) = (   0.0169354   0.0214335   0.1078115), wk =   0.1250000
        k(    3) = (   0.0169354   0.0214335  -0.0935875), wk =   0.1250000
        k(    4) = (   0.0169354   0.0214335  -0.0264545), wk =   0.1250000
        k(    5) = (   0.0169354   0.0643004   0.0406785), wk =   0.1250000
        k(    6) = (   0.0169354   0.0643004   0.1078115), wk =   0.1250000
        k(    7) = (   0.0169354   0.0643004  -0.0935875), wk =   0.1250000
        k(    8) = (   0.0169354   0.0643004  -0.0264545), wk =   0.1250000
        k(    9) = (  -0.0169354   0.0214335  -0.0406785), wk =   0.1250000
        k(   10) = (  -0.0169354   0.0214335  -0.1078115), wk =   0.1250000
        k(   11) = (  -0.0169354   0.0214335   0.0935875), wk =   0.1250000
        k(   12) = (  -0.0169354   0.0214335   0.0264545), wk =   0.1250000
        k(   13) = (  -0.0169354   0.0643004  -0.0406785), wk =   0.1250000
        k(   14) = (  -0.0169354   0.0643004  -0.1078115), wk =   0.1250000
        k(   15) = (  -0.0169354   0.0643004   0.0935875), wk =   0.1250000
        k(   16) = (  -0.0169354   0.0643004   0.0264545), wk =   0.1250000

                       cryst. coord.
        k(    1) = (   0.2500000   0.1250000   0.1250000), wk =   0.1250000
        k(    2) = (   0.2500000   0.1250000   0.3750000), wk =   0.1250000
        k(    3) = (   0.2500000   0.1250000  -0.3750000), wk =   0.1250000
        k(    4) = (   0.2500000   0.1250000  -0.1250000), wk =   0.1250000
        k(    5) = (   0.2500000   0.3750000   0.1250000), wk =   0.1250000
        k(    6) = (   0.2500000   0.3750000   0.3750000), wk =   0.1250000
        k(    7) = (   0.2500000   0.3750000  -0.3750000), wk =   0.1250000
        k(    8) = (   0.2500000   0.3750000  -0.1250000), wk =   0.1250000
        k(    9) = (  -0.2500000   0.1250000  -0.1250000), wk =   0.1250000
        k(   10) = (  -0.2500000   0.1250000  -0.3750000), wk =   0.1250000
        k(   11) = (  -0.2500000   0.1250000   0.3750000), wk =   0.1250000
        k(   12) = (  -0.2500000   0.1250000   0.1250000), wk =   0.1250000
        k(   13) = (  -0.2500000   0.3750000  -0.1250000), wk =   0.1250000
        k(   14) = (  -0.2500000   0.3750000  -0.3750000), wk =   0.1250000
        k(   15) = (  -0.2500000   0.3750000   0.3750000), wk =   0.1250000
        k(   16) = (  -0.2500000   0.3750000   0.1250000), wk =   0.1250000

     Dense  grid:  1155489 G-vectors     FFT dimensions: ( 288, 120,  80)

     Smooth grid:   292295 G-vectors     FFT dimensions: ( 180,  72,  50)

     Estimated max dynamical RAM per process >     147.21MB

     Estimated total allocated dynamical RAM >    4710.62MB

     Initial potential from superposition of free atoms

     starting charge   83.99939, renormalised to   84.00000
     Starting wfc are   72 randomized atomic wfcs
     Checking if some PAW data can be deallocated... 
       node    0, deallocated PAW data for type:  1
       node    0, deallocated PAW data for type:  3
       node    1, deallocated PAW data for type:  1
       node    1, deallocated PAW data for type:  3
       node    2, deallocated PAW data for type:  2
       node    2, deallocated PAW data for type:  3
       node    3, deallocated PAW data for type:  2
       node    3, deallocated PAW data for type:  3
       node    4, deallocated PAW data for type:  2
       node    4, deallocated PAW data for type:  3
       node    5, deallocated PAW data for type:  2
       node    5, deallocated PAW data for type:  3
       node    6, deallocated PAW data for type:  1
       node    6, deallocated PAW data for type:  2
       node    7, deallocated PAW data for type:  1
       node    7, deallocated PAW data for type:  2
       node    8, deallocated PAW data for type:  2
       node    8, deallocated PAW data for type:  3
       node    9, deallocated PAW data for type:  2
       node    9, deallocated PAW data for type:  3
       node   10, deallocated PAW data for type:  1
       node   10, deallocated PAW data for type:  2
       node   11, deallocated PAW data for type:  1
       node   11, deallocated PAW data for type:  2
       node   12, deallocated PAW data for type:  1
       node   12, deallocated PAW data for type:  2
       node   13, deallocated PAW data for type:  1
       node   13, deallocated PAW data for type:  2
       node   14, deallocated PAW data for type:  2
       node   14, deallocated PAW data for type:  3
       node   15, deallocated PAW data for type:  2
       node   15, deallocated PAW data for type:  3
       node   16, deallocated PAW data for type:  1
       node   16, deallocated PAW data for type:  2
       node   17, deallocated PAW data for type:  2
       node   17, deallocated PAW data for type:  3
       node   18, deallocated PAW data for type:  2
       node   18, deallocated PAW data for type:  3
       node   19, deallocated PAW data for type:  1
       node   19, deallocated PAW data for type:  3
       node   20, deallocated PAW data for type:  1
       node   20, deallocated PAW data for type:  2
       node   21, deallocated PAW data for type:  2
       node   21, deallocated PAW data for type:  3
       node   22, deallocated PAW data for type:  1
       node   22, deallocated PAW data for type:  2
       node   23, deallocated PAW data for type:  2
       node   23, deallocated PAW data for type:  3
       node   24, deallocated PAW data for type:  2
       node   24, deallocated PAW data for type:  3
       node   25, deallocated PAW data for type:  1
       node   25, deallocated PAW data for type:  3
       node   26, deallocated PAW data for type:  1
       node   26, deallocated PAW data for type:  2
       node   27, deallocated PAW data for type:  2
       node   27, deallocated PAW data for type:  3
       node   28, deallocated PAW data for type:  1
       node   28, deallocated PAW data for type:  2
       node   29, deallocated PAW data for type:  2
       node   29, deallocated PAW data for type:  3
       node   30, deallocated PAW data for type:  2
       node   30, deallocated PAW data for type:  3
       node   31, deallocated PAW data for type:  1
       node   31, deallocated PAW data for type:  3

     total cpu time spent up to now is        5.3 secs

     per-process dynamical memory:    20.7 Mb

     Self-consistent Calculation

     iteration #  1     ecut=   100.00 Ry     beta= 0.70
     Davidson diagonalization with overlap
     ethr =  1.00E-04,  avg # of iterations =  5.0

     total cpu time spent up to now is       12.1 secs

     total energy              =    -547.11316116 Ry
     Harris-Foulkes estimate   =    -548.99186497 Ry
     estimated scf accuracy    <       2.74248984 Ry

     iteration #  2     ecut=   100.00 Ry     beta= 0.70
     Davidson diagonalization with overlap
     ethr =  3.26E-03,  avg # of iterations =  3.0

     total cpu time spent up to now is       17.1 secs

     total energy              =    -547.51880656 Ry
     Harris-Foulkes estimate   =    -548.61147233 Ry
     estimated scf accuracy    <       1.97744447 Ry

     iteration #  3     ecut=   100.00 Ry     beta= 0.70
     Davidson diagonalization with overlap
     ethr =  2.35E-03,  avg # of iterations =  2.9

     total cpu time spent up to now is       21.5 secs

     total energy              =    -548.00872718 Ry
     Harris-Foulkes estimate   =    -548.04895451 Ry
     estimated scf accuracy    <       0.08102030 Ry

     iteration #  4     ecut=   100.00 Ry     beta= 0.70
     Davidson diagonalization with overlap
     ethr =  9.65E-05,  avg # of iterations =  4.0

     total cpu time spent up to now is       26.4 secs

     total energy              =    -548.03570033 Ry
     Harris-Foulkes estimate   =    -548.04650408 Ry
     estimated scf accuracy    <       0.02149751 Ry

     iteration #  5     ecut=   100.00 Ry     beta= 0.70
     Davidson diagonalization with overlap
     ethr =  2.56E-05,  avg # of iterations =  3.0

     total cpu time spent up to now is       30.9 secs

     total energy              =    -548.04004378 Ry
     Harris-Foulkes estimate   =    -548.04063027 Ry
     estimated scf accuracy    <       0.00117291 Ry

     iteration #  6     ecut=   100.00 Ry     beta= 0.70
     Davidson diagonalization with overlap
     ethr =  1.40E-06,  avg # of iterations =  4.0

     total cpu time spent up to now is       35.8 secs

     total energy              =    -548.04029131 Ry
     Harris-Foulkes estimate   =    -548.04059080 Ry
     estimated scf accuracy    <       0.00066002 Ry

     iteration #  7     ecut=   100.00 Ry     beta= 0.70
     Davidson diagonalization with overlap
     ethr =  7.86E-07,  avg # of iterations =  4.0

     total cpu time spent up to now is       40.2 secs

     total energy              =    -548.04043422 Ry
     Harris-Foulkes estimate   =    -548.04049399 Ry
     estimated scf accuracy    <       0.00015499 Ry

     iteration #  8     ecut=   100.00 Ry     beta= 0.70
     Davidson diagonalization with overlap
     ethr =  1.85E-07,  avg # of iterations =  4.0

     total cpu time spent up to now is       44.7 secs

     total energy              =    -548.04046353 Ry
     Harris-Foulkes estimate   =    -548.04047392 Ry
     estimated scf accuracy    <       0.00002453 Ry

     iteration #  9     ecut=   100.00 Ry     beta= 0.70
     Davidson diagonalization with overlap
     ethr =  2.92E-08,  avg # of iterations =  4.0

     total cpu time spent up to now is       49.3 secs

     total energy              =    -548.04046901 Ry
     Harris-Foulkes estimate   =    -548.04047035 Ry
     estimated scf accuracy    <       0.00000311 Ry

     iteration # 10     ecut=   100.00 Ry     beta= 0.70
     Davidson diagonalization with overlap
     ethr =  3.70E-09,  avg # of iterations =  4.0

     total cpu time spent up to now is       53.9 secs

     total energy              =    -548.04046968 Ry
     Harris-Foulkes estimate   =    -548.04046982 Ry
     estimated scf accuracy    <       0.00000032 Ry

     iteration # 11     ecut=   100.00 Ry     beta= 0.70
     Davidson diagonalization with overlap
     ethr =  3.77E-10,  avg # of iterations =  4.0

     total cpu time spent up to now is       58.7 secs

     End of self-consistent calculation

          k = 0.0169 0.0214 0.0407 ( 36525 PWs)   bands (ev):

   -16.3119 -16.1598 -15.3839 -15.2675 -13.9091 -13.8850 -12.3381 -12.2955
   -11.2025 -11.1793  -8.9735  -8.9475  -8.2108  -8.1415  -6.3482  -6.2684
    -5.3213  -5.3038  -5.0549  -4.8584  -4.2640  -4.1489  -3.9652  -3.8726
    -3.2579  -3.1798  -2.7436  -2.6098  -2.3808  -2.2834  -2.1813  -2.1720
    -1.2349  -1.1476  -1.0121  -0.9736  -0.8804  -0.7844  -0.0184   0.0554
     0.6600   0.8029

     occupation numbers 
     1.0000   1.0000   1.0000   1.0000   1.0000   1.0000   1.0000   1.0000
     1.0000   1.0000   1.0000   1.0000   1.0000   1.0000   1.0000   1.0000
     1.0000   1.0000   1.0000   1.0000   1.0000   1.0000   1.0000   1.0000
     1.0000   1.0000   1.0000   1.0000   1.0000   1.0000   1.0000   1.0000
     1.0000   1.0000   1.0000   1.0000   1.0000   1.0000   1.0000   1.0000
     1.0000   1.0000

          k = 0.0169 0.0214 0.1078 ( 36561 PWs)   bands (ev):

   -16.2410 -16.0886 -15.3375 -15.2059 -13.9017 -13.8577 -12.3320 -12.2763
   -11.2061 -11.1646  -8.9390  -8.9119  -8.1650  -8.1213  -6.3844  -6.2903
    -5.3161  -5.2940  -5.0787  -4.9576  -4.3503  -4.2411  -4.0281  -3.9185
    -3.8029  -3.6872  -2.8805  -2.7356  -2.6286  -2.4154  -2.3571  -2.2751
    -1.3397  -1.1906  -1.1301  -0.9877  -0.9291  -0.7845  -0.1988  -0.1702
     0.6816   0.7904

     occupation numbers 
     1.0000   1.0000   1.0000   1.0000   1.0000   1.0000   1.0000   1.0000
     1.0000   1.0000   1.0000   1.0000   1.0000   1.0000   1.0000   1.0000
     1.0000   1.0000   1.0000   1.0000   1.0000   1.0000   1.0000   1.0000
     1.0000   1.0000   1.0000   1.0000   1.0000   1.0000   1.0000   1.0000
     1.0000   1.0000   1.0000   1.0000   1.0000   1.0000   1.0000   1.0000
     1.0000   1.0000

          k = 0.0169 0.0214-0.0936 ( 36547 PWs)   bands (ev):

   -16.2440 -16.0845 -15.3413 -15.2039 -13.8950 -13.8631 -12.3266 -12.2816
   -11.1890 -11.1805  -8.9466  -8.9092  -8.1886  -8.1021  -6.3711  -6.3094
    -5.3099  -5.3010  -5.1025  -4.8895  -4.3180  -4.2413  -4.0898  -3.9550
    -3.7469  -3.7112  -2.7916  -2.7513  -2.6446  -2.3963  -2.3799  -2.3470
    -1.2783  -1.2123  -1.1166  -1.0186  -0.9215  -0.7902  -0.2258  -0.1353
     0.6875   0.7761

     occupation numbers 
     1.0000   1.0000   1.0000   1.0000   1.0000   1.0000   1.0000   1.0000
     1.0000   1.0000   1.0000   1.0000   1.0000   1.0000   1.0000   1.0000
     1.0000   1.0000   1.0000   1.0000   1.0000   1.0000   1.0000   1.0000
     1.0000   1.0000   1.0000   1.0000   1.0000   1.0000   1.0000   1.0000
     1.0000   1.0000   1.0000   1.0000   1.0000   1.0000   1.0000   1.0000
     1.0000   1.0000

          k = 0.0169 0.0214-0.0265 ( 36551 PWs)   bands (ev):

   -16.3150 -16.1555 -15.3882 -15.2651 -13.9077 -13.8849 -12.3342 -12.2999
   -11.2067 -11.1727  -8.9810  -8.9479  -8.2585  -8.0893  -6.4015  -6.2171
    -5.3267  -5.3066  -5.1423  -4.7329  -4.2516  -4.1901  -3.9453  -3.8275
    -3.2454  -3.2108  -2.8366  -2.5960  -2.3381  -2.2640  -2.2237  -2.1722
    -1.1890  -1.1212  -1.0662  -0.9640  -0.9229  -0.7490  -0.0511   0.0900
     0.6724   0.7871

     occupation numbers 
     1.0000   1.0000   1.0000   1.0000   1.0000   1.0000   1.0000   1.0000
     1.0000   1.0000   1.0000   1.0000   1.0000   1.0000   1.0000   1.0000
     1.0000   1.0000   1.0000   1.0000   1.0000   1.0000   1.0000   1.0000
     1.0000   1.0000   1.0000   1.0000   1.0000   1.0000   1.0000   1.0000
     1.0000   1.0000   1.0000   1.0000   1.0000   1.0000   1.0000   1.0000
     1.0000   1.0000

          k = 0.0169 0.0643 0.0407 ( 36518 PWs)   bands (ev):

   -16.2917 -16.1278 -15.3880 -15.2706 -13.9560 -13.9279 -12.3717 -12.3375
   -11.2025 -11.1802  -8.8654  -8.8555  -8.1130  -8.0862  -6.3658  -6.3067
    -5.2771  -5.2651  -5.1111  -4.9663  -4.3749  -4.2706  -3.9787  -3.9150
    -3.3313  -3.2563  -2.6974  -2.6063  -2.4847  -2.4006  -2.1375  -2.1072
    -1.0504  -0.9506  -0.9069  -0.8735  -0.8318  -0.7947   0.0169   0.0839
     0.7241   0.8032

     occupation numbers 
     1.0000   1.0000   1.0000   1.0000   1.0000   1.0000   1.0000   1.0000
     1.0000   1.0000   1.0000   1.0000   1.0000   1.0000   1.0000   1.0000
     1.0000   1.0000   1.0000   1.0000   1.0000   1.0000   1.0000   1.0000
     1.0000   1.0000   1.0000   1.0000   1.0000   1.0000   1.0000   1.0000
     1.0000   1.0000   1.0000   1.0000   1.0000   1.0000   1.0000   1.0000
     1.0000   1.0000

          k = 0.0169 0.0643 0.1078 ( 36558 PWs)   bands (ev):

   -16.2282 -16.0657 -15.3380 -15.2050 -13.9225 -13.8908 -12.3484 -12.3027
   -11.2113 -11.1894  -8.8886  -8.8813  -8.1426  -8.1154  -6.3391  -6.2973
    -5.2950  -5.2836  -4.9926  -4.8862  -4.3270  -4.2512  -4.0554  -3.9738
    -3.9242  -3.8507  -2.7674  -2.7033  -2.6020  -2.5737  -2.4118  -2.2347
    -1.2882  -1.1393  -1.0525  -1.0238  -0.9237  -0.8240  -0.0632  -0.0287
     0.7045   0.7685

     occupation numbers 
     1.0000   1.0000   1.0000   1.0000   1.0000   1.0000   1.0000   1.0000
     1.0000   1.0000   1.0000   1.0000   1.0000   1.0000   1.0000   1.0000
     1.0000   1.0000   1.0000   1.0000   1.0000   1.0000   1.0000   1.0000
     1.0000   1.0000   1.0000   1.0000   1.0000   1.0000   1.0000   1.0000
     1.0000   1.0000   1.0000   1.0000   1.0000   1.0000   1.0000   1.0000
     1.0000   1.0000

          k = 0.0169 0.0643-0.0936 ( 36547 PWs)   bands (ev):

   -16.2311 -16.0617 -15.3408 -15.2040 -13.9254 -13.8862 -12.3434 -12.3077
   -11.2099 -11.1898  -8.9191  -8.8555  -8.1780  -8.0828  -6.3603  -6.2788
    -5.3085  -5.2869  -5.0012  -4.8365  -4.3143  -4.2355  -4.0977  -4.0169
    -3.8833  -3.8104  -2.7640  -2.7455  -2.6963  -2.5641  -2.3180  -2.2410
    -1.2387  -1.1372  -1.0950  -1.0359  -0.9145  -0.8317  -0.0727  -0.0212
     0.7096   0.7634

     occupation numbers 
     1.0000   1.0000   1.0000   1.0000   1.0000   1.0000   1.0000   1.0000
     1.0000   1.0000   1.0000   1.0000   1.0000   1.0000   1.0000   1.0000
     1.0000   1.0000   1.0000   1.0000   1.0000   1.0000   1.0000   1.0000
     1.0000   1.0000   1.0000   1.0000   1.0000   1.0000   1.0000   1.0000
     1.0000   1.0000   1.0000   1.0000   1.0000   1.0000   1.0000   1.0000
     1.0000   1.0000

          k = 0.0169 0.0643-0.0265 ( 36489 PWs)   bands (ev):

   -16.2945 -16.1240 -15.3908 -15.2695 -13.9606 -13.9222 -12.3663 -12.3414
   -11.2032 -11.1805  -8.8853  -8.8380  -8.1480  -8.0508  -6.4140  -6.2876
    -5.2792  -5.2728  -5.0791  -4.9112  -4.3451  -4.2288  -4.0665  -3.9681
    -3.3009  -3.2881  -2.6870  -2.5472  -2.4825  -2.3902  -2.1688  -2.1287
    -1.0762  -0.9795  -0.9220  -0.8543  -0.8135  -0.7585  -0.0113   0.1138
     0.7296   0.7913

     occupation numbers 
     1.0000   1.0000   1.0000   1.0000   1.0000   1.0000   1.0000   1.0000
     1.0000   1.0000   1.0000   1.0000   1.0000   1.0000   1.0000   1.0000
     1.0000   1.0000   1.0000   1.0000   1.0000   1.0000   1.0000   1.0000
     1.0000   1.0000   1.0000   1.0000   1.0000   1.0000   1.0000   1.0000
     1.0000   1.0000   1.0000   1.0000   1.0000   1.0000   1.0000   1.0000
     1.0000   1.0000

          k =-0.0169 0.0214-0.0407 ( 36525 PWs)   bands (ev):

   -16.3145 -16.1564 -15.3864 -15.2663 -13.9128 -13.8802 -12.3333 -12.2998
   -11.1943 -11.1868  -8.9803  -8.9450  -8.2192  -8.1380  -6.3333  -6.2899
    -5.3236  -5.3026  -5.0446  -4.8390  -4.2115  -4.1782  -3.9960  -3.8670
    -3.2358  -3.2002  -2.7516  -2.6074  -2.3852  -2.2820  -2.1830  -2.1739
    -1.2361  -1.1483  -1.0235  -0.9482  -0.9077  -0.7655  -0.0500   0.0902
     0.6637   0.7937

     occupation numbers 
     1.0000   1.0000   1.0000   1.0000   1.0000   1.0000   1.0000   1.0000
     1.0000   1.0000   1.0000   1.0000   1.0000   1.0000   1.0000   1.0000
     1.0000   1.0000   1.0000   1.0000   1.0000   1.0000   1.0000   1.0000
     1.0000   1.0000   1.0000   1.0000   1.0000   1.0000   1.0000   1.0000
     1.0000   1.0000   1.0000   1.0000   1.0000   1.0000   1.0000   1.0000
     1.0000   1.0000

          k =-0.0169 0.0214-0.1078 ( 36561 PWs)   bands (ev):

   -16.2438 -16.0849 -15.3401 -15.2048 -13.9038 -13.8541 -12.3269 -12.2811
   -11.2077 -11.1622  -8.9477  -8.9074  -8.1805  -8.1112  -6.3841  -6.2963
    -5.3144  -5.2985  -5.0294  -4.9721  -4.3409  -4.2554  -4.0213  -3.9354
    -3.7768  -3.7033  -2.8894  -2.7490  -2.6205  -2.3730  -2.3476  -2.3259
    -1.3231  -1.1778  -1.1388  -1.0306  -0.8985  -0.7908  -0.2281  -0.1362
     0.6801   0.7861

     occupation numbers 
     1.0000   1.0000   1.0000   1.0000   1.0000   1.0000   1.0000   1.0000
     1.0000   1.0000   1.0000   1.0000   1.0000   1.0000   1.0000   1.0000
     1.0000   1.0000   1.0000   1.0000   1.0000   1.0000   1.0000   1.0000
     1.0000   1.0000   1.0000   1.0000   1.0000   1.0000   1.0000   1.0000
     1.0000   1.0000   1.0000   1.0000   1.0000   1.0000   1.0000   1.0000
     1.0000   1.0000

          k =-0.0169 0.0214 0.0936 ( 36547 PWs)   bands (ev):

   -16.2412 -16.0883 -15.3385 -15.2050 -13.8953 -13.8643 -12.3315 -12.2768
   -11.1942 -11.1764  -8.9373  -8.9133  -8.1727  -8.1135  -6.3747  -6.3031
    -5.3146  -5.2971  -5.1117  -4.9045  -4.3356  -4.2278  -4.0509  -3.9834
    -3.7776  -3.6918  -2.7926  -2.7419  -2.6161  -2.4468  -2.3878  -2.3102
    -1.2777  -1.2068  -1.1090  -1.0325  -0.9149  -0.7971  -0.1931  -0.1720
     0.6940   0.7766

     occupation numbers 
     1.0000   1.0000   1.0000   1.0000   1.0000   1.0000   1.0000   1.0000
     1.0000   1.0000   1.0000   1.0000   1.0000   1.0000   1.0000   1.0000
     1.0000   1.0000   1.0000   1.0000   1.0000   1.0000   1.0000   1.0000
     1.0000   1.0000   1.0000   1.0000   1.0000   1.0000   1.0000   1.0000
     1.0000   1.0000   1.0000   1.0000   1.0000   1.0000   1.0000   1.0000
     1.0000   1.0000

          k =-0.0169 0.0214 0.0265 ( 36551 PWs)   bands (ev):

   -16.3125 -16.1588 -15.3862 -15.2657 -13.9031 -13.8908 -12.3394 -12.2949
   -11.2060 -11.1746  -8.9736  -8.9504  -8.2516  -8.0915  -6.3932  -6.2254
    -5.3299  -5.3069  -5.1282  -4.7639  -4.2618  -4.1938  -3.9259  -3.8433
    -3.2629  -3.1983  -2.8012  -2.5942  -2.3575  -2.2795  -2.2130  -2.1574
    -1.2041  -1.1260  -1.0284  -0.9781  -0.9207  -0.7598  -0.0193   0.0535
     0.6768   0.7896

     occupation numbers 
     1.0000   1.0000   1.0000   1.0000   1.0000   1.0000   1.0000   1.0000
     1.0000   1.0000   1.0000   1.0000   1.0000   1.0000   1.0000   1.0000
     1.0000   1.0000   1.0000   1.0000   1.0000   1.0000   1.0000   1.0000
     1.0000   1.0000   1.0000   1.0000   1.0000   1.0000   1.0000   1.0000
     1.0000   1.0000   1.0000   1.0000   1.0000   1.0000   1.0000   1.0000
     1.0000   1.0000

          k =-0.0169 0.0643-0.0407 ( 36518 PWs)   bands (ev):

   -16.2944 -16.1241 -15.3910 -15.2692 -13.9619 -13.9208 -12.3669 -12.3420
   -11.1982 -11.1836  -8.8875  -8.8377  -8.1434  -8.0605  -6.3584  -6.3198
    -5.2782  -5.2749  -5.0698  -4.9716  -4.3492  -4.2773  -4.0223  -3.8919
    -3.3106  -3.2804  -2.6980  -2.6010  -2.4818  -2.4083  -2.1401  -2.1039
    -1.0803  -0.9374  -0.9009  -0.8636  -0.8374  -0.7892  -0.0130   0.1134
     0.7307   0.7935

     occupation numbers 
     1.0000   1.0000   1.0000   1.0000   1.0000   1.0000   1.0000   1.0000
     1.0000   1.0000   1.0000   1.0000   1.0000   1.0000   1.0000   1.0000
     1.0000   1.0000   1.0000   1.0000   1.0000   1.0000   1.0000   1.0000
     1.0000   1.0000   1.0000   1.0000   1.0000   1.0000   1.0000   1.0000
     1.0000   1.0000   1.0000   1.0000   1.0000   1.0000   1.0000   1.0000
     1.0000   1.0000

          k =-0.0169 0.0643-0.1078 ( 36558 PWs)   bands (ev):

   -16.2310 -16.0618 -15.3409 -15.2038 -13.9288 -13.8829 -12.3434 -12.3076
   -11.2145 -11.1853  -8.9191  -8.8559  -8.1742  -8.0867  -6.3448  -6.2950
    -5.3062  -5.2825  -4.9652  -4.8864  -4.3156  -4.2395  -4.0451  -3.9905
    -3.9236  -3.8615  -2.7635  -2.7184  -2.6381  -2.5299  -2.3917  -2.2638
    -1.2892  -1.1260  -1.0732  -1.0050  -0.9279  -0.8277  -0.0739  -0.0167
     0.6994   0.7694

     occupation numbers 
     1.0000   1.0000   1.0000   1.0000   1.0000   1.0000   1.0000   1.0000
     1.0000   1.0000   1.0000   1.0000   1.0000   1.0000   1.0000   1.0000
     1.0000   1.0000   1.0000   1.0000   1.0000   1.0000   1.0000   1.0000
     1.0000   1.0000   1.0000   1.0000   1.0000   1.0000   1.0000   1.0000
     1.0000   1.0000   1.0000   1.0000   1.0000   1.0000   1.0000   1.0000
     1.0000   1.0000

          k =-0.0169 0.0643 0.0936 ( 36547 PWs)   bands (ev):

   -16.2282 -16.0657 -15.3378 -15.2052 -13.9218 -13.8914 -12.3483 -12.3028
   -11.2125 -11.1885  -8.8858  -8.8829  -8.1412  -8.1174  -6.3543  -6.2851
    -5.3013  -5.2863  -4.9932  -4.8633  -4.3170  -4.2481  -4.0801  -4.0278
    -3.8913  -3.8108  -2.7895  -2.7227  -2.6707  -2.5710  -2.3169  -2.2409
    -1.2065  -1.1501  -1.0898  -1.0549  -0.9009  -0.8516  -0.0672  -0.0285
     0.7110   0.7686

     occupation numbers 
     1.0000   1.0000   1.0000   1.0000   1.0000   1.0000   1.0000   1.0000
     1.0000   1.0000   1.0000   1.0000   1.0000   1.0000   1.0000   1.0000
     1.0000   1.0000   1.0000   1.0000   1.0000   1.0000   1.0000   1.0000
     1.0000   1.0000   1.0000   1.0000   1.0000   1.0000   1.0000   1.0000
     1.0000   1.0000   1.0000   1.0000   1.0000   1.0000   1.0000   1.0000
     1.0000   1.0000

          k =-0.0169 0.0643 0.0265 ( 36489 PWs)   bands (ev):

   -16.2918 -16.1276 -15.3883 -15.2703 -13.9551 -13.9291 -12.3717 -12.3361
   -11.2016 -11.1835  -8.8647  -8.8531  -8.1268  -8.0681  -6.3981  -6.3037
    -5.2801  -5.2625  -5.0973  -4.9192  -4.3316  -4.2404  -4.0776  -3.9677
    -3.3288  -3.2598  -2.6556  -2.5413  -2.4904  -2.4189  -2.1565  -2.1301
    -1.0549  -0.9793  -0.9192  -0.8635  -0.8330  -0.7559   0.0180   0.0865
     0.7347   0.7892

     occupation numbers 
     1.0000   1.0000   1.0000   1.0000   1.0000   1.0000   1.0000   1.0000
     1.0000   1.0000   1.0000   1.0000   1.0000   1.0000   1.0000   1.0000
     1.0000   1.0000   1.0000   1.0000   1.0000   1.0000   1.0000   1.0000
     1.0000   1.0000   1.0000   1.0000   1.0000   1.0000   1.0000   1.0000
     1.0000   1.0000   1.0000   1.0000   1.0000   1.0000   1.0000   1.0000
     1.0000   1.0000

     highest occupied level (ev):     0.8032

!    total energy              =    -548.04046975 Ry
     Harris-Foulkes estimate   =    -548.04046978 Ry
     estimated scf accuracy    <       0.00000004 Ry

     total all-electron energy =     -4615.883958 Ry

     The total energy is the sum of the following terms:

     one-electron contribution =    -151.54581501 Ry
     hartree contribution      =     107.13585020 Ry
     xc contribution           =    -104.24451832 Ry
     ewald contribution        =    -143.60212188 Ry
     one-center paw contrib.   =    -255.78386474 Ry
      -> PAW hartree energy AE =      19.71496302 Ry
      -> PAW hartree energy PS =     -19.60955388 Ry
      -> PAW xc energy AE      =     -55.75829761 Ry
      -> PAW xc energy PS      =      10.20872047 Ry
      -> total E_H with PAW    =     107.24125933 Ry
      -> total E_XC with PAW   =    -149.79409547 Ry

     convergence has been achieved in  11 iterations
 writing file ./scratch/scf-212.save/charge-density
 writing file ./scratch/scf-212.save/charge-density
 writing file ./scratch/scf-212.save/charge-density
 writing file ./scratch/scf-212.save/charge-density
 writing file ./scratch/scf-212.save/charge-density
 writing file ./scratch/scf-212.save/charge-density
 writing file ./scratch/scf-212.save/charge-density
 writing file ./scratch/scf-212.save/charge-density
 writing file ./scratch/scf-212.save/charge-density
 writing file ./scratch/scf-212.save/charge-density
 writing file ./scratch/scf-212.save/charge-density
 writing file ./scratch/scf-212.save/charge-density
 writing file ./scratch/scf-212.save/charge-density
 writing file ./scratch/scf-212.save/charge-density
 writing file ./scratch/scf-212.save/charge-density
 writing file ./scratch/scf-212.save/charge-density
 writing file ./scratch/scf-212.save/charge-density
 writing file ./scratch/scf-212.save/charge-density
 writing file ./scratch/scf-212.save/charge-density
 writing file ./scratch/scf-212.save/charge-density
 writing file ./scratch/scf-212.save/charge-density
 writing file ./scratch/scf-212.save/charge-density
 writing file ./scratch/scf-212.save/charge-density
 writing file ./scratch/scf-212.save/charge-density
 writing file ./scratch/scf-212.save/charge-density
 writing file ./scratch/scf-212.save/charge-density
 writing file ./scratch/scf-212.save/charge-density
 writing file ./scratch/scf-212.save/charge-density
 writing file ./scratch/scf-212.save/charge-density
 writing file ./scratch/scf-212.save/charge-density
 writing file ./scratch/scf-212.save/charge-density
 writing file ./scratch/scf-212.save/charge-density

     Forces acting on atoms (cartesian axes, Ry/au):

     atom    1 type  2   force =     0.05616608   -0.06315858   -0.00783017
     atom    2 type  1   force =    -0.03865600    0.04875332    0.00461816
     atom    3 type  1   force =     0.00897496    0.02741055   -0.01565057
     atom    4 type  3   force =    -0.00291385    0.00199951    0.00500551
     atom    5 type  1   force =    -0.02136357   -0.01840845    0.01515175
     atom    6 type  3   force =    -0.00078022    0.00258388   -0.00491483
     atom    7 type  3   force =     0.00139766    0.00027923    0.00133558
     atom    8 type  1   force =     0.01124205   -0.00758202   -0.01634240
     atom    9 type  3   force =     0.00210205    0.00036197   -0.00362930
     atom   10 type  1   force =    -0.00893173    0.00935520    0.01438921
     atom   11 type  1   force =    -0.01221770   -0.00979431   -0.02418153
     atom   12 type  2   force =     0.01764636    0.01160851    0.01155471
     atom   13 type  3   force =     0.00438377    0.00258184   -0.00545387
     atom   14 type  1   force =    -0.01175808    0.00066723    0.02203650
     atom   15 type  3   force =    -0.00437908   -0.00552144    0.00461073
     atom   16 type  1   force =     0.00380562    0.04002064   -0.00493519
     atom   17 type  1   force =    -0.03518634   -0.01473362   -0.00148921
     atom   18 type  2   force =     0.04675481   -0.02408169   -0.00856833
     atom   19 type  3   force =    -0.00016344   -0.00250897   -0.00360349
     atom   20 type  1   force =    -0.01553300    0.00619907    0.01998482
     atom   21 type  3   force =    -0.00309394   -0.00038496    0.00264253
     atom   22 type  1   force =    -0.00499792   -0.02425291   -0.01632964
     atom   23 type  1   force =    -0.01960166   -0.02638109    0.02568291
     atom   24 type  2   force =     0.02710318    0.04498709   -0.01408388
     The non-local contrib.  to forces
     atom    1 type  2   force =    -0.33089345    0.19554189   -0.00958712
     atom    2 type  1   force =     0.36616009   -0.25922132    0.00254930
     atom    3 type  1   force =    -0.03459058    0.00613139   -0.05925424
     atom    4 type  3   force =    -0.06656257   -0.01298039   -0.03988438
     atom    5 type  1   force =    -0.06588470   -0.04519565   -0.03337468
     atom    6 type  3   force =    -0.00655924   -0.06343209   -0.04589210
     atom    7 type  3   force =     0.01020733   -0.06652408    0.04113483
     atom    8 type  1   force =     0.06656413   -0.06310001    0.01840349
     atom    9 type  3   force =     0.06848257   -0.01517415    0.03474891
     atom   10 type  1   force =     0.01993618   -0.01385452    0.05695955
     atom   11 type  1   force =    -0.37200141   -0.35054075   -0.05243383
     atom   12 type  2   force =     0.30354668    0.25451947    0.02681989
     atom   13 type  3   force =     0.00868470    0.06700490    0.04061988
     atom   14 type  1   force =     0.01914298    0.03528174    0.08701310
     atom   15 type  3   force =     0.06442627    0.01183234    0.04416471
     atom   16 type  1   force =     0.05557362    0.09972400    0.02285664
     atom   17 type  1   force =    -0.42221774    0.28436261    0.01884771
     atom   18 type  2   force =     0.32618590   -0.22652745   -0.03473201
     atom   19 type  3   force =    -0.00902601    0.06524980   -0.04299220
     atom   20 type  1   force =    -0.07898702    0.04701619   -0.01065513
     atom   21 type  3   force =    -0.06849822    0.01477593   -0.03651031
     atom   22 type  1   force =    -0.05194003   -0.00553835   -0.06459112
     atom   23 type  1   force =     0.36345611    0.30638312    0.03388112
     atom   24 type  2   force =    -0.33078495   -0.20694810   -0.01068500
     The ionic contribution  to forces
     atom    1 type  2   force =     7.34919772   -4.83256505    0.94342930
     atom    2 type  1   force =     1.99368013   -1.77389953    0.49751699
     atom    3 type  1   force =     4.30381409    1.60577443    3.29441339
     atom    4 type  3   force =     2.16550252    0.66294319    1.33121094
     atom    5 type  1   force =     1.91377644    4.34134735    2.30689388
     atom    6 type  3   force =     0.53958303    1.83859358    1.44525293
     atom    7 type  3   force =    -0.56335758    1.84543722   -1.36383249
     atom    8 type  1   force =    -2.01797748    4.02340295   -2.41925687
     atom    9 type  3   force =    -2.29033998    0.54832914   -1.21505389
     atom   10 type  1   force =    -4.90219303    1.37128534   -2.94910998
     atom   11 type  1   force =    -2.92157703   -1.79129182   -0.15707138
     atom   12 type  2   force =    -6.24497780   -3.51499278   -0.92287446
     atom   13 type  3   force =    -0.28727053   -1.89978835   -1.21397516
     atom   14 type  1   force =    -0.68743130   -3.78923579   -2.65942084
     atom   15 type  3   force =    -1.97093661   -0.47034857   -1.26413010
     atom   16 type  1   force =    -4.03200981   -1.48498236   -2.10068854
     atom   17 type  1   force =    -1.94371488    2.10826082   -0.50349049
     atom   18 type  2   force =    -4.44195094    3.17229126   -0.00771691
     atom   19 type  3   force =     0.34310578   -1.85061134    1.30024385
     atom   20 type  1   force =     0.95640861   -4.14324194    1.97007182
     atom   21 type  3   force =     1.99686376   -0.62806647    1.12920829
     atom   22 type  1   force =     3.63151582   -1.56741644    2.61601540
     atom   23 type  1   force =     1.34902365    1.72564935   -0.28923215
     atom   24 type  2   force =     5.76126546    4.50312580    0.23159647
     The local contribution  to forces
     atom    1 type  2   force =    -6.97297732    4.57937902   -0.94215161
     atom    2 type  1   force =    -2.39023121    2.07526565   -0.49543268
     atom    3 type  1   force =    -4.25968567   -1.58396776   -3.24996061
     atom    4 type  3   force =    -2.10187782   -0.64795537   -1.28633105
     atom    5 type  1   force =    -1.86963900   -4.31291138   -2.25825696
     atom    6 type  3   force =    -0.53380106   -1.77260735   -1.40429031
     atom    7 type  3   force =     0.55455177   -1.77862249    1.32403239
     atom    8 type  1   force =     1.96320319   -3.96675564    2.38403825
     atom    9 type  3   force =     2.22394220   -0.53279213    1.17666800
     atom   10 type  1   force =     4.87203556   -1.34782335    2.90605059
     atom   11 type  1   force =     3.27151772    2.12286639    0.18489280
     atom   12 type  2   force =     5.97205858    3.28302635    0.90898163
     atom   13 type  3   force =     0.28297577    1.83534086    1.16789700
     atom   14 type  1   force =     0.65687442    3.75352589    2.59409319
     atom   15 type  3   force =     1.90210587    0.45299944    1.22456214
     atom   16 type  1   force =     3.97939505    1.42660132    2.07293144
     atom   17 type  1   force =     2.31971428   -2.39931405    0.48316105
     atom   18 type  2   force =     4.17772470   -2.98023410    0.03219546
     atom   19 type  3   force =    -0.33423299    1.78286731   -1.26085868
     atom   20 type  1   force =    -0.89359008    4.10101122   -1.93884134
     atom   21 type  3   force =    -1.93147645    0.61290407   -1.09006229
     atom   22 type  1   force =    -3.58387839    1.54815026   -2.56722773
     atom   23 type  1   force =    -1.72329128   -2.05078534    0.28103720
     atom   24 type  2   force =    -5.41550734   -4.25792418   -0.23576380
     The core correction contribution to forces
     atom    1 type  2   force =     0.01086258   -0.00551684    0.00052160
     atom    2 type  1   force =    -0.00820858    0.00669100    0.00005232
     atom    3 type  1   force =    -0.00057843   -0.00039796   -0.00080560
     atom    4 type  3   force =     0.00000000    0.00000000    0.00000000
     atom    5 type  1   force =     0.00043816   -0.00164752   -0.00009580
     atom    6 type  3   force =     0.00000000    0.00000000    0.00000000
     atom    7 type  3   force =     0.00000000    0.00000000    0.00000000
     atom    8 type  1   force =    -0.00051492   -0.00108348    0.00047262
     atom    9 type  3   force =     0.00000000    0.00000000    0.00000000
     atom   10 type  1   force =     0.00125579   -0.00025219    0.00047438
     atom   11 type  1   force =     0.00988122    0.00912218    0.00046058
     atom   12 type  2   force =    -0.01306108   -0.01094297   -0.00142399
     atom   13 type  3   force =     0.00000000    0.00000000    0.00000000
     atom   14 type  1   force =    -0.00028306    0.00104059    0.00034299
     atom   15 type  3   force =     0.00000000    0.00000000    0.00000000
     atom   16 type  1   force =     0.00083087   -0.00123859   -0.00001365
     atom   17 type  1   force =     0.01112109   -0.00791064    0.00007611
     atom   18 type  2   force =    -0.01514473    0.01036130    0.00167030
     atom   19 type  3   force =     0.00000000    0.00000000    0.00000000
     atom   20 type  1   force =     0.00073512    0.00140541   -0.00055283
     atom   21 type  3   force =     0.00000000    0.00000000    0.00000000
     atom   22 type  1   force =    -0.00066922    0.00049382   -0.00049348
     atom   23 type  1   force =    -0.00873875   -0.00766886    0.00004483
     atom   24 type  2   force =     0.01211254    0.00675310    0.00077757
     The Hubbard contrib.    to forces
     atom    1 type  2   force =     0.00000000    0.00000000    0.00000000
     atom    2 type  1   force =     0.00000000    0.00000000    0.00000000
     atom    3 type  1   force =     0.00000000    0.00000000    0.00000000
     atom    4 type  3   force =     0.00000000    0.00000000    0.00000000
     atom    5 type  1   force =     0.00000000    0.00000000    0.00000000
     atom    6 type  3   force =     0.00000000    0.00000000    0.00000000
     atom    7 type  3   force =     0.00000000    0.00000000    0.00000000
     atom    8 type  1   force =     0.00000000    0.00000000    0.00000000
     atom    9 type  3   force =     0.00000000    0.00000000    0.00000000
     atom   10 type  1   force =     0.00000000    0.00000000    0.00000000
     atom   11 type  1   force =     0.00000000    0.00000000    0.00000000
     atom   12 type  2   force =     0.00000000    0.00000000    0.00000000
     atom   13 type  3   force =     0.00000000    0.00000000    0.00000000
     atom   14 type  1   force =     0.00000000    0.00000000    0.00000000
     atom   15 type  3   force =     0.00000000    0.00000000    0.00000000
     atom   16 type  1   force =     0.00000000    0.00000000    0.00000000
     atom   17 type  1   force =     0.00000000    0.00000000    0.00000000
     atom   18 type  2   force =     0.00000000    0.00000000    0.00000000
     atom   19 type  3   force =     0.00000000    0.00000000    0.00000000
     atom   20 type  1   force =     0.00000000    0.00000000    0.00000000
     atom   21 type  3   force =     0.00000000    0.00000000    0.00000000
     atom   22 type  1   force =     0.00000000    0.00000000    0.00000000
     atom   23 type  1   force =     0.00000000    0.00000000    0.00000000
     atom   24 type  2   force =     0.00000000    0.00000000    0.00000000
     The SCF correction term to forces
     atom    1 type  2   force =    -0.00002300    0.00000324   -0.00004219
     atom    2 type  1   force =    -0.00005598   -0.00008162   -0.00006759
     atom    3 type  1   force =     0.00001600   -0.00012871   -0.00004334
     atom    4 type  3   force =     0.00002446   -0.00000706    0.00001016
     atom    5 type  1   force =    -0.00005402   -0.00000039   -0.00001453
     atom    6 type  3   force =    -0.00000250    0.00003059    0.00001481
     atom    7 type  3   force =    -0.00000342   -0.00001058    0.00000101
     atom    8 type  1   force =    -0.00003243   -0.00004498    0.00000029
     atom    9 type  3   force =     0.00001771   -0.00000004    0.00000784
     atom   10 type  1   force =     0.00003423    0.00000077    0.00001483
     atom   11 type  1   force =    -0.00003775    0.00005054   -0.00002955
     atom   12 type  2   force =     0.00008043   -0.00000071    0.00005180
     atom   13 type  3   force =    -0.00000571    0.00002528    0.00000459
     atom   14 type  1   force =    -0.00006068    0.00005565    0.00000822
     atom   15 type  3   force =     0.00002583   -0.00000380    0.00001414
     atom   16 type  1   force =     0.00001635   -0.00008288   -0.00002091
     atom   17 type  1   force =    -0.00008864   -0.00013152   -0.00008342
     atom   18 type  2   force =    -0.00005966    0.00002816    0.00001500
     atom   19 type  3   force =    -0.00000976   -0.00001389    0.00000371
     atom   20 type  1   force =    -0.00009916    0.00000905   -0.00003753
     atom   21 type  3   force =     0.00001743    0.00000236    0.00000701
     atom   22 type  1   force =    -0.00002565    0.00005865   -0.00003255
     atom   23 type  1   force =    -0.00005094    0.00004150   -0.00004792
     atom   24 type  2   force =     0.00001792   -0.00001868   -0.00000895

     Total force =     0.168832     Total SCF correction =     0.000370

     Writing output data file scf-212.save
 writing file ./scratch/scf-212.save/charge-density
 writing file ./scratch/scf-212.save/charge-density
 writing file ./scratch/scf-212.save/charge-density
 writing file ./scratch/scf-212.save/charge-density
 writing file ./scratch/scf-212.save/charge-density
 writing file ./scratch/scf-212.save/charge-density
 writing file ./scratch/scf-212.save/charge-density
 writing file ./scratch/scf-212.save/charge-density
 writing file ./scratch/scf-212.save/charge-density
 writing file ./scratch/scf-212.save/charge-density
 writing file ./scratch/scf-212.save/charge-density
 writing file ./scratch/scf-212.save/charge-density
 writing file ./scratch/scf-212.save/charge-density
 writing file ./scratch/scf-212.save/charge-density
 writing file ./scratch/scf-212.save/charge-density
 writing file ./scratch/scf-212.save/charge-density
 writing file ./scratch/scf-212.save/charge-density
 writing file ./scratch/scf-212.save/charge-density
 writing file ./scratch/scf-212.save/charge-density
 writing file ./scratch/scf-212.save/charge-density
 writing file ./scratch/scf-212.save/charge-density
 writing file ./scratch/scf-212.save/charge-density
 writing file ./scratch/scf-212.save/charge-density
 writing file ./scratch/scf-212.save/charge-density
 writing file ./scratch/scf-212.save/charge-density
 writing file ./scratch/scf-212.save/charge-density
 writing file ./scratch/scf-212.save/charge-density
 writing file ./scratch/scf-212.save/charge-density
 writing file ./scratch/scf-212.save/charge-density
 writing file ./scratch/scf-212.save/charge-density
 writing file ./scratch/scf-212.save/charge-density
 writing file ./scratch/scf-212.save/charge-density
 
     init_run     :      4.41s CPU      4.65s WALL (       1 calls)
     electrons    :     50.76s CPU     53.53s WALL (       1 calls)
     forces       :      2.32s CPU      2.46s WALL (       1 calls)

     Called by init_run:
     wfcinit      :      1.64s CPU      1.67s WALL (       1 calls)
     wfcinit:atom :      0.01s CPU      0.02s WALL (      16 calls)
     wfcinit:wfcr :      1.52s CPU      1.55s WALL (      16 calls)
     potinit      :      0.88s CPU      0.91s WALL (       1 calls)

     Called by electrons:
     c_bands      :     39.54s CPU     39.86s WALL (      11 calls)
     sum_band     :      7.08s CPU      8.21s WALL (      11 calls)
     v_of_rho     :      0.90s CPU      0.97s WALL (      12 calls)
     v_h          :      0.04s CPU      0.06s WALL (      12 calls)
     v_xc         :      0.93s CPU      0.98s WALL (      13 calls)
     newd         :      1.57s CPU      2.85s WALL (      12 calls)
     PAW_pot      :      1.64s CPU      1.69s WALL (      12 calls)
     mix_rho      :      0.15s CPU      0.14s WALL (      11 calls)

     Called by c_bands:
     init_us_2    :      0.87s CPU      0.86s WALL (     384 calls)
     cegterg      :     37.28s CPU     37.50s WALL (     176 calls)

     Called by sum_band:
     sum_band:bec :      0.02s CPU      0.02s WALL (     176 calls)
     addusdens    :      1.59s CPU      2.67s WALL (      11 calls)

     Called by *egterg:
     h_psi        :     28.09s CPU     28.26s WALL (     863 calls)
     s_psi        :      1.92s CPU      1.95s WALL (     863 calls)
     g_psi        :      0.15s CPU      0.16s WALL (     671 calls)
     cdiaghg      :      3.36s CPU      3.40s WALL (     847 calls)
     cegterg:over :      1.66s CPU      1.65s WALL (     671 calls)
     cegterg:upda :      1.24s CPU      1.25s WALL (     671 calls)
     cegterg:last :      0.43s CPU      0.43s WALL (     192 calls)

     Called by h_psi:
     h_psi:pot    :     27.82s CPU     28.00s WALL (     863 calls)
     h_psi:calbec :      2.24s CPU      2.24s WALL (     863 calls)
     vloc_psi     :     23.71s CPU     23.84s WALL (     863 calls)
     add_vuspsi   :      1.86s CPU      1.91s WALL (     863 calls)

     General routines
     calbec       :      2.98s CPU      2.98s WALL (    1103 calls)
     fft          :      0.76s CPU      0.78s WALL (     199 calls)
     ffts         :      0.03s CPU      0.03s WALL (      23 calls)
     fftw         :     23.11s CPU     23.26s WALL (   55604 calls)
     interpolate  :      0.14s CPU      0.15s WALL (      23 calls)
     davcio       :      0.00s CPU      0.01s WALL (      16 calls)
 
     Parallel routines
     fft_scatter  :      9.36s CPU      9.47s WALL (   55826 calls)

     PAW routines
     PAW_pot      :      1.64s CPU      1.69s WALL (      12 calls)
 
     PWSCF        :  0m58.18s CPU     1m 1.83s WALL

 
   This run was terminated on:  11:30:23  20May2017            

=------------------------------------------------------------------------------=
   JOB DONE.
=------------------------------------------------------------------------------=
