
     Program PWSCF v.6.1 starts on 20May2017 at 16: 2:35 

     This program is part of the open-source Quantum ESPRESSO suite
     for quantum simulation of materials; please cite
         "P. Giannozzi et al., J. Phys.:Condens. Matter 21 395502 (2009);
          URL http://www.quantum-espresso.org", 
     in publications or presentations arising from this work. More details at
     http://www.quantum-espresso.org/quote

     Parallel version (MPI & OpenMP), running on      32 processor cores
     Number of MPI processes:                32
     Threads/MPI process:                     1
     R & G space division:  proc/nbgrp/npool/nimage =      32
     Waiting for input...
     Reading input from standard input
Warning: card &IONS ignored
Warning: card     ION_TEMPERATURE   = 'INITIAL' ignored
Warning: card     TEMPW             = 586.D0 ignored
Warning: card     TOLP              = 100.D0 ignored
Warning: card     DELTA_T           = 1.D0 ignored
Warning: card     NRAISE            = 1 ignored
Warning: card / ignored
Warning: card &CELL ignored
Warning: card     CELL_DYNAMICS     = 'BFGS' ignored
Warning: card / ignored

     Current dimensions of program PWSCF are:
     Max number of different atomic species (ntypx) = 10
     Max number of k-points (npk) =  40000
     Max angular momentum in pseudopotentials (lmaxx) =  3
               file C.pbe-n-kjpaw_psl.1.0.0.UPF: wavefunction(s)  2S 2P renormalized
               file Cl.pbe-n-kjpaw_psl.1.0.0.UPF: wavefunction(s)  3S 3P renormalized
               file H.pbe-kjpaw_psl.1.0.0.UPF: wavefunction(s)  1S renormalized

     Subspace diagonalization in iterative solution of the eigenvalue problem:
     a serial algorithm will be used

 
     Parallelization info
     --------------------
     sticks:   dense  smooth     PW     G-vecs:    dense   smooth      PW
     Min         764     305     83                36108     9133    1292
     Max         765     306     84                36110     9135    1293
     Sum       24467    9791   2657              1155489   292295   41363
 


     bravais-lattice index     =            0
     lattice parameter (alat)  =       1.8897  a.u.
     unit-cell volume          =    2163.5316 (a.u.)^3
     number of atoms/cell      =           24
     number of atomic types    =            3
     number of electrons       =        84.00
     number of Kohn-Sham states=           42
     kinetic-energy cutoff     =     100.0000  Ry
     charge density cutoff     =    1000.0000  Ry
     convergence threshold     =      1.0E-07
     mixing beta               =       0.7000
     number of iterations used =            8  plain     mixing
     Exchange-correlation      =  SLA  PW   PBX  PBC ( 1  4  3  4 0 0)

     celldm(1)=   1.889726  celldm(2)=   0.000000  celldm(3)=   0.000000
     celldm(4)=   0.000000  celldm(5)=   0.000000  celldm(6)=   0.000000

     crystal axes: (cart. coord. in units of alat)
               a(1) = (  14.762000   0.000000   0.000000 )  
               a(2) = (   0.000000   5.832000   0.000000 )  
               a(3) = (  -1.563876   0.000000   3.723951 )  

     reciprocal axes: (cart. coord. in units 2 pi/alat)
               b(1) = (  0.067741  0.000000  0.028448 )  
               b(2) = (  0.000000  0.171468  0.000000 )  
               b(3) = (  0.000000  0.000000  0.268532 )  


     PseudoPot. # 1 for  C read from file:
     /global/cscratch1/sd/almno10/.data/PSEUDOPOTENTIALS/C.pbe-n-kjpaw_psl.1.0.0.UPF
     MD5 check sum: 2ba8448e293caca687844dde9a1b88a8
     Pseudo is Projector augmented-wave + core cor, Zval =  4.0
     Generated using "atomic" code by A. Dal Corso  v.5.3.0 svn rev. 11974
     Shape of augmentation charge: PSQ
     Using radial grid of 1073 points,  4 beta functions with: 
                l(1) =   0
                l(2) =   0
                l(3) =   1
                l(4) =   1
     Q(r) pseudized with 0 coefficients 


     PseudoPot. # 2 for Cl read from file:
     /global/cscratch1/sd/almno10/.data/PSEUDOPOTENTIALS/Cl.pbe-n-kjpaw_psl.1.0.0.UPF
     MD5 check sum: dca63699d6b897c5771335df08a09219
     Pseudo is Projector augmented-wave + core cor, Zval =  7.0
     Generated using "atomic" code by A. Dal Corso  v.5.3.0 svn rev. 11974
     Shape of augmentation charge: PSQ
     Using radial grid of 1157 points,  6 beta functions with: 
                l(1) =   0
                l(2) =   0
                l(3) =   1
                l(4) =   1
                l(5) =   2
                l(6) =   2
     Q(r) pseudized with 0 coefficients 


     PseudoPot. # 3 for  H read from file:
     /global/cscratch1/sd/almno10/.data/PSEUDOPOTENTIALS/H.pbe-kjpaw_psl.1.0.0.UPF
     MD5 check sum: bc0feb48a24907a0b97fa6ee2d589a29
     Pseudo is Projector augmented-wave, Zval =  1.0
     Generated using "atomic" code by A. Dal Corso  v.5.3.0 svn rev. 11974
     Shape of augmentation charge: PSQ
     Using radial grid of  929 points,  2 beta functions with: 
                l(1) =   0
                l(2) =   0
     Q(r) pseudized with 0 coefficients 


     atomic species   valence    mass     pseudopotential
        C              4.00    12.01100      C( 1.00)
        Cl             7.00    35.45270     Cl( 1.00)
        H              1.00     1.00790      H( 1.00)

     No symmetry found


                                    s                        frac. trans.

      isym =  1     identity                                     

 cryst.   s( 1) = (     1          0          0      )
                  (     0          1          0      )
                  (     0          0          1      )

 cart.    s( 1) = (  1.0000000  0.0000000 -0.0000000 )
                  (  0.0000000  1.0000000  0.0000000 )
                  (  0.0000000  0.0000000  1.0000000 )


   Cartesian axes

     site n.     atom                  positions (alat units)
         1           Cl  tau(   1) = (  16.6581696   0.9362672   1.8494116  )
         2           C   tau(   2) = (  15.2770835   1.9504161   1.8702200  )
         3           C   tau(   3) = (  15.2838496   3.1240403   2.6238323  )
         4           H   tau(   4) = (  16.1972179   3.3336959   3.1777830  )
         5           C   tau(   5) = (  14.2629946   4.0718620   2.5786638  )
         6           H   tau(   6) = (  14.3254023   4.9657314   3.1969576  )
         7           H   tau(   7) = (   6.3390730   2.3073287   0.6559422  )
         8           C   tau(   8) = (   6.3492715   1.3685988   1.2046434  )
         9           H   tau(   9) = (   4.3447485   0.8303667   0.6178324  )
        10           C   tau(  10) = (   5.2394248   0.5241429   1.1576297  )
        11           C   tau(  11) = (   5.2581550  -0.6826305   1.8563578  )
        12           Cl  tau(  12) = (   3.8735101  -1.7760698   1.7589733  )
        13           H   tau(  13) = (  14.0905001   0.6492778   0.5567998  )
        14           C   tau(  14) = (  14.1575754   1.5722165   1.1298531  )
        15           H   tau(  15) = (  12.1910601   2.2455205   0.5589206  )
        16           C   tau(  16) = (  13.0937549   2.4748103   1.1203445  )
        17           C   tau(  17) = (  13.1348562   3.7014599   1.8483305  )
        18           Cl  tau(  18) = (  11.7007632   4.6658922   1.8173396  )
        19           H   tau(  19) = (   6.4242007  -2.0630900   3.0597168  )
        20           C   tau(  20) = (   6.4057972  -1.1168633   2.5213586  )
        21           H   tau(  21) = (   8.4106677  -0.5780207   3.0948191  )
        22           C   tau(  22) = (   7.5065735  -0.2646442   2.5783451  )
        23           C   tau(  23) = (   7.4833259   0.9496215   1.8968974  )
        24           Cl  tau(  24) = (   8.9331065   1.9451724   2.0070361  )

   Crystallographic axes

     site n.     atom                  positions (cryst. coord.)
         1           Cl  tau(   1) = (  1.1810616  0.1605396  0.4966261  )
         2           C   tau(   2) = (  1.0880967  0.3344335  0.5022139  )
         3           C   tau(   3) = (  1.1099939  0.5356722  0.7045828  )
         4           H   tau(   4) = (  1.1876256  0.5716214  0.8533363  )
         5           C   tau(   5) = (  1.0395547  0.6981931  0.6924537  )
         6           H   tau(   6) = (  1.0613715  0.8514629  0.8584853  )
         7           H   tau(   7) = (  0.4480786  0.3956325  0.1761415  )
         8           C   tau(   8) = (  0.4643790  0.2346706  0.3234853  )
         9           H   tau(   9) = (  0.3118959  0.1423811  0.1659077  )
        10           C   tau(  10) = (  0.3878588  0.0898736  0.3108606  )
        11           C   tau(  11) = (  0.4090051 -0.1170491  0.4984914  )
        12           Cl  tau(  12) = (  0.3124368 -0.3045387  0.4723406  )
        13           H   tau(  13) = (  0.9703515  0.1113302  0.1495185  )
        14           C   tau(  14) = (  0.9911975  0.2695844  0.3034017  )
        15           H   tau(  15) = (  0.8417409  0.3850344  0.1500881  )
        16           C   tau(  16) = (  0.9188622  0.4243502  0.3008483  )
        17           C   tau(  17) = (  0.9423563  0.6346811  0.4963358  )
        18           Cl  tau(  18) = (  0.8443271  0.8000501  0.4880138  )
        19           H   tau(  19) = (  0.5222281 -0.3537534  0.8216318  )
        20           C   tau(  20) = (  0.5056661 -0.1915061  0.6770654  )
        21           H   tau(  21) = (  0.6577929 -0.0991119  0.8310579  )
        22           C   tau(  22) = (  0.5818555 -0.0453780  0.6923681  )
        23           C   tau(  23) = (  0.5608948  0.1628295  0.5093776  )
        24           Cl  tau(  24) = (  0.6622384  0.3335344  0.5389534  )

     number of k points=    16
                       cart. coord. in units 2pi/alat
        k(    1) = (   0.0169354   0.0214335   0.0406785), wk =   0.1250000
        k(    2) = (   0.0169354   0.0214335   0.1078115), wk =   0.1250000
        k(    3) = (   0.0169354   0.0214335  -0.0935875), wk =   0.1250000
        k(    4) = (   0.0169354   0.0214335  -0.0264545), wk =   0.1250000
        k(    5) = (   0.0169354   0.0643004   0.0406785), wk =   0.1250000
        k(    6) = (   0.0169354   0.0643004   0.1078115), wk =   0.1250000
        k(    7) = (   0.0169354   0.0643004  -0.0935875), wk =   0.1250000
        k(    8) = (   0.0169354   0.0643004  -0.0264545), wk =   0.1250000
        k(    9) = (  -0.0169354   0.0214335  -0.0406785), wk =   0.1250000
        k(   10) = (  -0.0169354   0.0214335  -0.1078115), wk =   0.1250000
        k(   11) = (  -0.0169354   0.0214335   0.0935875), wk =   0.1250000
        k(   12) = (  -0.0169354   0.0214335   0.0264545), wk =   0.1250000
        k(   13) = (  -0.0169354   0.0643004  -0.0406785), wk =   0.1250000
        k(   14) = (  -0.0169354   0.0643004  -0.1078115), wk =   0.1250000
        k(   15) = (  -0.0169354   0.0643004   0.0935875), wk =   0.1250000
        k(   16) = (  -0.0169354   0.0643004   0.0264545), wk =   0.1250000

                       cryst. coord.
        k(    1) = (   0.2500000   0.1250000   0.1250000), wk =   0.1250000
        k(    2) = (   0.2500000   0.1250000   0.3750000), wk =   0.1250000
        k(    3) = (   0.2500000   0.1250000  -0.3750000), wk =   0.1250000
        k(    4) = (   0.2500000   0.1250000  -0.1250000), wk =   0.1250000
        k(    5) = (   0.2500000   0.3750000   0.1250000), wk =   0.1250000
        k(    6) = (   0.2500000   0.3750000   0.3750000), wk =   0.1250000
        k(    7) = (   0.2500000   0.3750000  -0.3750000), wk =   0.1250000
        k(    8) = (   0.2500000   0.3750000  -0.1250000), wk =   0.1250000
        k(    9) = (  -0.2500000   0.1250000  -0.1250000), wk =   0.1250000
        k(   10) = (  -0.2500000   0.1250000  -0.3750000), wk =   0.1250000
        k(   11) = (  -0.2500000   0.1250000   0.3750000), wk =   0.1250000
        k(   12) = (  -0.2500000   0.1250000   0.1250000), wk =   0.1250000
        k(   13) = (  -0.2500000   0.3750000  -0.1250000), wk =   0.1250000
        k(   14) = (  -0.2500000   0.3750000  -0.3750000), wk =   0.1250000
        k(   15) = (  -0.2500000   0.3750000   0.3750000), wk =   0.1250000
        k(   16) = (  -0.2500000   0.3750000   0.1250000), wk =   0.1250000

     Dense  grid:  1155489 G-vectors     FFT dimensions: ( 288, 120,  80)

     Smooth grid:   292295 G-vectors     FFT dimensions: ( 180,  72,  50)

     Estimated max dynamical RAM per process >     147.21MB

     Estimated total allocated dynamical RAM >    4710.62MB

     Initial potential from superposition of free atoms

     starting charge   83.99939, renormalised to   84.00000
     Starting wfc are   72 randomized atomic wfcs
     Checking if some PAW data can be deallocated... 
       node    0, deallocated PAW data for type:  1
       node    0, deallocated PAW data for type:  3
       node    1, deallocated PAW data for type:  1
       node    1, deallocated PAW data for type:  3
       node    2, deallocated PAW data for type:  2
       node    2, deallocated PAW data for type:  3
       node    3, deallocated PAW data for type:  2
       node    3, deallocated PAW data for type:  3
       node    4, deallocated PAW data for type:  2
       node    4, deallocated PAW data for type:  3
       node    5, deallocated PAW data for type:  2
       node    5, deallocated PAW data for type:  3
       node    6, deallocated PAW data for type:  1
       node    6, deallocated PAW data for type:  2
       node    7, deallocated PAW data for type:  1
       node    7, deallocated PAW data for type:  2
       node    8, deallocated PAW data for type:  2
       node    8, deallocated PAW data for type:  3
       node    9, deallocated PAW data for type:  2
       node    9, deallocated PAW data for type:  3
       node   10, deallocated PAW data for type:  1
       node   10, deallocated PAW data for type:  2
       node   11, deallocated PAW data for type:  1
       node   11, deallocated PAW data for type:  2
       node   12, deallocated PAW data for type:  1
       node   12, deallocated PAW data for type:  2
       node   13, deallocated PAW data for type:  1
       node   13, deallocated PAW data for type:  2
       node   14, deallocated PAW data for type:  2
       node   14, deallocated PAW data for type:  3
       node   15, deallocated PAW data for type:  2
       node   15, deallocated PAW data for type:  3
       node   16, deallocated PAW data for type:  1
       node   16, deallocated PAW data for type:  2
       node   17, deallocated PAW data for type:  2
       node   17, deallocated PAW data for type:  3
       node   18, deallocated PAW data for type:  2
       node   18, deallocated PAW data for type:  3
       node   19, deallocated PAW data for type:  1
       node   19, deallocated PAW data for type:  3
       node   20, deallocated PAW data for type:  1
       node   20, deallocated PAW data for type:  2
       node   21, deallocated PAW data for type:  2
       node   21, deallocated PAW data for type:  3
       node   22, deallocated PAW data for type:  1
       node   22, deallocated PAW data for type:  2
       node   23, deallocated PAW data for type:  2
       node   23, deallocated PAW data for type:  3
       node   24, deallocated PAW data for type:  2
       node   24, deallocated PAW data for type:  3
       node   25, deallocated PAW data for type:  1
       node   25, deallocated PAW data for type:  3
       node   26, deallocated PAW data for type:  1
       node   26, deallocated PAW data for type:  2
       node   27, deallocated PAW data for type:  2
       node   27, deallocated PAW data for type:  3
       node   28, deallocated PAW data for type:  1
       node   28, deallocated PAW data for type:  2
       node   29, deallocated PAW data for type:  2
       node   29, deallocated PAW data for type:  3
       node   30, deallocated PAW data for type:  2
       node   30, deallocated PAW data for type:  3
       node   31, deallocated PAW data for type:  1
       node   31, deallocated PAW data for type:  3

     total cpu time spent up to now is        5.2 secs

     per-process dynamical memory:    20.7 Mb

     Self-consistent Calculation

     iteration #  1     ecut=   100.00 Ry     beta= 0.70
     Davidson diagonalization with overlap
     ethr =  1.00E-04,  avg # of iterations =  5.0

     total cpu time spent up to now is       11.9 secs

     total energy              =    -547.14318219 Ry
     Harris-Foulkes estimate   =    -548.99538169 Ry
     estimated scf accuracy    <       2.71261431 Ry

     iteration #  2     ecut=   100.00 Ry     beta= 0.70
     Davidson diagonalization with overlap
     ethr =  3.23E-03,  avg # of iterations =  3.0

     total cpu time spent up to now is       16.7 secs

     total energy              =    -547.54649848 Ry
     Harris-Foulkes estimate   =    -548.60847209 Ry
     estimated scf accuracy    <       1.91450697 Ry

     iteration #  3     ecut=   100.00 Ry     beta= 0.70
     Davidson diagonalization with overlap
     ethr =  2.28E-03,  avg # of iterations =  2.9

     total cpu time spent up to now is       20.9 secs

     total energy              =    -548.02214112 Ry
     Harris-Foulkes estimate   =    -548.06207103 Ry
     estimated scf accuracy    <       0.08001476 Ry

     iteration #  4     ecut=   100.00 Ry     beta= 0.70
     Davidson diagonalization with overlap
     ethr =  9.53E-05,  avg # of iterations =  4.0

     total cpu time spent up to now is       25.7 secs

     total energy              =    -548.04812989 Ry
     Harris-Foulkes estimate   =    -548.05955292 Ry
     estimated scf accuracy    <       0.02254338 Ry

     iteration #  5     ecut=   100.00 Ry     beta= 0.70
     Davidson diagonalization with overlap
     ethr =  2.68E-05,  avg # of iterations =  3.0

     total cpu time spent up to now is       30.0 secs

     total energy              =    -548.05235309 Ry
     Harris-Foulkes estimate   =    -548.05393912 Ry
     estimated scf accuracy    <       0.00295895 Ry

     iteration #  6     ecut=   100.00 Ry     beta= 0.70
     Davidson diagonalization with overlap
     ethr =  3.52E-06,  avg # of iterations =  4.0

     total cpu time spent up to now is       34.5 secs

     total energy              =    -548.05295579 Ry
     Harris-Foulkes estimate   =    -548.05385460 Ry
     estimated scf accuracy    <       0.00239718 Ry

     iteration #  7     ecut=   100.00 Ry     beta= 0.70
     Davidson diagonalization with overlap
     ethr =  2.85E-06,  avg # of iterations =  4.0

     total cpu time spent up to now is       38.7 secs

     total energy              =    -548.05340266 Ry
     Harris-Foulkes estimate   =    -548.05342489 Ry
     estimated scf accuracy    <       0.00006105 Ry

     iteration #  8     ecut=   100.00 Ry     beta= 0.70
     Davidson diagonalization with overlap
     ethr =  7.27E-08,  avg # of iterations =  4.0

     total cpu time spent up to now is       43.4 secs

     total energy              =    -548.05342039 Ry
     Harris-Foulkes estimate   =    -548.05342632 Ry
     estimated scf accuracy    <       0.00001295 Ry

     iteration #  9     ecut=   100.00 Ry     beta= 0.70
     Davidson diagonalization with overlap
     ethr =  1.54E-08,  avg # of iterations =  4.0

     total cpu time spent up to now is       47.9 secs

     total energy              =    -548.05342322 Ry
     Harris-Foulkes estimate   =    -548.05342405 Ry
     estimated scf accuracy    <       0.00000192 Ry

     iteration # 10     ecut=   100.00 Ry     beta= 0.70
     Davidson diagonalization with overlap
     ethr =  2.29E-09,  avg # of iterations =  3.8

     total cpu time spent up to now is       52.3 secs

     End of self-consistent calculation

          k = 0.0169 0.0214 0.0407 ( 36525 PWs)   bands (ev):

   -16.1029 -16.0025 -15.4993 -15.2819 -13.9513 -13.9076 -12.3686 -12.2937
   -11.3089 -11.0938  -9.0303  -8.9009  -8.2643  -8.1056  -6.4059  -6.2636
    -5.3508  -5.3009  -5.0386  -4.8417  -4.3371  -4.1332  -3.9705  -3.7874
    -3.1937  -3.1559  -2.7382  -2.6626  -2.4277  -2.3615  -2.2290  -2.1208
    -1.2828  -1.1378  -0.9688  -0.9206  -0.8741  -0.7511  -0.0681   0.0188
     0.6154   0.8606

     occupation numbers 
     1.0000   1.0000   1.0000   1.0000   1.0000   1.0000   1.0000   1.0000
     1.0000   1.0000   1.0000   1.0000   1.0000   1.0000   1.0000   1.0000
     1.0000   1.0000   1.0000   1.0000   1.0000   1.0000   1.0000   1.0000
     1.0000   1.0000   1.0000   1.0000   1.0000   1.0000   1.0000   1.0000
     1.0000   1.0000   1.0000   1.0000   1.0000   1.0000   1.0000   1.0000
     1.0000   1.0000

          k = 0.0169 0.0214 0.1078 ( 36561 PWs)   bands (ev):

   -16.0175 -15.9348 -15.4531 -15.2413 -13.9365 -13.8724 -12.3539 -12.2870
   -11.2978 -11.0847  -8.9912  -8.8626  -8.2310  -8.0882  -6.3844  -6.2796
    -5.3458  -5.2714  -5.1026  -4.9587  -4.4294  -4.2332  -4.1136  -3.8021
    -3.7423  -3.6644  -2.9293  -2.7436  -2.6441  -2.4287  -2.3388  -2.2797
    -1.3986  -1.2099  -1.1559  -0.9855  -0.8450  -0.7412  -0.2757  -0.1491
     0.5603   0.8055

     occupation numbers 
     1.0000   1.0000   1.0000   1.0000   1.0000   1.0000   1.0000   1.0000
     1.0000   1.0000   1.0000   1.0000   1.0000   1.0000   1.0000   1.0000
     1.0000   1.0000   1.0000   1.0000   1.0000   1.0000   1.0000   1.0000
     1.0000   1.0000   1.0000   1.0000   1.0000   1.0000   1.0000   1.0000
     1.0000   1.0000   1.0000   1.0000   1.0000   1.0000   1.0000   1.0000
     1.0000   1.0000

          k = 0.0169 0.0214-0.0936 ( 36547 PWs)   bands (ev):

   -16.0239 -15.9289 -15.4528 -15.2411 -13.9263 -13.8811 -12.3609 -12.2807
   -11.2929 -11.0912  -8.9627  -8.8973  -8.2170  -8.1094  -6.3770  -6.2751
    -5.3370  -5.2814  -5.1007  -4.9124  -4.3808  -4.2762  -4.1608  -3.8802
    -3.7023  -3.6639  -2.8428  -2.7099  -2.6377  -2.4387  -2.3863  -2.3102
    -1.3471  -1.2172  -1.1573  -1.0108  -0.8741  -0.7513  -0.2343  -0.1838
     0.5609   0.8031

     occupation numbers 
     1.0000   1.0000   1.0000   1.0000   1.0000   1.0000   1.0000   1.0000
     1.0000   1.0000   1.0000   1.0000   1.0000   1.0000   1.0000   1.0000
     1.0000   1.0000   1.0000   1.0000   1.0000   1.0000   1.0000   1.0000
     1.0000   1.0000   1.0000   1.0000   1.0000   1.0000   1.0000   1.0000
     1.0000   1.0000   1.0000   1.0000   1.0000   1.0000   1.0000   1.0000
     1.0000   1.0000

          k = 0.0169 0.0214-0.0265 ( 36551 PWs)   bands (ev):

   -16.1097 -15.9951 -15.5011 -15.2809 -13.9447 -13.9119 -12.3765 -12.2878
   -11.3083 -11.0939  -9.0058  -8.9363  -8.2884  -8.0746  -6.4611  -6.1930
    -5.3534  -5.3193  -5.1132  -4.7201  -4.3004  -4.2145  -3.9858  -3.7067
    -3.1977  -3.1676  -2.8214  -2.6606  -2.4382  -2.2763  -2.2304  -2.1456
    -1.2489  -1.0887  -1.0473  -0.9321  -0.8990  -0.7420  -0.0419  -0.0073
     0.6213   0.8576

     occupation numbers 
     1.0000   1.0000   1.0000   1.0000   1.0000   1.0000   1.0000   1.0000
     1.0000   1.0000   1.0000   1.0000   1.0000   1.0000   1.0000   1.0000
     1.0000   1.0000   1.0000   1.0000   1.0000   1.0000   1.0000   1.0000
     1.0000   1.0000   1.0000   1.0000   1.0000   1.0000   1.0000   1.0000
     1.0000   1.0000   1.0000   1.0000   1.0000   1.0000   1.0000   1.0000
     1.0000   1.0000

          k = 0.0169 0.0643 0.0407 ( 36518 PWs)   bands (ev):

   -16.0664 -15.9766 -15.5090 -15.2956 -13.9812 -13.9393 -12.4175 -12.3337
   -11.3229 -11.1046  -8.9248  -8.7983  -8.1780  -8.0599  -6.3627  -6.2908
    -5.2980  -5.2515  -5.1474  -4.9734  -4.4766  -4.3107  -4.0094  -3.7834
    -3.2573  -3.2345  -2.6744  -2.6097  -2.4569  -2.3967  -2.1883  -2.0513
    -1.1146  -0.9738  -0.8954  -0.8715  -0.8389  -0.8086  -0.0179   0.0638
     0.6861   0.8783

     occupation numbers 
     1.0000   1.0000   1.0000   1.0000   1.0000   1.0000   1.0000   1.0000
     1.0000   1.0000   1.0000   1.0000   1.0000   1.0000   1.0000   1.0000
     1.0000   1.0000   1.0000   1.0000   1.0000   1.0000   1.0000   1.0000
     1.0000   1.0000   1.0000   1.0000   1.0000   1.0000   1.0000   1.0000
     1.0000   1.0000   1.0000   1.0000   1.0000   1.0000   1.0000   1.0000
     1.0000   1.0000

          k = 0.0169 0.0643 0.1078 ( 36558 PWs)   bands (ev):

   -15.9956 -15.9132 -15.4573 -15.2477 -13.9447 -13.9044 -12.3835 -12.3076
   -11.3147 -11.1050  -8.9403  -8.8281  -8.1961  -8.0931  -6.3543  -6.3034
    -5.3152  -5.2572  -5.0275  -4.8913  -4.3926  -4.2634  -4.1273  -3.9093
    -3.8522  -3.7885  -2.7578  -2.7011  -2.6588  -2.5401  -2.4079  -2.2770
    -1.3530  -1.1558  -1.0193  -0.9737  -0.9200  -0.8105  -0.1422  -0.0093
     0.5965   0.8161

     occupation numbers 
     1.0000   1.0000   1.0000   1.0000   1.0000   1.0000   1.0000   1.0000
     1.0000   1.0000   1.0000   1.0000   1.0000   1.0000   1.0000   1.0000
     1.0000   1.0000   1.0000   1.0000   1.0000   1.0000   1.0000   1.0000
     1.0000   1.0000   1.0000   1.0000   1.0000   1.0000   1.0000   1.0000
     1.0000   1.0000   1.0000   1.0000   1.0000   1.0000   1.0000   1.0000
     1.0000   1.0000

          k = 0.0169 0.0643-0.0936 ( 36547 PWs)   bands (ev):

   -16.0015 -15.9083 -15.4549 -15.2489 -13.9406 -13.9067 -12.3904 -12.3015
   -11.3122 -11.1091  -8.9123  -8.8622  -8.1848  -8.1106  -6.3714  -6.2706
    -5.3157  -5.2713  -5.0039  -4.8769  -4.3528  -4.2820  -4.1755  -3.9834
    -3.8276  -3.6998  -2.7873  -2.7426  -2.6804  -2.5887  -2.3388  -2.2123
    -1.2811  -1.1393  -1.0780  -1.0243  -0.9212  -0.8388  -0.1079  -0.0456
     0.6019   0.8186

     occupation numbers 
     1.0000   1.0000   1.0000   1.0000   1.0000   1.0000   1.0000   1.0000
     1.0000   1.0000   1.0000   1.0000   1.0000   1.0000   1.0000   1.0000
     1.0000   1.0000   1.0000   1.0000   1.0000   1.0000   1.0000   1.0000
     1.0000   1.0000   1.0000   1.0000   1.0000   1.0000   1.0000   1.0000
     1.0000   1.0000   1.0000   1.0000   1.0000   1.0000   1.0000   1.0000
     1.0000   1.0000

          k = 0.0169 0.0643-0.0265 ( 36489 PWs)   bands (ev):

   -16.0720 -15.9717 -15.5073 -15.2964 -13.9787 -13.9406 -12.4234 -12.3260
   -11.3234 -11.1095  -8.8988  -8.8269  -8.1692  -8.0686  -6.4030  -6.2804
    -5.2965  -5.2496  -5.0731  -4.9567  -4.4273  -4.2961  -4.0966  -3.8705
    -3.2684  -3.2173  -2.6496  -2.5369  -2.4487  -2.3702  -2.1977  -2.1018
    -1.0963  -1.0069  -0.9504  -0.8910  -0.8188  -0.7784   0.0118   0.0394
     0.6855   0.8745

     occupation numbers 
     1.0000   1.0000   1.0000   1.0000   1.0000   1.0000   1.0000   1.0000
     1.0000   1.0000   1.0000   1.0000   1.0000   1.0000   1.0000   1.0000
     1.0000   1.0000   1.0000   1.0000   1.0000   1.0000   1.0000   1.0000
     1.0000   1.0000   1.0000   1.0000   1.0000   1.0000   1.0000   1.0000
     1.0000   1.0000   1.0000   1.0000   1.0000   1.0000   1.0000   1.0000
     1.0000   1.0000

          k =-0.0169 0.0214-0.0407 ( 36525 PWs)   bands (ev):

   -16.1067 -15.9997 -15.4967 -15.2835 -13.9472 -13.9099 -12.3750 -12.2880
   -11.3061 -11.0984  -9.0016  -8.9356  -8.2544  -8.1213  -6.4053  -6.2535
    -5.3385  -5.3101  -5.0318  -4.8280  -4.2556  -4.1929  -4.0582  -3.7379
    -3.1992  -3.1418  -2.7533  -2.6725  -2.4526  -2.2770  -2.2183  -2.1474
    -1.2793  -1.1468  -0.9871  -0.9097  -0.8902  -0.7674  -0.0410  -0.0071
     0.6171   0.8593

     occupation numbers 
     1.0000   1.0000   1.0000   1.0000   1.0000   1.0000   1.0000   1.0000
     1.0000   1.0000   1.0000   1.0000   1.0000   1.0000   1.0000   1.0000
     1.0000   1.0000   1.0000   1.0000   1.0000   1.0000   1.0000   1.0000
     1.0000   1.0000   1.0000   1.0000   1.0000   1.0000   1.0000   1.0000
     1.0000   1.0000   1.0000   1.0000   1.0000   1.0000   1.0000   1.0000
     1.0000   1.0000

          k =-0.0169 0.0214-0.1078 ( 36561 PWs)   bands (ev):

   -16.0226 -15.9310 -15.4504 -15.2427 -13.9344 -13.8728 -12.3613 -12.2800
   -11.2964 -11.0882  -8.9638  -8.8958  -8.2186  -8.1074  -6.3904  -6.2618
    -5.3327  -5.2858  -5.0696  -4.9599  -4.4079  -4.2799  -4.0987  -3.8400
    -3.7291  -3.6605  -2.9368  -2.7276  -2.6512  -2.4137  -2.3454  -2.2549
    -1.3895  -1.2242  -1.1501  -0.9957  -0.8682  -0.7566  -0.2394  -0.1820
     0.5593   0.8067

     occupation numbers 
     1.0000   1.0000   1.0000   1.0000   1.0000   1.0000   1.0000   1.0000
     1.0000   1.0000   1.0000   1.0000   1.0000   1.0000   1.0000   1.0000
     1.0000   1.0000   1.0000   1.0000   1.0000   1.0000   1.0000   1.0000
     1.0000   1.0000   1.0000   1.0000   1.0000   1.0000   1.0000   1.0000
     1.0000   1.0000   1.0000   1.0000   1.0000   1.0000   1.0000   1.0000
     1.0000   1.0000

          k =-0.0169 0.0214 0.0936 ( 36547 PWs)   bands (ev):

   -16.0189 -15.9327 -15.4553 -15.2398 -13.9290 -13.8803 -12.3539 -12.2869
   -11.2950 -11.0874  -8.9913  -8.8621  -8.2296  -8.0906  -6.3621  -6.3044
    -5.3409  -5.2819  -5.1192  -4.9158  -4.4209  -4.2168  -4.1362  -3.8785
    -3.7197  -3.6713  -2.8252  -2.6978  -2.6604  -2.4539  -2.3790  -2.3385
    -1.3213  -1.2339  -1.1547  -1.0149  -0.8371  -0.7460  -0.2726  -0.1485
     0.5625   0.8032

     occupation numbers 
     1.0000   1.0000   1.0000   1.0000   1.0000   1.0000   1.0000   1.0000
     1.0000   1.0000   1.0000   1.0000   1.0000   1.0000   1.0000   1.0000
     1.0000   1.0000   1.0000   1.0000   1.0000   1.0000   1.0000   1.0000
     1.0000   1.0000   1.0000   1.0000   1.0000   1.0000   1.0000   1.0000
     1.0000   1.0000   1.0000   1.0000   1.0000   1.0000   1.0000   1.0000
     1.0000   1.0000

          k =-0.0169 0.0214 0.0265 ( 36551 PWs)   bands (ev):

   -16.1057 -15.9982 -15.5027 -15.2803 -13.9448 -13.9134 -12.3690 -12.2950
   -11.3087 -11.0916  -9.0307  -8.9056  -8.2921  -8.0653  -6.4562  -6.2119
    -5.3549  -5.3214  -5.0979  -4.7558  -4.3359  -4.1979  -3.9523  -3.6894
    -3.2024  -3.1708  -2.8145  -2.6707  -2.4177  -2.3268  -2.2299  -2.1429
    -1.2557  -1.0908  -1.0220  -0.9231  -0.8978  -0.7234  -0.0698   0.0175
     0.6248   0.8555

     occupation numbers 
     1.0000   1.0000   1.0000   1.0000   1.0000   1.0000   1.0000   1.0000
     1.0000   1.0000   1.0000   1.0000   1.0000   1.0000   1.0000   1.0000
     1.0000   1.0000   1.0000   1.0000   1.0000   1.0000   1.0000   1.0000
     1.0000   1.0000   1.0000   1.0000   1.0000   1.0000   1.0000   1.0000
     1.0000   1.0000   1.0000   1.0000   1.0000   1.0000   1.0000   1.0000
     1.0000   1.0000

          k =-0.0169 0.0643-0.0407 ( 36518 PWs)   bands (ev):

   -16.0711 -15.9731 -15.5058 -15.2975 -13.9772 -13.9415 -12.4236 -12.3281
   -11.3200 -11.1094  -8.8980  -8.8316  -8.1621  -8.0823  -6.3613  -6.2804
    -5.2939  -5.2571  -5.0777  -5.0177  -4.4371  -4.3547  -4.0708  -3.7355
    -3.2679  -3.2176  -2.6593  -2.6358  -2.4613  -2.3713  -2.1566  -2.0721
    -1.0939  -0.9800  -0.9261  -0.8903  -0.8476  -0.8103   0.0126   0.0352
     0.6895   0.8750

     occupation numbers 
     1.0000   1.0000   1.0000   1.0000   1.0000   1.0000   1.0000   1.0000
     1.0000   1.0000   1.0000   1.0000   1.0000   1.0000   1.0000   1.0000
     1.0000   1.0000   1.0000   1.0000   1.0000   1.0000   1.0000   1.0000
     1.0000   1.0000   1.0000   1.0000   1.0000   1.0000   1.0000   1.0000
     1.0000   1.0000   1.0000   1.0000   1.0000   1.0000   1.0000   1.0000
     1.0000   1.0000

          k =-0.0169 0.0643-0.1078 ( 36558 PWs)   bands (ev):

   -16.0012 -15.9089 -15.4543 -15.2493 -13.9423 -13.9050 -12.3907 -12.3008
   -11.3132 -11.1086  -8.9138  -8.8617  -8.1803  -8.1134  -6.3653  -6.2790
    -5.3066  -5.2719  -4.9997  -4.8948  -4.3714  -4.2699  -4.1323  -3.9537
    -3.8421  -3.7812  -2.7705  -2.7240  -2.6225  -2.5329  -2.4051  -2.2571
    -1.3413  -1.1664  -1.0283  -0.9856  -0.9229  -0.8351  -0.1066  -0.0435
     0.5959   0.8168

     occupation numbers 
     1.0000   1.0000   1.0000   1.0000   1.0000   1.0000   1.0000   1.0000
     1.0000   1.0000   1.0000   1.0000   1.0000   1.0000   1.0000   1.0000
     1.0000   1.0000   1.0000   1.0000   1.0000   1.0000   1.0000   1.0000
     1.0000   1.0000   1.0000   1.0000   1.0000   1.0000   1.0000   1.0000
     1.0000   1.0000   1.0000   1.0000   1.0000   1.0000   1.0000   1.0000
     1.0000   1.0000

          k =-0.0169 0.0643 0.0936 ( 36547 PWs)   bands (ev):

   -15.9960 -15.9126 -15.4578 -15.2473 -13.9432 -13.9059 -12.3837 -12.3076
   -11.3144 -11.1053  -8.9398  -8.8270  -8.1973  -8.0939  -6.3572  -6.3010
    -5.3179  -5.2652  -5.0265  -4.8732  -4.3868  -4.2719  -4.1177  -3.9847
    -3.8170  -3.7339  -2.8018  -2.7159  -2.6769  -2.6011  -2.3336  -2.2488
    -1.2606  -1.1562  -1.0463  -1.0324  -0.9034  -0.8342  -0.1446  -0.0098
     0.6030   0.8200

     occupation numbers 
     1.0000   1.0000   1.0000   1.0000   1.0000   1.0000   1.0000   1.0000
     1.0000   1.0000   1.0000   1.0000   1.0000   1.0000   1.0000   1.0000
     1.0000   1.0000   1.0000   1.0000   1.0000   1.0000   1.0000   1.0000
     1.0000   1.0000   1.0000   1.0000   1.0000   1.0000   1.0000   1.0000
     1.0000   1.0000   1.0000   1.0000   1.0000   1.0000   1.0000   1.0000
     1.0000   1.0000

          k =-0.0169 0.0643 0.0265 ( 36489 PWs)   bands (ev):

   -16.0670 -15.9758 -15.5093 -15.2955 -13.9787 -13.9422 -12.4162 -12.3331
   -11.3238 -11.1071  -8.9211  -8.7978  -8.1816  -8.0502  -6.3937  -6.3040
    -5.2925  -5.2453  -5.1229  -4.9326  -4.4220  -4.2867  -4.1314  -3.8246
    -3.2595  -3.2379  -2.6193  -2.5466  -2.4740  -2.4040  -2.1943  -2.0925
    -1.1056  -1.0234  -0.9285  -0.8502  -0.8347  -0.7559  -0.0155   0.0652
     0.6876   0.8730

     occupation numbers 
     1.0000   1.0000   1.0000   1.0000   1.0000   1.0000   1.0000   1.0000
     1.0000   1.0000   1.0000   1.0000   1.0000   1.0000   1.0000   1.0000
     1.0000   1.0000   1.0000   1.0000   1.0000   1.0000   1.0000   1.0000
     1.0000   1.0000   1.0000   1.0000   1.0000   1.0000   1.0000   1.0000
     1.0000   1.0000   1.0000   1.0000   1.0000   1.0000   1.0000   1.0000
     1.0000   1.0000

     highest occupied level (ev):     0.8783

!    total energy              =    -548.05342364 Ry
     Harris-Foulkes estimate   =    -548.05342371 Ry
     estimated scf accuracy    <       0.00000010 Ry

     total all-electron energy =     -4615.896911 Ry

     The total energy is the sum of the following terms:

     one-electron contribution =    -157.85300254 Ry
     hartree contribution      =     110.27110829 Ry
     xc contribution           =    -104.22075321 Ry
     ewald contribution        =    -140.46883356 Ry
     one-center paw contrib.   =    -255.78194263 Ry
      -> PAW hartree energy AE =      19.47679523 Ry
      -> PAW hartree energy PS =     -19.37168397 Ry
      -> PAW xc energy AE      =     -55.71405577 Ry
      -> PAW xc energy PS      =      10.16555874 Ry
      -> total E_H with PAW    =     110.37621955 Ry
      -> total E_XC with PAW   =    -149.76925025 Ry

     convergence has been achieved in  10 iterations
 writing file ./scratch/scf-1053.save/charge-density
 writing file ./scratch/scf-1053.save/charge-density
 writing file ./scratch/scf-1053.save/charge-density
 writing file ./scratch/scf-1053.save/charge-density
 writing file ./scratch/scf-1053.save/charge-density
 writing file ./scratch/scf-1053.save/charge-density
 writing file ./scratch/scf-1053.save/charge-density
 writing file ./scratch/scf-1053.save/charge-density
 writing file ./scratch/scf-1053.save/charge-density
 writing file ./scratch/scf-1053.save/charge-density
 writing file ./scratch/scf-1053.save/charge-density
 writing file ./scratch/scf-1053.save/charge-density
 writing file ./scratch/scf-1053.save/charge-density
 writing file ./scratch/scf-1053.save/charge-density
 writing file ./scratch/scf-1053.save/charge-density
 writing file ./scratch/scf-1053.save/charge-density
 writing file ./scratch/scf-1053.save/charge-density
 writing file ./scratch/scf-1053.save/charge-density
 writing file ./scratch/scf-1053.save/charge-density
 writing file ./scratch/scf-1053.save/charge-density
 writing file ./scratch/scf-1053.save/charge-density
 writing file ./scratch/scf-1053.save/charge-density
 writing file ./scratch/scf-1053.save/charge-density
 writing file ./scratch/scf-1053.save/charge-density
 writing file ./scratch/scf-1053.save/charge-density
 writing file ./scratch/scf-1053.save/charge-density
 writing file ./scratch/scf-1053.save/charge-density
 writing file ./scratch/scf-1053.save/charge-density
 writing file ./scratch/scf-1053.save/charge-density
 writing file ./scratch/scf-1053.save/charge-density
 writing file ./scratch/scf-1053.save/charge-density
 writing file ./scratch/scf-1053.save/charge-density

     Forces acting on atoms (cartesian axes, Ry/au):

     atom    1 type  2   force =     0.01567170   -0.01411831    0.00266380
     atom    2 type  1   force =    -0.02704785    0.00587663    0.00115516
     atom    3 type  1   force =     0.03916986    0.00686326   -0.01051719
     atom    4 type  3   force =    -0.00380725    0.00526513    0.00385996
     atom    5 type  1   force =    -0.01463433   -0.03317857    0.00568546
     atom    6 type  3   force =    -0.00289240    0.00175888   -0.00553917
     atom    7 type  3   force =    -0.00084965    0.00196872    0.00100791
     atom    8 type  1   force =     0.00846115   -0.00456070   -0.00724980
     atom    9 type  3   force =     0.00468125   -0.00112421   -0.00062933
     atom   10 type  1   force =    -0.00888464    0.00238112    0.01222172
     atom   11 type  1   force =     0.00253244   -0.01815494   -0.01648731
     atom   12 type  2   force =     0.01598021    0.01404482    0.00762542
     atom   13 type  3   force =     0.00457675    0.00058464    0.00118698
     atom   14 type  1   force =    -0.01414745    0.03200531    0.00183635
     atom   15 type  3   force =    -0.00209816   -0.00186093   -0.00038860
     atom   16 type  1   force =    -0.00594442    0.02406450    0.01703796
     atom   17 type  1   force =     0.00226175   -0.04092531   -0.02585308
     atom   18 type  2   force =    -0.00699352    0.01522046    0.00168659
     atom   19 type  3   force =     0.00045869   -0.00073775   -0.00313013
     atom   20 type  1   force =    -0.00796236    0.01163027    0.01393066
     atom   21 type  3   force =     0.00061747   -0.00034082    0.00383015
     atom   22 type  1   force =     0.00468898   -0.01081442   -0.00922766
     atom   23 type  1   force =     0.01073185    0.00505109    0.01475853
     atom   24 type  2   force =    -0.01457006   -0.00089886   -0.00946438
     The non-local contrib.  to forces
     atom    1 type  2   force =    -0.31719888    0.24058175    0.01115376
     atom    2 type  1   force =     0.36910903   -0.29666313    0.02224772
     atom    3 type  1   force =    -0.00735456   -0.03606585   -0.07336001
     atom    4 type  3   force =    -0.06605802   -0.01528436   -0.03992463
     atom    5 type  1   force =    -0.04549871   -0.07423393   -0.02741779
     atom    6 type  3   force =    -0.00527492   -0.06411151   -0.04515047
     atom    7 type  3   force =     0.00118767   -0.06776491    0.03997103
     atom    8 type  1   force =     0.04598362   -0.05047585    0.02451800
     atom    9 type  3   force =     0.06481586   -0.02239902    0.03935823
     atom   10 type  1   force =     0.04213634   -0.04019001    0.08113490
     atom   11 type  1   force =    -0.38386737   -0.32808778   -0.05628488
     atom   12 type  2   force =     0.31222670    0.24940186    0.02550229
     atom   13 type  3   force =     0.00585020    0.06646336    0.04162295
     atom   14 type  1   force =     0.01586186    0.06132453    0.03199832
     atom   15 type  3   force =     0.06544681    0.01676650    0.04084336
     atom   16 type  1   force =     0.03019716    0.07881382    0.06166726
     atom   17 type  1   force =    -0.39433750    0.24965009   -0.05489008
     atom   18 type  2   force =     0.33456644   -0.21274299    0.00434270
     atom   19 type  3   force =    -0.00186956    0.06796228   -0.03910686
     atom   20 type  1   force =    -0.04841478    0.05650036   -0.00468913
     atom   21 type  3   force =    -0.06568111    0.02300235   -0.03739510
     atom   22 type  1   force =    -0.02961325    0.02353350   -0.05559475
     atom   23 type  1   force =     0.39961593    0.30188308    0.04753245
     atom   24 type  2   force =    -0.33251642   -0.21882855   -0.02971572
     The ionic contribution  to forces
     atom    1 type  2   force =     4.21573012   -3.69715958   -0.05821140
     atom    2 type  1   force =     0.94685178   -1.47969992   -0.11255364
     atom    3 type  1   force =     2.63360199    1.47382758    2.41904138
     atom    4 type  3   force =     1.84519799    0.56275421    1.14230563
     atom    5 type  1   force =    -0.15395251    4.33307448    1.57937773
     atom    6 type  3   force =    -0.02741437    1.85964051    1.19850735
     atom    7 type  3   force =     0.16349436    1.97493445   -1.11704668
     atom    8 type  1   force =     0.48060466    4.23240132   -1.58364566
     atom    9 type  3   force =    -1.64004749    0.76785015   -1.06563818
     atom   10 type  1   force =    -2.63121590    1.81291346   -2.10205215
     atom   11 type  1   force =    -1.24994100   -1.53257824    0.46713627
     atom   12 type  2   force =    -3.48232046   -3.81690499    0.07348132
     atom   13 type  3   force =    -0.68529774   -1.90568059   -1.44630489
     atom   14 type  1   force =    -2.48773642   -4.18115469   -2.96322547
     atom   15 type  3   force =    -2.30612590   -0.71629226   -1.36636282
     atom   16 type  1   force =    -5.34786008   -1.65346915   -3.09546835
     atom   17 type  1   force =    -3.41460048    1.58395177   -1.04887386
     atom   18 type  2   force =    -8.09718632    4.13202090   -1.46301858
     atom   19 type  3   force =     0.55247174   -1.96381290    1.39335414
     atom   20 type  1   force =     2.30227988   -4.30024476    2.62712877
     atom   21 type  3   force =     2.28980493   -0.86076794    1.30116191
     atom   22 type  1   force =     5.27952277   -2.01438086    3.24245945
     atom   23 type  1   force =     3.65793838    1.67288261    0.70125838
     atom   24 type  2   force =     7.15620006    3.71589441    1.27718935
     The local contribution  to forces
     atom    1 type  2   force =    -3.89480040    3.45155802    0.05022122
     atom    2 type  1   force =    -1.33351645    1.77514823    0.09195418
     atom    3 type  1   force =    -2.58620137   -1.43097580   -2.35583995
     atom    4 type  3   force =    -1.78297444   -0.54220056   -1.09853750
     atom    5 type  1   force =     0.18450481   -4.29071794   -1.54593762
     atom    6 type  3   force =     0.02979350   -1.79378190   -1.15890448
     atom    7 type  3   force =    -0.16553205   -1.90519055    1.07808071
     atom    8 type  1   force =    -0.51768789   -4.18519586    1.55136148
     atom    9 type  3   force =     1.57991308   -0.74656073    1.02564553
     atom   10 type  1   force =     2.57928954   -1.77019501    2.03307282
     atom   11 type  1   force =     1.62586877    1.83438781   -0.42809907
     atom   12 type  2   force =     3.19926517    3.59207962   -0.09010235
     atom   13 type  3   force =     0.68401784    1.83976819    1.40585071
     atom   14 type  1   force =     2.45774974    4.15057146    2.93234664
     atom   15 type  3   force =     2.23855907    0.69768967    1.32512434
     atom   16 type  1   force =     5.31068238    1.60031972    3.05113458
     atom   17 type  1   force =     3.80123896   -1.86828725    1.07649907
     atom   18 type  2   force =     7.76896110   -3.91238997    1.46041207
     atom   19 type  3   force =    -0.55013776    1.89508673   -1.35737071
     atom   20 type  1   force =    -2.26233560    4.25399827   -2.60776177
     atom   21 type  3   force =    -2.22346279    0.83742745   -1.25992093
     atom   22 type  1   force =    -5.24401731    1.97983316   -3.19554255
     atom   23 type  1   force =    -4.03620062   -1.96165187   -0.73331394
     atom   24 type  2   force =    -6.85220900   -3.50702388   -1.25827889
     The core correction contribution to forces
     atom    1 type  2   force =     0.01185018   -0.00906674   -0.00048967
     atom    2 type  1   force =    -0.00940211    0.00717653   -0.00041017
     atom    3 type  1   force =    -0.00083834    0.00019234   -0.00030400
     atom    4 type  3   force =     0.00000000    0.00000000    0.00000000
     atom    5 type  1   force =     0.00027835   -0.00130959   -0.00037354
     atom    6 type  3   force =     0.00000000    0.00000000    0.00000000
     atom    7 type  3   force =     0.00000000    0.00000000    0.00000000
     atom    8 type  1   force =    -0.00041926   -0.00119318    0.00051103
     atom    9 type  3   force =     0.00000000    0.00000000    0.00000000
     atom   10 type  1   force =     0.00082178   -0.00002491   -0.00001294
     atom   11 type  1   force =     0.01041197    0.00810532    0.00072290
     atom   12 type  2   force =    -0.01327286   -0.01062506   -0.00131745
     atom   13 type  3   force =     0.00000000    0.00000000    0.00000000
     atom   14 type  1   force =    -0.00005572    0.00123225    0.00067862
     atom   15 type  3   force =     0.00000000    0.00000000    0.00000000
     atom   16 type  1   force =     0.00087829   -0.00139324   -0.00028585
     atom   17 type  1   force =     0.00987341   -0.00614798    0.00139130
     atom   18 type  2   force =    -0.01313621    0.00807191   -0.00011804
     atom   19 type  3   force =     0.00000000    0.00000000    0.00000000
     atom   20 type  1   force =     0.00051513    0.00123181   -0.00070261
     atom   21 type  3   force =     0.00000000    0.00000000    0.00000000
     atom   22 type  1   force =    -0.00105509    0.00028385   -0.00052508
     atom   23 type  1   force =    -0.01049380   -0.00790887   -0.00070806
     atom   24 type  2   force =     0.01399313    0.00901145    0.00142489
     The Hubbard contrib.    to forces
     atom    1 type  2   force =     0.00000000    0.00000000    0.00000000
     atom    2 type  1   force =     0.00000000    0.00000000    0.00000000
     atom    3 type  1   force =     0.00000000    0.00000000    0.00000000
     atom    4 type  3   force =     0.00000000    0.00000000    0.00000000
     atom    5 type  1   force =     0.00000000    0.00000000    0.00000000
     atom    6 type  3   force =     0.00000000    0.00000000    0.00000000
     atom    7 type  3   force =     0.00000000    0.00000000    0.00000000
     atom    8 type  1   force =     0.00000000    0.00000000    0.00000000
     atom    9 type  3   force =     0.00000000    0.00000000    0.00000000
     atom   10 type  1   force =     0.00000000    0.00000000    0.00000000
     atom   11 type  1   force =     0.00000000    0.00000000    0.00000000
     atom   12 type  2   force =     0.00000000    0.00000000    0.00000000
     atom   13 type  3   force =     0.00000000    0.00000000    0.00000000
     atom   14 type  1   force =     0.00000000    0.00000000    0.00000000
     atom   15 type  3   force =     0.00000000    0.00000000    0.00000000
     atom   16 type  1   force =     0.00000000    0.00000000    0.00000000
     atom   17 type  1   force =     0.00000000    0.00000000    0.00000000
     atom   18 type  2   force =     0.00000000    0.00000000    0.00000000
     atom   19 type  3   force =     0.00000000    0.00000000    0.00000000
     atom   20 type  1   force =     0.00000000    0.00000000    0.00000000
     atom   21 type  3   force =     0.00000000    0.00000000    0.00000000
     atom   22 type  1   force =     0.00000000    0.00000000    0.00000000
     atom   23 type  1   force =     0.00000000    0.00000000    0.00000000
     atom   24 type  2   force =     0.00000000    0.00000000    0.00000000
     The SCF correction term to forces
     atom    1 type  2   force =     0.00009108   -0.00002869   -0.00001220
     atom    2 type  1   force =    -0.00008969   -0.00008203   -0.00008501
     atom    3 type  1   force =    -0.00003746   -0.00011195   -0.00005670
     atom    4 type  3   force =     0.00002763   -0.00000110    0.00001437
     atom    5 type  1   force =     0.00003413    0.00001147    0.00003459
     atom    6 type  3   force =     0.00000380    0.00001484    0.00000634
     atom    7 type  3   force =     0.00000077   -0.00000721    0.00000076
     atom    8 type  1   force =    -0.00001957   -0.00009409    0.00000326
     atom    9 type  3   force =     0.00000019   -0.00001155    0.00000301
     atom   10 type  1   force =     0.00008399   -0.00011935    0.00007699
     atom   11 type  1   force =     0.00006047    0.00002101    0.00003539
     atom   12 type  2   force =     0.00008206    0.00009645    0.00005952
     atom   13 type  3   force =     0.00000686    0.00003675    0.00001613
     atom   14 type  1   force =     0.00003349    0.00003482    0.00003615
     atom   15 type  3   force =     0.00002226   -0.00002178    0.00000442
     atom   16 type  1   force =     0.00015823   -0.00020360   -0.00001177
     atom   17 type  1   force =     0.00008776   -0.00008888    0.00001839
     atom   18 type  2   force =    -0.00019813    0.00026368    0.00006636
     atom   19 type  3   force =    -0.00000532    0.00002920   -0.00000880
     atom   20 type  1   force =    -0.00000658    0.00014766   -0.00004669
     atom   21 type  3   force =    -0.00004317    0.00000038   -0.00001783
     atom   22 type  1   force =    -0.00014774   -0.00008102   -0.00002683
     atom   23 type  1   force =    -0.00012764   -0.00015080   -0.00001239
     atom   24 type  2   force =    -0.00003743    0.00005077   -0.00008611

     Total force =     0.109470     Total SCF correction =     0.000650

     Writing output data file scf-1053.save
 writing file ./scratch/scf-1053.save/charge-density
 writing file ./scratch/scf-1053.save/charge-density
 writing file ./scratch/scf-1053.save/charge-density
 writing file ./scratch/scf-1053.save/charge-density
 writing file ./scratch/scf-1053.save/charge-density
 writing file ./scratch/scf-1053.save/charge-density
 writing file ./scratch/scf-1053.save/charge-density
 writing file ./scratch/scf-1053.save/charge-density
 writing file ./scratch/scf-1053.save/charge-density
 writing file ./scratch/scf-1053.save/charge-density
 writing file ./scratch/scf-1053.save/charge-density
 writing file ./scratch/scf-1053.save/charge-density
 writing file ./scratch/scf-1053.save/charge-density
 writing file ./scratch/scf-1053.save/charge-density
 writing file ./scratch/scf-1053.save/charge-density
 writing file ./scratch/scf-1053.save/charge-density
 writing file ./scratch/scf-1053.save/charge-density
 writing file ./scratch/scf-1053.save/charge-density
 writing file ./scratch/scf-1053.save/charge-density
 writing file ./scratch/scf-1053.save/charge-density
 writing file ./scratch/scf-1053.save/charge-density
 writing file ./scratch/scf-1053.save/charge-density
 writing file ./scratch/scf-1053.save/charge-density
 writing file ./scratch/scf-1053.save/charge-density
 writing file ./scratch/scf-1053.save/charge-density
 writing file ./scratch/scf-1053.save/charge-density
 writing file ./scratch/scf-1053.save/charge-density
 writing file ./scratch/scf-1053.save/charge-density
 writing file ./scratch/scf-1053.save/charge-density
 writing file ./scratch/scf-1053.save/charge-density
 writing file ./scratch/scf-1053.save/charge-density
 writing file ./scratch/scf-1053.save/charge-density
 
     init_run     :      4.34s CPU      4.60s WALL (       1 calls)
     electrons    :     44.73s CPU     47.25s WALL (       1 calls)
     forces       :      2.33s CPU      2.48s WALL (       1 calls)

     Called by init_run:
     wfcinit      :      1.59s CPU      1.60s WALL (       1 calls)
     wfcinit:atom :      0.03s CPU      0.02s WALL (      16 calls)
     wfcinit:wfcr :      1.46s CPU      1.48s WALL (      16 calls)
     potinit      :      0.89s CPU      0.91s WALL (       1 calls)

     Called by electrons:
     c_bands      :     34.82s CPU     35.09s WALL (      10 calls)
     sum_band     :      6.11s CPU      7.18s WALL (      10 calls)
     v_of_rho     :      0.85s CPU      0.89s WALL (      11 calls)
     v_h          :      0.05s CPU      0.06s WALL (      11 calls)
     v_xc         :      0.86s CPU      0.91s WALL (      12 calls)
     newd         :      1.44s CPU      2.63s WALL (      11 calls)
     PAW_pot      :      1.52s CPU      1.56s WALL (      11 calls)
     mix_rho      :      0.12s CPU      0.12s WALL (      10 calls)

     Called by c_bands:
     init_us_2    :      0.80s CPU      0.80s WALL (     352 calls)
     cegterg      :     32.74s CPU     32.92s WALL (     160 calls)

     Called by sum_band:
     sum_band:bec :      0.01s CPU      0.02s WALL (     160 calls)
     addusdens    :      1.39s CPU      2.43s WALL (      10 calls)

     Called by *egterg:
     h_psi        :     24.45s CPU     24.53s WALL (     778 calls)
     s_psi        :      1.84s CPU      1.84s WALL (     778 calls)
     g_psi        :      0.11s CPU      0.15s WALL (     602 calls)
     cdiaghg      :      3.14s CPU      3.09s WALL (     762 calls)
     cegterg:over :      1.54s CPU      1.49s WALL (     602 calls)
     cegterg:upda :      1.04s CPU      1.15s WALL (     602 calls)
     cegterg:last :      0.41s CPU      0.41s WALL (     176 calls)

     Called by h_psi:
     h_psi:pot    :     24.22s CPU     24.28s WALL (     778 calls)
     h_psi:calbec :      2.16s CPU      2.07s WALL (     778 calls)
     vloc_psi     :     20.30s CPU     20.42s WALL (     778 calls)
     add_vuspsi   :      1.75s CPU      1.79s WALL (     778 calls)

     General routines
     calbec       :      2.88s CPU      2.77s WALL (    1002 calls)
     fft          :      0.66s CPU      0.74s WALL (     183 calls)
     ffts         :      0.02s CPU      0.03s WALL (      21 calls)
     fftw         :     19.36s CPU     19.68s WALL (   51006 calls)
     interpolate  :      0.12s CPU      0.14s WALL (      21 calls)
     davcio       :      0.00s CPU      0.01s WALL (      16 calls)
 
     Parallel routines
     fft_scatter  :      6.92s CPU      7.06s WALL (   51210 calls)

     PAW routines
     PAW_pot      :      1.52s CPU      1.56s WALL (      11 calls)
 
     PWSCF        :    52.07s CPU        55.47s WALL

 
   This run was terminated on:  16: 3:31  20May2017            

=------------------------------------------------------------------------------=
   JOB DONE.
=------------------------------------------------------------------------------=

     Program PWSCF v.6.1 starts on 20May2017 at 16: 6:22 

     This program is part of the open-source Quantum ESPRESSO suite
     for quantum simulation of materials; please cite
         "P. Giannozzi et al., J. Phys.:Condens. Matter 21 395502 (2009);
          URL http://www.quantum-espresso.org", 
     in publications or presentations arising from this work. More details at
     http://www.quantum-espresso.org/quote

     Parallel version (MPI & OpenMP), running on      32 processor cores
     Number of MPI processes:                32
     Threads/MPI process:                     1
     R & G space division:  proc/nbgrp/npool/nimage =      32
     Waiting for input...
     Reading input from standard input
Warning: card &IONS ignored
Warning: card     ION_TEMPERATURE   = 'INITIAL' ignored
Warning: card     TEMPW             = 586.D0 ignored
Warning: card     TOLP              = 100.D0 ignored
Warning: card     DELTA_T           = 1.D0 ignored
Warning: card     NRAISE            = 1 ignored
Warning: card / ignored
Warning: card &CELL ignored
Warning: card     CELL_DYNAMICS     = 'BFGS' ignored
Warning: card / ignored

     Current dimensions of program PWSCF are:
     Max number of different atomic species (ntypx) = 10
     Max number of k-points (npk) =  40000
     Max angular momentum in pseudopotentials (lmaxx) =  3
               file C.pbe-n-kjpaw_psl.1.0.0.UPF: wavefunction(s)  2S 2P renormalized
               file Cl.pbe-n-kjpaw_psl.1.0.0.UPF: wavefunction(s)  3S 3P renormalized
               file H.pbe-kjpaw_psl.1.0.0.UPF: wavefunction(s)  1S renormalized

     Subspace diagonalization in iterative solution of the eigenvalue problem:
     a serial algorithm will be used

 
     Parallelization info
     --------------------
     sticks:   dense  smooth     PW     G-vecs:    dense   smooth      PW
     Min         764     305     83                36108     9133    1292
     Max         765     306     84                36110     9135    1293
     Sum       24467    9791   2657              1155489   292295   41363
 


     bravais-lattice index     =            0
     lattice parameter (alat)  =       1.8897  a.u.
     unit-cell volume          =    2163.5316 (a.u.)^3
     number of atoms/cell      =           24
     number of atomic types    =            3
     number of electrons       =        84.00
     number of Kohn-Sham states=           42
     kinetic-energy cutoff     =     100.0000  Ry
     charge density cutoff     =    1000.0000  Ry
     convergence threshold     =      1.0E-07
     mixing beta               =       0.7000
     number of iterations used =            8  plain     mixing
     Exchange-correlation      =  SLA  PW   PBX  PBC ( 1  4  3  4 0 0)

     celldm(1)=   1.889726  celldm(2)=   0.000000  celldm(3)=   0.000000
     celldm(4)=   0.000000  celldm(5)=   0.000000  celldm(6)=   0.000000

     crystal axes: (cart. coord. in units of alat)
               a(1) = (  14.762000   0.000000   0.000000 )  
               a(2) = (   0.000000   5.832000   0.000000 )  
               a(3) = (  -1.563876   0.000000   3.723951 )  

     reciprocal axes: (cart. coord. in units 2 pi/alat)
               b(1) = (  0.067741  0.000000  0.028448 )  
               b(2) = (  0.000000  0.171468  0.000000 )  
               b(3) = (  0.000000  0.000000  0.268532 )  


     PseudoPot. # 1 for  C read from file:
     /global/cscratch1/sd/almno10/.data/PSEUDOPOTENTIALS/C.pbe-n-kjpaw_psl.1.0.0.UPF
     MD5 check sum: 2ba8448e293caca687844dde9a1b88a8
     Pseudo is Projector augmented-wave + core cor, Zval =  4.0
     Generated using "atomic" code by A. Dal Corso  v.5.3.0 svn rev. 11974
     Shape of augmentation charge: PSQ
     Using radial grid of 1073 points,  4 beta functions with: 
                l(1) =   0
                l(2) =   0
                l(3) =   1
                l(4) =   1
     Q(r) pseudized with 0 coefficients 


     PseudoPot. # 2 for Cl read from file:
     /global/cscratch1/sd/almno10/.data/PSEUDOPOTENTIALS/Cl.pbe-n-kjpaw_psl.1.0.0.UPF
     MD5 check sum: dca63699d6b897c5771335df08a09219
     Pseudo is Projector augmented-wave + core cor, Zval =  7.0
     Generated using "atomic" code by A. Dal Corso  v.5.3.0 svn rev. 11974
     Shape of augmentation charge: PSQ
     Using radial grid of 1157 points,  6 beta functions with: 
                l(1) =   0
                l(2) =   0
                l(3) =   1
                l(4) =   1
                l(5) =   2
                l(6) =   2
     Q(r) pseudized with 0 coefficients 


     PseudoPot. # 3 for  H read from file:
     /global/cscratch1/sd/almno10/.data/PSEUDOPOTENTIALS/H.pbe-kjpaw_psl.1.0.0.UPF
     MD5 check sum: bc0feb48a24907a0b97fa6ee2d589a29
     Pseudo is Projector augmented-wave, Zval =  1.0
     Generated using "atomic" code by A. Dal Corso  v.5.3.0 svn rev. 11974
     Shape of augmentation charge: PSQ
     Using radial grid of  929 points,  2 beta functions with: 
                l(1) =   0
                l(2) =   0
     Q(r) pseudized with 0 coefficients 


     atomic species   valence    mass     pseudopotential
        C              4.00    12.01100      C( 1.00)
        Cl             7.00    35.45270     Cl( 1.00)
        H              1.00     1.00790      H( 1.00)

     No symmetry found


                                    s                        frac. trans.

      isym =  1     identity                                     

 cryst.   s( 1) = (     1          0          0      )
                  (     0          1          0      )
                  (     0          0          1      )

 cart.    s( 1) = (  1.0000000  0.0000000 -0.0000000 )
                  (  0.0000000  1.0000000  0.0000000 )
                  (  0.0000000  0.0000000  1.0000000 )


   Cartesian axes

     site n.     atom                  positions (alat units)
         1           Cl  tau(   1) = (  16.6581696   0.9362672   1.8494116  )
         2           C   tau(   2) = (  15.2770835   1.9504161   1.8702200  )
         3           C   tau(   3) = (  15.2838496   3.1240403   2.6238323  )
         4           H   tau(   4) = (  16.1972179   3.3336959   3.1777830  )
         5           C   tau(   5) = (  14.2629946   4.0718620   2.5786638  )
         6           H   tau(   6) = (  14.3254023   4.9657314   3.1969576  )
         7           H   tau(   7) = (   6.3390730   2.3073287   0.6559422  )
         8           C   tau(   8) = (   6.3492715   1.3685988   1.2046434  )
         9           H   tau(   9) = (   4.3447485   0.8303667   0.6178324  )
        10           C   tau(  10) = (   5.2394248   0.5241429   1.1576297  )
        11           C   tau(  11) = (   5.2581550  -0.6826305   1.8563578  )
        12           Cl  tau(  12) = (   3.8735101  -1.7760698   1.7589733  )
        13           H   tau(  13) = (  14.0905001   0.6492778   0.5567998  )
        14           C   tau(  14) = (  14.1575754   1.5722165   1.1298531  )
        15           H   tau(  15) = (  12.1910601   2.2455205   0.5589206  )
        16           C   tau(  16) = (  13.0937549   2.4748103   1.1203445  )
        17           C   tau(  17) = (  13.1348562   3.7014599   1.8483305  )
        18           Cl  tau(  18) = (  11.7007632   4.6658922   1.8173396  )
        19           H   tau(  19) = (   6.4242007  -2.0630900   3.0597168  )
        20           C   tau(  20) = (   6.4057972  -1.1168633   2.5213586  )
        21           H   tau(  21) = (   8.4106677  -0.5780207   3.0948191  )
        22           C   tau(  22) = (   7.5065735  -0.2646442   2.5783451  )
        23           C   tau(  23) = (   7.4833259   0.9496215   1.8968974  )
        24           Cl  tau(  24) = (   8.9331065   1.9451724   2.0070361  )

   Crystallographic axes

     site n.     atom                  positions (cryst. coord.)
         1           Cl  tau(   1) = (  1.1810616  0.1605396  0.4966261  )
         2           C   tau(   2) = (  1.0880967  0.3344335  0.5022139  )
         3           C   tau(   3) = (  1.1099939  0.5356722  0.7045828  )
         4           H   tau(   4) = (  1.1876256  0.5716214  0.8533363  )
         5           C   tau(   5) = (  1.0395547  0.6981931  0.6924537  )
         6           H   tau(   6) = (  1.0613715  0.8514629  0.8584853  )
         7           H   tau(   7) = (  0.4480786  0.3956325  0.1761415  )
         8           C   tau(   8) = (  0.4643790  0.2346706  0.3234853  )
         9           H   tau(   9) = (  0.3118959  0.1423811  0.1659077  )
        10           C   tau(  10) = (  0.3878588  0.0898736  0.3108606  )
        11           C   tau(  11) = (  0.4090051 -0.1170491  0.4984914  )
        12           Cl  tau(  12) = (  0.3124368 -0.3045387  0.4723406  )
        13           H   tau(  13) = (  0.9703515  0.1113302  0.1495185  )
        14           C   tau(  14) = (  0.9911975  0.2695844  0.3034017  )
        15           H   tau(  15) = (  0.8417409  0.3850344  0.1500881  )
        16           C   tau(  16) = (  0.9188622  0.4243502  0.3008483  )
        17           C   tau(  17) = (  0.9423563  0.6346811  0.4963358  )
        18           Cl  tau(  18) = (  0.8443271  0.8000501  0.4880138  )
        19           H   tau(  19) = (  0.5222281 -0.3537534  0.8216318  )
        20           C   tau(  20) = (  0.5056661 -0.1915061  0.6770654  )
        21           H   tau(  21) = (  0.6577929 -0.0991119  0.8310579  )
        22           C   tau(  22) = (  0.5818555 -0.0453780  0.6923681  )
        23           C   tau(  23) = (  0.5608948  0.1628295  0.5093776  )
        24           Cl  tau(  24) = (  0.6622384  0.3335344  0.5389534  )

     number of k points=    16
                       cart. coord. in units 2pi/alat
        k(    1) = (   0.0169354   0.0214335   0.0406785), wk =   0.1250000
        k(    2) = (   0.0169354   0.0214335   0.1078115), wk =   0.1250000
        k(    3) = (   0.0169354   0.0214335  -0.0935875), wk =   0.1250000
        k(    4) = (   0.0169354   0.0214335  -0.0264545), wk =   0.1250000
        k(    5) = (   0.0169354   0.0643004   0.0406785), wk =   0.1250000
        k(    6) = (   0.0169354   0.0643004   0.1078115), wk =   0.1250000
        k(    7) = (   0.0169354   0.0643004  -0.0935875), wk =   0.1250000
        k(    8) = (   0.0169354   0.0643004  -0.0264545), wk =   0.1250000
        k(    9) = (  -0.0169354   0.0214335  -0.0406785), wk =   0.1250000
        k(   10) = (  -0.0169354   0.0214335  -0.1078115), wk =   0.1250000
        k(   11) = (  -0.0169354   0.0214335   0.0935875), wk =   0.1250000
        k(   12) = (  -0.0169354   0.0214335   0.0264545), wk =   0.1250000
        k(   13) = (  -0.0169354   0.0643004  -0.0406785), wk =   0.1250000
        k(   14) = (  -0.0169354   0.0643004  -0.1078115), wk =   0.1250000
        k(   15) = (  -0.0169354   0.0643004   0.0935875), wk =   0.1250000
        k(   16) = (  -0.0169354   0.0643004   0.0264545), wk =   0.1250000

                       cryst. coord.
        k(    1) = (   0.2500000   0.1250000   0.1250000), wk =   0.1250000
        k(    2) = (   0.2500000   0.1250000   0.3750000), wk =   0.1250000
        k(    3) = (   0.2500000   0.1250000  -0.3750000), wk =   0.1250000
        k(    4) = (   0.2500000   0.1250000  -0.1250000), wk =   0.1250000
        k(    5) = (   0.2500000   0.3750000   0.1250000), wk =   0.1250000
        k(    6) = (   0.2500000   0.3750000   0.3750000), wk =   0.1250000
        k(    7) = (   0.2500000   0.3750000  -0.3750000), wk =   0.1250000
        k(    8) = (   0.2500000   0.3750000  -0.1250000), wk =   0.1250000
        k(    9) = (  -0.2500000   0.1250000  -0.1250000), wk =   0.1250000
        k(   10) = (  -0.2500000   0.1250000  -0.3750000), wk =   0.1250000
        k(   11) = (  -0.2500000   0.1250000   0.3750000), wk =   0.1250000
        k(   12) = (  -0.2500000   0.1250000   0.1250000), wk =   0.1250000
        k(   13) = (  -0.2500000   0.3750000  -0.1250000), wk =   0.1250000
        k(   14) = (  -0.2500000   0.3750000  -0.3750000), wk =   0.1250000
        k(   15) = (  -0.2500000   0.3750000   0.3750000), wk =   0.1250000
        k(   16) = (  -0.2500000   0.3750000   0.1250000), wk =   0.1250000

     Dense  grid:  1155489 G-vectors     FFT dimensions: ( 288, 120,  80)

     Smooth grid:   292295 G-vectors     FFT dimensions: ( 180,  72,  50)

     Estimated max dynamical RAM per process >     147.21MB

     Estimated total allocated dynamical RAM >    4710.62MB

     Initial potential from superposition of free atoms

     starting charge   83.99939, renormalised to   84.00000
     Starting wfc are   72 randomized atomic wfcs
     Checking if some PAW data can be deallocated... 
       node    0, deallocated PAW data for type:  1
       node    0, deallocated PAW data for type:  3
       node    1, deallocated PAW data for type:  1
       node    1, deallocated PAW data for type:  3
       node    2, deallocated PAW data for type:  2
       node    2, deallocated PAW data for type:  3
       node    3, deallocated PAW data for type:  2
       node    3, deallocated PAW data for type:  3
       node    4, deallocated PAW data for type:  2
       node    4, deallocated PAW data for type:  3
       node    5, deallocated PAW data for type:  2
       node    5, deallocated PAW data for type:  3
       node    6, deallocated PAW data for type:  1
       node    6, deallocated PAW data for type:  2
       node    7, deallocated PAW data for type:  1
       node    7, deallocated PAW data for type:  2
       node    8, deallocated PAW data for type:  2
       node    8, deallocated PAW data for type:  3
       node    9, deallocated PAW data for type:  2
       node    9, deallocated PAW data for type:  3
       node   10, deallocated PAW data for type:  1
       node   10, deallocated PAW data for type:  2
       node   11, deallocated PAW data for type:  1
       node   11, deallocated PAW data for type:  2
       node   12, deallocated PAW data for type:  1
       node   12, deallocated PAW data for type:  2
       node   13, deallocated PAW data for type:  1
       node   13, deallocated PAW data for type:  2
       node   14, deallocated PAW data for type:  2
       node   14, deallocated PAW data for type:  3
       node   15, deallocated PAW data for type:  2
       node   15, deallocated PAW data for type:  3
       node   16, deallocated PAW data for type:  1
       node   16, deallocated PAW data for type:  2
       node   17, deallocated PAW data for type:  2
       node   17, deallocated PAW data for type:  3
       node   18, deallocated PAW data for type:  2
       node   18, deallocated PAW data for type:  3
       node   19, deallocated PAW data for type:  1
       node   19, deallocated PAW data for type:  3
       node   20, deallocated PAW data for type:  1
       node   20, deallocated PAW data for type:  2
       node   21, deallocated PAW data for type:  2
       node   21, deallocated PAW data for type:  3
       node   22, deallocated PAW data for type:  1
       node   22, deallocated PAW data for type:  2
       node   23, deallocated PAW data for type:  2
       node   23, deallocated PAW data for type:  3
       node   24, deallocated PAW data for type:  2
       node   24, deallocated PAW data for type:  3
       node   25, deallocated PAW data for type:  1
       node   25, deallocated PAW data for type:  3
       node   26, deallocated PAW data for type:  1
       node   26, deallocated PAW data for type:  2
       node   27, deallocated PAW data for type:  2
       node   27, deallocated PAW data for type:  3
       node   28, deallocated PAW data for type:  1
       node   28, deallocated PAW data for type:  2
       node   29, deallocated PAW data for type:  2
       node   29, deallocated PAW data for type:  3
       node   30, deallocated PAW data for type:  2
       node   30, deallocated PAW data for type:  3
       node   31, deallocated PAW data for type:  1
       node   31, deallocated PAW data for type:  3

     total cpu time spent up to now is        6.0 secs

     per-process dynamical memory:    20.7 Mb

     Self-consistent Calculation

     iteration #  1     ecut=   100.00 Ry     beta= 0.70
     Davidson diagonalization with overlap
     ethr =  1.00E-04,  avg # of iterations =  5.0

     total cpu time spent up to now is       12.8 secs

     total energy              =    -547.14318219 Ry
     Harris-Foulkes estimate   =    -548.99538169 Ry
     estimated scf accuracy    <       2.71261431 Ry

     iteration #  2     ecut=   100.00 Ry     beta= 0.70
     Davidson diagonalization with overlap
     ethr =  3.23E-03,  avg # of iterations =  3.0

     total cpu time spent up to now is       17.7 secs

     total energy              =    -547.54649848 Ry
     Harris-Foulkes estimate   =    -548.60847209 Ry
     estimated scf accuracy    <       1.91450697 Ry

     iteration #  3     ecut=   100.00 Ry     beta= 0.70
     Davidson diagonalization with overlap
     ethr =  2.28E-03,  avg # of iterations =  2.9

     total cpu time spent up to now is       22.1 secs

     total energy              =    -548.02214112 Ry
     Harris-Foulkes estimate   =    -548.06207103 Ry
     estimated scf accuracy    <       0.08001476 Ry

     iteration #  4     ecut=   100.00 Ry     beta= 0.70
     Davidson diagonalization with overlap
     ethr =  9.53E-05,  avg # of iterations =  4.0

     total cpu time spent up to now is       26.9 secs

     total energy              =    -548.04812989 Ry
     Harris-Foulkes estimate   =    -548.05955292 Ry
     estimated scf accuracy    <       0.02254338 Ry

     iteration #  5     ecut=   100.00 Ry     beta= 0.70
     Davidson diagonalization with overlap
     ethr =  2.68E-05,  avg # of iterations =  3.0

     total cpu time spent up to now is       31.3 secs

     total energy              =    -548.05235309 Ry
     Harris-Foulkes estimate   =    -548.05393912 Ry
     estimated scf accuracy    <       0.00295895 Ry

     iteration #  6     ecut=   100.00 Ry     beta= 0.70
     Davidson diagonalization with overlap
     ethr =  3.52E-06,  avg # of iterations =  4.0

     total cpu time spent up to now is       35.9 secs

     total energy              =    -548.05295579 Ry
     Harris-Foulkes estimate   =    -548.05385460 Ry
     estimated scf accuracy    <       0.00239718 Ry

     iteration #  7     ecut=   100.00 Ry     beta= 0.70
     Davidson diagonalization with overlap
     ethr =  2.85E-06,  avg # of iterations =  4.0

     total cpu time spent up to now is       40.2 secs

     total energy              =    -548.05340266 Ry
     Harris-Foulkes estimate   =    -548.05342489 Ry
     estimated scf accuracy    <       0.00006105 Ry

     iteration #  8     ecut=   100.00 Ry     beta= 0.70
     Davidson diagonalization with overlap
     ethr =  7.27E-08,  avg # of iterations =  4.0

     total cpu time spent up to now is       45.0 secs

     total energy              =    -548.05342039 Ry
     Harris-Foulkes estimate   =    -548.05342632 Ry
     estimated scf accuracy    <       0.00001295 Ry

     iteration #  9     ecut=   100.00 Ry     beta= 0.70
     Davidson diagonalization with overlap
     ethr =  1.54E-08,  avg # of iterations =  4.0

     total cpu time spent up to now is       49.6 secs

     total energy              =    -548.05342322 Ry
     Harris-Foulkes estimate   =    -548.05342405 Ry
     estimated scf accuracy    <       0.00000192 Ry

     iteration # 10     ecut=   100.00 Ry     beta= 0.70
     Davidson diagonalization with overlap
     ethr =  2.29E-09,  avg # of iterations =  3.8

     total cpu time spent up to now is       54.2 secs

     End of self-consistent calculation

          k = 0.0169 0.0214 0.0407 ( 36525 PWs)   bands (ev):

   -16.1029 -16.0025 -15.4993 -15.2819 -13.9513 -13.9076 -12.3686 -12.2937
   -11.3089 -11.0938  -9.0303  -8.9009  -8.2643  -8.1056  -6.4059  -6.2636
    -5.3508  -5.3009  -5.0386  -4.8417  -4.3371  -4.1332  -3.9705  -3.7874
    -3.1937  -3.1559  -2.7382  -2.6626  -2.4277  -2.3615  -2.2290  -2.1208
    -1.2828  -1.1378  -0.9688  -0.9206  -0.8741  -0.7511  -0.0681   0.0188
     0.6154   0.8606

     occupation numbers 
     1.0000   1.0000   1.0000   1.0000   1.0000   1.0000   1.0000   1.0000
     1.0000   1.0000   1.0000   1.0000   1.0000   1.0000   1.0000   1.0000
     1.0000   1.0000   1.0000   1.0000   1.0000   1.0000   1.0000   1.0000
     1.0000   1.0000   1.0000   1.0000   1.0000   1.0000   1.0000   1.0000
     1.0000   1.0000   1.0000   1.0000   1.0000   1.0000   1.0000   1.0000
     1.0000   1.0000

          k = 0.0169 0.0214 0.1078 ( 36561 PWs)   bands (ev):

   -16.0175 -15.9348 -15.4531 -15.2413 -13.9365 -13.8724 -12.3539 -12.2870
   -11.2978 -11.0847  -8.9912  -8.8626  -8.2310  -8.0882  -6.3844  -6.2796
    -5.3458  -5.2714  -5.1026  -4.9587  -4.4294  -4.2332  -4.1136  -3.8021
    -3.7423  -3.6644  -2.9293  -2.7436  -2.6441  -2.4287  -2.3388  -2.2797
    -1.3986  -1.2099  -1.1559  -0.9855  -0.8450  -0.7412  -0.2757  -0.1491
     0.5603   0.8055

     occupation numbers 
     1.0000   1.0000   1.0000   1.0000   1.0000   1.0000   1.0000   1.0000
     1.0000   1.0000   1.0000   1.0000   1.0000   1.0000   1.0000   1.0000
     1.0000   1.0000   1.0000   1.0000   1.0000   1.0000   1.0000   1.0000
     1.0000   1.0000   1.0000   1.0000   1.0000   1.0000   1.0000   1.0000
     1.0000   1.0000   1.0000   1.0000   1.0000   1.0000   1.0000   1.0000
     1.0000   1.0000

          k = 0.0169 0.0214-0.0936 ( 36547 PWs)   bands (ev):

   -16.0239 -15.9289 -15.4528 -15.2411 -13.9263 -13.8811 -12.3609 -12.2807
   -11.2929 -11.0912  -8.9627  -8.8973  -8.2170  -8.1094  -6.3770  -6.2751
    -5.3370  -5.2814  -5.1007  -4.9124  -4.3808  -4.2762  -4.1608  -3.8802
    -3.7023  -3.6639  -2.8428  -2.7099  -2.6377  -2.4387  -2.3863  -2.3102
    -1.3471  -1.2172  -1.1573  -1.0108  -0.8741  -0.7513  -0.2343  -0.1838
     0.5609   0.8031

     occupation numbers 
     1.0000   1.0000   1.0000   1.0000   1.0000   1.0000   1.0000   1.0000
     1.0000   1.0000   1.0000   1.0000   1.0000   1.0000   1.0000   1.0000
     1.0000   1.0000   1.0000   1.0000   1.0000   1.0000   1.0000   1.0000
     1.0000   1.0000   1.0000   1.0000   1.0000   1.0000   1.0000   1.0000
     1.0000   1.0000   1.0000   1.0000   1.0000   1.0000   1.0000   1.0000
     1.0000   1.0000

          k = 0.0169 0.0214-0.0265 ( 36551 PWs)   bands (ev):

   -16.1097 -15.9951 -15.5011 -15.2809 -13.9447 -13.9119 -12.3765 -12.2878
   -11.3083 -11.0939  -9.0058  -8.9363  -8.2884  -8.0746  -6.4611  -6.1930
    -5.3534  -5.3193  -5.1132  -4.7201  -4.3004  -4.2145  -3.9858  -3.7067
    -3.1977  -3.1676  -2.8214  -2.6606  -2.4382  -2.2763  -2.2304  -2.1456
    -1.2489  -1.0887  -1.0473  -0.9321  -0.8990  -0.7420  -0.0419  -0.0073
     0.6213   0.8576

     occupation numbers 
     1.0000   1.0000   1.0000   1.0000   1.0000   1.0000   1.0000   1.0000
     1.0000   1.0000   1.0000   1.0000   1.0000   1.0000   1.0000   1.0000
     1.0000   1.0000   1.0000   1.0000   1.0000   1.0000   1.0000   1.0000
     1.0000   1.0000   1.0000   1.0000   1.0000   1.0000   1.0000   1.0000
     1.0000   1.0000   1.0000   1.0000   1.0000   1.0000   1.0000   1.0000
     1.0000   1.0000

          k = 0.0169 0.0643 0.0407 ( 36518 PWs)   bands (ev):

   -16.0664 -15.9766 -15.5090 -15.2956 -13.9812 -13.9393 -12.4175 -12.3337
   -11.3229 -11.1046  -8.9248  -8.7983  -8.1780  -8.0599  -6.3627  -6.2908
    -5.2980  -5.2515  -5.1474  -4.9734  -4.4766  -4.3107  -4.0094  -3.7834
    -3.2573  -3.2345  -2.6744  -2.6097  -2.4569  -2.3967  -2.1883  -2.0513
    -1.1146  -0.9738  -0.8954  -0.8715  -0.8389  -0.8086  -0.0179   0.0638
     0.6861   0.8783

     occupation numbers 
     1.0000   1.0000   1.0000   1.0000   1.0000   1.0000   1.0000   1.0000
     1.0000   1.0000   1.0000   1.0000   1.0000   1.0000   1.0000   1.0000
     1.0000   1.0000   1.0000   1.0000   1.0000   1.0000   1.0000   1.0000
     1.0000   1.0000   1.0000   1.0000   1.0000   1.0000   1.0000   1.0000
     1.0000   1.0000   1.0000   1.0000   1.0000   1.0000   1.0000   1.0000
     1.0000   1.0000

          k = 0.0169 0.0643 0.1078 ( 36558 PWs)   bands (ev):

   -15.9956 -15.9132 -15.4573 -15.2477 -13.9447 -13.9044 -12.3835 -12.3076
   -11.3147 -11.1050  -8.9403  -8.8281  -8.1961  -8.0931  -6.3543  -6.3034
    -5.3152  -5.2572  -5.0275  -4.8913  -4.3926  -4.2634  -4.1273  -3.9093
    -3.8522  -3.7885  -2.7578  -2.7011  -2.6588  -2.5401  -2.4079  -2.2770
    -1.3530  -1.1558  -1.0193  -0.9737  -0.9200  -0.8105  -0.1422  -0.0093
     0.5965   0.8161

     occupation numbers 
     1.0000   1.0000   1.0000   1.0000   1.0000   1.0000   1.0000   1.0000
     1.0000   1.0000   1.0000   1.0000   1.0000   1.0000   1.0000   1.0000
     1.0000   1.0000   1.0000   1.0000   1.0000   1.0000   1.0000   1.0000
     1.0000   1.0000   1.0000   1.0000   1.0000   1.0000   1.0000   1.0000
     1.0000   1.0000   1.0000   1.0000   1.0000   1.0000   1.0000   1.0000
     1.0000   1.0000

          k = 0.0169 0.0643-0.0936 ( 36547 PWs)   bands (ev):

   -16.0015 -15.9083 -15.4549 -15.2489 -13.9406 -13.9067 -12.3904 -12.3015
   -11.3122 -11.1091  -8.9123  -8.8622  -8.1848  -8.1106  -6.3714  -6.2706
    -5.3157  -5.2713  -5.0039  -4.8769  -4.3528  -4.2820  -4.1755  -3.9834
    -3.8276  -3.6998  -2.7873  -2.7426  -2.6804  -2.5887  -2.3388  -2.2123
    -1.2811  -1.1393  -1.0780  -1.0243  -0.9212  -0.8388  -0.1079  -0.0456
     0.6019   0.8186

     occupation numbers 
[...]
      -> PAW hartree energy PS =     -19.37168397 Ry
      -> PAW xc energy AE      =     -55.71405577 Ry
      -> PAW xc energy PS      =      10.16555874 Ry
      -> total E_H with PAW    =     110.37621955 Ry
      -> total E_XC with PAW   =    -149.76925025 Ry

     convergence has been achieved in  10 iterations
 writing file ./scratch/scf-1053.save/charge-density
 writing file ./scratch/scf-1053.save/charge-density
 writing file ./scratch/scf-1053.save/charge-density
 writing file ./scratch/scf-1053.save/charge-density
 writing file ./scratch/scf-1053.save/charge-density
 writing file ./scratch/scf-1053.save/charge-density
 writing file ./scratch/scf-1053.save/charge-density
 writing file ./scratch/scf-1053.save/charge-density
 writing file ./scratch/scf-1053.save/charge-density
 writing file ./scratch/scf-1053.save/charge-density
 writing file ./scratch/scf-1053.save/charge-density
 writing file ./scratch/scf-1053.save/charge-density
 writing file ./scratch/scf-1053.save/charge-density
 writing file ./scratch/scf-1053.save/charge-density
 writing file ./scratch/scf-1053.save/charge-density
 writing file ./scratch/scf-1053.save/charge-density
 writing file ./scratch/scf-1053.save/charge-density
 writing file ./scratch/scf-1053.save/charge-density
 writing file ./scratch/scf-1053.save/charge-density
 writing file ./scratch/scf-1053.save/charge-density
 writing file ./scratch/scf-1053.save/charge-density
 writing file ./scratch/scf-1053.save/charge-density
 writing file ./scratch/scf-1053.save/charge-density
 writing file ./scratch/scf-1053.save/charge-density
 writing file ./scratch/scf-1053.save/charge-density
 writing file ./scratch/scf-1053.save/charge-density
 writing file ./scratch/scf-1053.save/charge-density
 writing file ./scratch/scf-1053.save/charge-density
 writing file ./scratch/scf-1053.save/charge-density
 writing file ./scratch/scf-1053.save/charge-density
 writing file ./scratch/scf-1053.save/charge-density
 writing file ./scratch/scf-1053.save/charge-density

     Forces acting on atoms (cartesian axes, Ry/au):

     atom    1 type  2   force =     0.01567170   -0.01411831    0.00266380
     atom    2 type  1   force =    -0.02704785    0.00587663    0.00115516
     atom    3 type  1   force =     0.03916986    0.00686326   -0.01051719
     atom    4 type  3   force =    -0.00380725    0.00526513    0.00385996
     atom    5 type  1   force =    -0.01463433   -0.03317857    0.00568546
     atom    6 type  3   force =    -0.00289240    0.00175888   -0.00553917
     atom    7 type  3   force =    -0.00084965    0.00196872    0.00100791
     atom    8 type  1   force =     0.00846115   -0.00456070   -0.00724980
     atom    9 type  3   force =     0.00468125   -0.00112421   -0.00062933
     atom   10 type  1   force =    -0.00888464    0.00238112    0.01222172
     atom   11 type  1   force =     0.00253244   -0.01815494   -0.01648731
     atom   12 type  2   force =     0.01598021    0.01404482    0.00762542
     atom   13 type  3   force =     0.00457675    0.00058464    0.00118698
     atom   14 type  1   force =    -0.01414745    0.03200531    0.00183635
     atom   15 type  3   force =    -0.00209816   -0.00186093   -0.00038860
     atom   16 type  1   force =    -0.00594442    0.02406450    0.01703796
     atom   17 type  1   force =     0.00226175   -0.04092531   -0.02585308
     atom   18 type  2   force =    -0.00699352    0.01522046    0.00168659
     atom   19 type  3   force =     0.00045869   -0.00073775   -0.00313013
     atom   20 type  1   force =    -0.00796236    0.01163027    0.01393066
     atom   21 type  3   force =     0.00061747   -0.00034082    0.00383015
     atom   22 type  1   force =     0.00468898   -0.01081442   -0.00922766
     atom   23 type  1   force =     0.01073185    0.00505109    0.01475853
     atom   24 type  2   force =    -0.01457006   -0.00089886   -0.00946438
     The non-local contrib.  to forces
     atom    1 type  2   force =    -0.31719888    0.24058175    0.01115376
     atom    2 type  1   force =     0.36910903   -0.29666313    0.02224772
     atom    3 type  1   force =    -0.00735456   -0.03606585   -0.07336001
     atom    4 type  3   force =    -0.06605802   -0.01528436   -0.03992463
     atom    5 type  1   force =    -0.04549871   -0.07423393   -0.02741779
     atom    6 type  3   force =    -0.00527492   -0.06411151   -0.04515047
     atom    7 type  3   force =     0.00118767   -0.06776491    0.03997103
     atom    8 type  1   force =     0.04598362   -0.05047585    0.02451800
     atom    9 type  3   force =     0.06481586   -0.02239902    0.03935823
     atom   10 type  1   force =     0.04213634   -0.04019001    0.08113490
     atom   11 type  1   force =    -0.38386737   -0.32808778   -0.05628488
     atom   12 type  2   force =     0.31222670    0.24940186    0.02550229
     atom   13 type  3   force =     0.00585020    0.06646336    0.04162295
     atom   14 type  1   force =     0.01586186    0.06132453    0.03199832
     atom   15 type  3   force =     0.06544681    0.01676650    0.04084336
     atom   16 type  1   force =     0.03019716    0.07881382    0.06166726
     atom   17 type  1   force =    -0.39433750    0.24965009   -0.05489008
     atom   18 type  2   force =     0.33456644   -0.21274299    0.00434270
     atom   19 type  3   force =    -0.00186956    0.06796228   -0.03910686
     atom   20 type  1   force =    -0.04841478    0.05650036   -0.00468913
     atom   21 type  3   force =    -0.06568111    0.02300235   -0.03739510
     atom   22 type  1   force =    -0.02961325    0.02353350   -0.05559475
     atom   23 type  1   force =     0.39961593    0.30188308    0.04753245
     atom   24 type  2   force =    -0.33251642   -0.21882855   -0.02971572
     The ionic contribution  to forces
     atom    1 type  2   force =     4.21573012   -3.69715958   -0.05821140
     atom    2 type  1   force =     0.94685178   -1.47969992   -0.11255364
     atom    3 type  1   force =     2.63360199    1.47382758    2.41904138
     atom    4 type  3   force =     1.84519799    0.56275421    1.14230563
     atom    5 type  1   force =    -0.15395251    4.33307448    1.57937773
     atom    6 type  3   force =    -0.02741437    1.85964051    1.19850735
     atom    7 type  3   force =     0.16349436    1.97493445   -1.11704668
     atom    8 type  1   force =     0.48060466    4.23240132   -1.58364566
     atom    9 type  3   force =    -1.64004749    0.76785015   -1.06563818
     atom   10 type  1   force =    -2.63121590    1.81291346   -2.10205215
     atom   11 type  1   force =    -1.24994100   -1.53257824    0.46713627
     atom   12 type  2   force =    -3.48232046   -3.81690499    0.07348132
     atom   13 type  3   force =    -0.68529774   -1.90568059   -1.44630489
     atom   14 type  1   force =    -2.48773642   -4.18115469   -2.96322547
     atom   15 type  3   force =    -2.30612590   -0.71629226   -1.36636282
     atom   16 type  1   force =    -5.34786008   -1.65346915   -3.09546835
     atom   17 type  1   force =    -3.41460048    1.58395177   -1.04887386
     atom   18 type  2   force =    -8.09718632    4.13202090   -1.46301858
     atom   19 type  3   force =     0.55247174   -1.96381290    1.39335414
     atom   20 type  1   force =     2.30227988   -4.30024476    2.62712877
     atom   21 type  3   force =     2.28980493   -0.86076794    1.30116191
     atom   22 type  1   force =     5.27952277   -2.01438086    3.24245945
     atom   23 type  1   force =     3.65793838    1.67288261    0.70125838
     atom   24 type  2   force =     7.15620006    3.71589441    1.27718935
     The local contribution  to forces
     atom    1 type  2   force =    -3.89480040    3.45155802    0.05022122
     atom    2 type  1   force =    -1.33351645    1.77514823    0.09195418
     atom    3 type  1   force =    -2.58620137   -1.43097580   -2.35583995
     atom    4 type  3   force =    -1.78297444   -0.54220056   -1.09853750
     atom    5 type  1   force =     0.18450481   -4.29071794   -1.54593762
     atom    6 type  3   force =     0.02979350   -1.79378190   -1.15890448
     atom    7 type  3   force =    -0.16553205   -1.90519055    1.07808071
     atom    8 type  1   force =    -0.51768789   -4.18519586    1.55136148
     atom    9 type  3   force =     1.57991308   -0.74656073    1.02564553
     atom   10 type  1   force =     2.57928954   -1.77019501    2.03307282
     atom   11 type  1   force =     1.62586877    1.83438781   -0.42809907
     atom   12 type  2   force =     3.19926517    3.59207962   -0.09010235
     atom   13 type  3   force =     0.68401784    1.83976819    1.40585071
     atom   14 type  1   force =     2.45774974    4.15057146    2.93234664
     atom   15 type  3   force =     2.23855907    0.69768967    1.32512434
     atom   16 type  1   force =     5.31068238    1.60031972    3.05113458
     atom   17 type  1   force =     3.80123896   -1.86828725    1.07649907
     atom   18 type  2   force =     7.76896110   -3.91238997    1.46041207
     atom   19 type  3   force =    -0.55013776    1.89508673   -1.35737071
     atom   20 type  1   force =    -2.26233560    4.25399827   -2.60776177
     atom   21 type  3   force =    -2.22346279    0.83742745   -1.25992093
     atom   22 type  1   force =    -5.24401731    1.97983316   -3.19554255
     atom   23 type  1   force =    -4.03620062   -1.96165187   -0.73331394
     atom   24 type  2   force =    -6.85220900   -3.50702388   -1.25827889
     The core correction contribution to forces
     atom    1 type  2   force =     0.01185018   -0.00906674   -0.00048967
     atom    2 type  1   force =    -0.00940211    0.00717653   -0.00041017
     atom    3 type  1   force =    -0.00083834    0.00019234   -0.00030400
     atom    4 type  3   force =     0.00000000    0.00000000    0.00000000
     atom    5 type  1   force =     0.00027835   -0.00130959   -0.00037354
     atom    6 type  3   force =     0.00000000    0.00000000    0.00000000
     atom    7 type  3   force =     0.00000000    0.00000000    0.00000000
     atom    8 type  1   force =    -0.00041926   -0.00119318    0.00051103
     atom    9 type  3   force =     0.00000000    0.00000000    0.00000000
     atom   10 type  1   force =     0.00082178   -0.00002491   -0.00001294
     atom   11 type  1   force =     0.01041197    0.00810532    0.00072290
     atom   12 type  2   force =    -0.01327286   -0.01062506   -0.00131745
     atom   13 type  3   force =     0.00000000    0.00000000    0.00000000
     atom   14 type  1   force =    -0.00005572    0.00123225    0.00067862
     atom   15 type  3   force =     0.00000000    0.00000000    0.00000000
     atom   16 type  1   force =     0.00087829   -0.00139324   -0.00028585
     atom   17 type  1   force =     0.00987341   -0.00614798    0.00139130
     atom   18 type  2   force =    -0.01313621    0.00807191   -0.00011804
     atom   19 type  3   force =     0.00000000    0.00000000    0.00000000
     atom   20 type  1   force =     0.00051513    0.00123181   -0.00070261
     atom   21 type  3   force =     0.00000000    0.00000000    0.00000000
     atom   22 type  1   force =    -0.00105509    0.00028385   -0.00052508
     atom   23 type  1   force =    -0.01049380   -0.00790887   -0.00070806
     atom   24 type  2   force =     0.01399313    0.00901145    0.00142489
     The Hubbard contrib.    to forces
     atom    1 type  2   force =     0.00000000    0.00000000    0.00000000
     atom    2 type  1   force =     0.00000000    0.00000000    0.00000000
     atom    3 type  1   force =     0.00000000    0.00000000    0.00000000
     atom    4 type  3   force =     0.00000000    0.00000000    0.00000000
     atom    5 type  1   force =     0.00000000    0.00000000    0.00000000
     atom    6 type  3   force =     0.00000000    0.00000000    0.00000000
     atom    7 type  3   force =     0.00000000    0.00000000    0.00000000
     atom    8 type  1   force =     0.00000000    0.00000000    0.00000000
     atom    9 type  3   force =     0.00000000    0.00000000    0.00000000
     atom   10 type  1   force =     0.00000000    0.00000000    0.00000000
     atom   11 type  1   force =     0.00000000    0.00000000    0.00000000
     atom   12 type  2   force =     0.00000000    0.00000000    0.00000000
     atom   13 type  3   force =     0.00000000    0.00000000    0.00000000
     atom   14 type  1   force =     0.00000000    0.00000000    0.00000000
     atom   15 type  3   force =     0.00000000    0.00000000    0.00000000
     atom   16 type  1   force =     0.00000000    0.00000000    0.00000000
     atom   17 type  1   force =     0.00000000    0.00000000    0.00000000
     atom   18 type  2   force =     0.00000000    0.00000000    0.00000000
     atom   19 type  3   force =     0.00000000    0.00000000    0.00000000
     atom   20 type  1   force =     0.00000000    0.00000000    0.00000000
     atom   21 type  3   force =     0.00000000    0.00000000    0.00000000
     atom   22 type  1   force =     0.00000000    0.00000000    0.00000000
     atom   23 type  1   force =     0.00000000    0.00000000    0.00000000
     atom   24 type  2   force =     0.00000000    0.00000000    0.00000000
     The SCF correction term to forces
     atom    1 type  2   force =     0.00009108   -0.00002869   -0.00001220
     atom    2 type  1   force =    -0.00008969   -0.00008203   -0.00008501
     atom    3 type  1   force =    -0.00003746   -0.00011195   -0.00005670
     atom    4 type  3   force =     0.00002763   -0.00000110    0.00001437
     atom    5 type  1   force =     0.00003413    0.00001147    0.00003459
     atom    6 type  3   force =     0.00000380    0.00001484    0.00000634
     atom    7 type  3   force =     0.00000077   -0.00000721    0.00000076
     atom    8 type  1   force =    -0.00001957   -0.00009409    0.00000326
     atom    9 type  3   force =     0.00000019   -0.00001155    0.00000301
     atom   10 type  1   force =     0.00008399   -0.00011935    0.00007699
     atom   11 type  1   force =     0.00006047    0.00002101    0.00003539
     atom   12 type  2   force =     0.00008206    0.00009645    0.00005952
     atom   13 type  3   force =     0.00000686    0.00003675    0.00001613
     atom   14 type  1   force =     0.00003349    0.00003482    0.00003615
     atom   15 type  3   force =     0.00002226   -0.00002178    0.00000442
     atom   16 type  1   force =     0.00015823   -0.00020360   -0.00001177
     atom   17 type  1   force =     0.00008776   -0.00008888    0.00001839
     atom   18 type  2   force =    -0.00019813    0.00026368    0.00006636
     atom   19 type  3   force =    -0.00000532    0.00002920   -0.00000880
     atom   20 type  1   force =    -0.00000658    0.00014766   -0.00004669
     atom   21 type  3   force =    -0.00004317    0.00000038   -0.00001783
     atom   22 type  1   force =    -0.00014774   -0.00008102   -0.00002683
     atom   23 type  1   force =    -0.00012764   -0.00015080   -0.00001239
     atom   24 type  2   force =    -0.00003743    0.00005077   -0.00008611

     Total force =     0.109470     Total SCF correction =     0.000650

     Writing output data file scf-1053.save
 writing file ./scratch/scf-1053.save/charge-density
 writing file ./scratch/scf-1053.save/charge-density
 writing file ./scratch/scf-1053.save/charge-density
 writing file ./scratch/scf-1053.save/charge-density
 writing file ./scratch/scf-1053.save/charge-density
 writing file ./scratch/scf-1053.save/charge-density
 writing file ./scratch/scf-1053.save/charge-density
 writing file ./scratch/scf-1053.save/charge-density
 writing file ./scratch/scf-1053.save/charge-density
 writing file ./scratch/scf-1053.save/charge-density
 writing file ./scratch/scf-1053.save/charge-density
 writing file ./scratch/scf-1053.save/charge-density
 writing file ./scratch/scf-1053.save/charge-density
 writing file ./scratch/scf-1053.save/charge-density
 writing file ./scratch/scf-1053.save/charge-density
 writing file ./scratch/scf-1053.save/charge-density
 writing file ./scratch/scf-1053.save/charge-density
 writing file ./scratch/scf-1053.save/charge-density
 writing file ./scratch/scf-1053.save/charge-density
 writing file ./scratch/scf-1053.save/charge-density
 writing file ./scratch/scf-1053.save/charge-density
 writing file ./scratch/scf-1053.save/charge-density
 writing file ./scratch/scf-1053.save/charge-density
 writing file ./scratch/scf-1053.save/charge-density
 writing file ./scratch/scf-1053.save/charge-density
 writing file ./scratch/scf-1053.save/charge-density
 writing file ./scratch/scf-1053.save/charge-density
 writing file ./scratch/scf-1053.save/charge-density
 writing file ./scratch/scf-1053.save/charge-density
 writing file ./scratch/scf-1053.save/charge-density
 writing file ./scratch/scf-1053.save/charge-density
 writing file ./scratch/scf-1053.save/charge-density
 
     init_run     :      4.43s CPU      5.01s WALL (       1 calls)
     electrons    :     45.66s CPU     48.42s WALL (       1 calls)
     forces       :      2.32s CPU      2.47s WALL (       1 calls)

     Called by init_run:
     wfcinit      :      1.62s CPU      1.70s WALL (       1 calls)
     wfcinit:atom :      0.02s CPU      0.02s WALL (      16 calls)
     wfcinit:wfcr :      1.51s CPU      1.58s WALL (      16 calls)
     potinit      :      0.90s CPU      0.97s WALL (       1 calls)

     Called by electrons:
     c_bands      :     35.69s CPU     35.95s WALL (      10 calls)
     sum_band     :      6.28s CPU      7.40s WALL (      10 calls)
     v_of_rho     :      0.86s CPU      0.89s WALL (      11 calls)
     v_h          :      0.05s CPU      0.06s WALL (      11 calls)
     v_xc         :      0.88s CPU      0.91s WALL (      12 calls)
     newd         :      1.38s CPU      2.63s WALL (      11 calls)
     PAW_pot      :      1.52s CPU      1.59s WALL (      11 calls)
     mix_rho      :      0.12s CPU      0.13s WALL (      10 calls)

     Called by c_bands:
     init_us_2    :      0.78s CPU      0.79s WALL (     352 calls)
     cegterg      :     33.60s CPU     33.79s WALL (     160 calls)

     Called by sum_band:
     sum_band:bec :      0.01s CPU      0.02s WALL (     160 calls)
     addusdens    :      1.37s CPU      2.45s WALL (      10 calls)

     Called by *egterg:
     h_psi        :     25.31s CPU     25.41s WALL (     778 calls)
     s_psi        :      1.84s CPU      1.82s WALL (     778 calls)
     g_psi        :      0.08s CPU      0.14s WALL (     602 calls)
     cdiaghg      :      3.10s CPU      3.14s WALL (     762 calls)
     cegterg:over :      1.50s CPU      1.51s WALL (     602 calls)
     cegterg:upda :      1.22s CPU      1.16s WALL (     602 calls)
     cegterg:last :      0.37s CPU      0.41s WALL (     176 calls)

     Called by h_psi:
     h_psi:pot    :     25.04s CPU     25.16s WALL (     778 calls)
     h_psi:calbec :      2.20s CPU      2.06s WALL (     778 calls)
     vloc_psi     :     21.10s CPU     21.31s WALL (     778 calls)
     add_vuspsi   :      1.72s CPU      1.78s WALL (     778 calls)

     General routines
     calbec       :      2.96s CPU      2.78s WALL (    1002 calls)
     fft          :      0.74s CPU      0.98s WALL (     183 calls)
     ffts         :      0.02s CPU      0.04s WALL (      21 calls)
     fftw         :     19.87s CPU     20.07s WALL (   51006 calls)
     interpolate  :      0.12s CPU      0.15s WALL (      21 calls)
     davcio       :      0.01s CPU      0.18s WALL (      16 calls)
 
     Parallel routines
     fft_scatter  :      7.46s CPU      7.45s WALL (   51210 calls)

     PAW routines
     PAW_pot      :      1.52s CPU      1.59s WALL (      11 calls)
 
     PWSCF        :    53.22s CPU        58.25s WALL

 
   This run was terminated on:  16: 7:20  20May2017            

=------------------------------------------------------------------------------=
   JOB DONE.
=------------------------------------------------------------------------------=
