
     Program PWSCF v.6.1 starts on 22May2017 at 16: 9:50 

     This program is part of the open-source Quantum ESPRESSO suite
     for quantum simulation of materials; please cite
         "P. Giannozzi et al., J. Phys.:Condens. Matter 21 395502 (2009);
          URL http://www.quantum-espresso.org", 
     in publications or presentations arising from this work. More details at
     http://www.quantum-espresso.org/quote

     Parallel version (MPI & OpenMP), running on      32 processor cores
     Number of MPI processes:                32
     Threads/MPI process:                     1
     R & G space division:  proc/nbgrp/npool/nimage =      32
     Waiting for input...
     Reading input from standard input
Warning: card &IONS ignored
Warning: card     ION_TEMPERATURE   = 'INITIAL' ignored
Warning: card     TEMPW             = 586.D0 ignored
Warning: card     TOLP              = 100.D0 ignored
Warning: card     DELTA_T           = 1.D0 ignored
Warning: card     NRAISE            = 1 ignored
Warning: card / ignored
Warning: card &CELL ignored
Warning: card     CELL_DYNAMICS     = 'BFGS' ignored
Warning: card / ignored

     Current dimensions of program PWSCF are:
     Max number of different atomic species (ntypx) = 10
     Max number of k-points (npk) =  40000
     Max angular momentum in pseudopotentials (lmaxx) =  3
               file C.pbe-n-kjpaw_psl.1.0.0.UPF: wavefunction(s)  2S 2P renormalized
               file Cl.pbe-n-kjpaw_psl.1.0.0.UPF: wavefunction(s)  3S 3P renormalized
               file H.pbe-kjpaw_psl.1.0.0.UPF: wavefunction(s)  1S renormalized

     Subspace diagonalization in iterative solution of the eigenvalue problem:
     a serial algorithm will be used

 
     Parallelization info
     --------------------
     sticks:   dense  smooth     PW     G-vecs:    dense   smooth      PW
     Min         764     305     83                36108     9133    1292
     Max         765     306     84                36110     9135    1293
     Sum       24467    9791   2657              1155489   292295   41363
 


     bravais-lattice index     =            0
     lattice parameter (alat)  =       1.8897  a.u.
     unit-cell volume          =    2163.5316 (a.u.)^3
     number of atoms/cell      =           24
     number of atomic types    =            3
     number of electrons       =        84.00
     number of Kohn-Sham states=           42
     kinetic-energy cutoff     =     100.0000  Ry
     charge density cutoff     =    1000.0000  Ry
     convergence threshold     =      1.0E-07
     mixing beta               =       0.7000
     number of iterations used =            8  plain     mixing
     Exchange-correlation      =  SLA  PW   PBX  PBC ( 1  4  3  4 0 0)

     celldm(1)=   1.889726  celldm(2)=   0.000000  celldm(3)=   0.000000
     celldm(4)=   0.000000  celldm(5)=   0.000000  celldm(6)=   0.000000

     crystal axes: (cart. coord. in units of alat)
               a(1) = (  14.762000   0.000000   0.000000 )  
               a(2) = (   0.000000   5.832000   0.000000 )  
               a(3) = (  -1.563876   0.000000   3.723951 )  

     reciprocal axes: (cart. coord. in units 2 pi/alat)
               b(1) = (  0.067741  0.000000  0.028448 )  
               b(2) = (  0.000000  0.171468  0.000000 )  
               b(3) = (  0.000000  0.000000  0.268532 )  


     PseudoPot. # 1 for  C read from file:
     /global/cscratch1/sd/almno10/.data/PSEUDOPOTENTIALS/C.pbe-n-kjpaw_psl.1.0.0.UPF
     MD5 check sum: 2ba8448e293caca687844dde9a1b88a8
     Pseudo is Projector augmented-wave + core cor, Zval =  4.0
     Generated using "atomic" code by A. Dal Corso  v.5.3.0 svn rev. 11974
     Shape of augmentation charge: PSQ
     Using radial grid of 1073 points,  4 beta functions with: 
                l(1) =   0
                l(2) =   0
                l(3) =   1
                l(4) =   1
     Q(r) pseudized with 0 coefficients 


     PseudoPot. # 2 for Cl read from file:
     /global/cscratch1/sd/almno10/.data/PSEUDOPOTENTIALS/Cl.pbe-n-kjpaw_psl.1.0.0.UPF
     MD5 check sum: dca63699d6b897c5771335df08a09219
     Pseudo is Projector augmented-wave + core cor, Zval =  7.0
     Generated using "atomic" code by A. Dal Corso  v.5.3.0 svn rev. 11974
     Shape of augmentation charge: PSQ
     Using radial grid of 1157 points,  6 beta functions with: 
                l(1) =   0
                l(2) =   0
                l(3) =   1
                l(4) =   1
                l(5) =   2
                l(6) =   2
     Q(r) pseudized with 0 coefficients 


     PseudoPot. # 3 for  H read from file:
     /global/cscratch1/sd/almno10/.data/PSEUDOPOTENTIALS/H.pbe-kjpaw_psl.1.0.0.UPF
     MD5 check sum: bc0feb48a24907a0b97fa6ee2d589a29
     Pseudo is Projector augmented-wave, Zval =  1.0
     Generated using "atomic" code by A. Dal Corso  v.5.3.0 svn rev. 11974
     Shape of augmentation charge: PSQ
     Using radial grid of  929 points,  2 beta functions with: 
                l(1) =   0
                l(2) =   0
     Q(r) pseudized with 0 coefficients 


     atomic species   valence    mass     pseudopotential
        C              4.00    12.01100      C( 1.00)
        Cl             7.00    35.45270     Cl( 1.00)
        H              1.00     1.00790      H( 1.00)

     No symmetry found


                                    s                        frac. trans.

      isym =  1     identity                                     

 cryst.   s( 1) = (     1          0          0      )
                  (     0          1          0      )
                  (     0          0          1      )

 cart.    s( 1) = (  1.0000000  0.0000000 -0.0000000 )
                  (  0.0000000  1.0000000  0.0000000 )
                  (  0.0000000  0.0000000  1.0000000 )


   Cartesian axes

     site n.     atom                  positions (alat units)
         1           Cl  tau(   1) = (  16.2768233   1.0895925   1.7313620  )
         2           C   tau(   2) = (  14.8673898   2.1598709   1.7636399  )
         3           C   tau(   3) = (  15.0059311   3.3696952   2.4435332  )
         4           H   tau(   4) = (  15.9357980   3.5643161   2.9754614  )
         5           C   tau(   5) = (  13.9184351   4.2260548   2.6048564  )
         6           H   tau(   6) = (  14.0422646   5.1639431   3.1431492  )
         7           H   tau(   7) = (   6.7097533   1.9030513   0.3832881  )
         8           C   tau(   8) = (   6.7337108   1.0174807   1.0140844  )
         9           H   tau(   9) = (   4.7874468   0.3339985   0.3851091  )
        10           C   tau(  10) = (   5.6469570   0.1422448   1.0247046  )
        11           C   tau(  11) = (   5.6993106  -0.9916818   1.8343115  )
        12           Cl  tau(  12) = (   4.3823631  -2.2407056   1.8349263  )
        13           H   tau(  13) = (  13.5941050   0.9345322   0.4920187  )
        14           C   tau(  14) = (  13.6891417   1.8388157   1.0903575  )
        15           H   tau(  15) = (  11.7035721   2.5364835   0.6243358  )
        16           C   tau(  16) = (  12.6354495   2.7518394   1.1417835  )
        17           C   tau(  17) = (  12.7495579   3.9278785   1.9059138  )
        18           Cl  tau(  18) = (  11.4079508   5.0309627   2.0484725  )
        19           H   tau(  19) = (   6.7635042  -2.0612779   3.3841822  )
        20           C   tau(  20) = (   6.7676619  -1.2118219   2.7036071  )
        21           H   tau(  21) = (   8.6805388  -0.4879897   3.3819864  )
        22           C   tau(  22) = (   7.8448926  -0.3272460   2.7041008  )
        23           C   tau(  23) = (   7.8319825   0.7595929   1.8321058  )
        24           Cl  tau(  24) = (   9.1225092   1.8893250   1.9318334  )

   Crystallographic axes

     site n.     atom                  positions (cryst. coord.)
         1           Cl  tau(   1) = (  1.1518703  0.1868300  0.4649261  )
         2           C   tau(   2) = (  1.0573114  0.3703482  0.4735937  )
         3           C   tau(   3) = (  1.0860381  0.5777941  0.6561668  )
         4           H   tau(   4) = (  1.1641610  0.6111653  0.7990065  )
         5           C   tau(   5) = (  1.0169588  0.7246322  0.6994872  )
         6           H   tau(   6) = (  1.0406606  0.8854498  0.8440361  )
         7           H   tau(   7) = (  0.4654326  0.3263119  0.1029251  )
         8           C   tau(   8) = (  0.4850004  0.1744651  0.2723141  )
         9           H   tau(   9) = (  0.3352644  0.0572700  0.1034141  )
        10           C   tau(  10) = (  0.4116842  0.0243904  0.2751659  )
        11           C   tau(  11) = (  0.4382625 -0.1700415  0.4925713  )
        12           Cl  tau(  12) = (  0.3490680 -0.3842088  0.4927364  )
        13           H   tau(  13) = (  0.9348820  0.1602421  0.1321227  )
        14           C   tau(  14) = (  0.9583416  0.3152976  0.2927959  )
        15           H   tau(  15) = (  0.8105787  0.4349251  0.1676541  )
        16           C   tau(  16) = (  0.8884258  0.4718517  0.3066054  )
        17           C   tau(  17) = (  0.9178937  0.6735045  0.5117988  )
        18           Cl  tau(  18) = (  0.8310668  0.8626479  0.5500804  )
        19           H   tau(  19) = (  0.5544434 -0.3534427  0.9087611  )
        20           C   tau(  20) = (  0.5353640 -0.2077884  0.7260049  )
        21           H   tau(  21) = (  0.6842437 -0.0836745  0.9081715  )
        22           C   tau(  22) = (  0.6083513 -0.0561121  0.7261375  )
        23           C   tau(  23) = (  0.5826701  0.1302457  0.4919790  )
        24           Cl  tau(  24) = (  0.6729294  0.3239583  0.5187590  )

     number of k points=    16
                       cart. coord. in units 2pi/alat
        k(    1) = (   0.0169354   0.0214335   0.0406785), wk =   0.1250000
        k(    2) = (   0.0169354   0.0214335   0.1078115), wk =   0.1250000
        k(    3) = (   0.0169354   0.0214335  -0.0935875), wk =   0.1250000
        k(    4) = (   0.0169354   0.0214335  -0.0264545), wk =   0.1250000
        k(    5) = (   0.0169354   0.0643004   0.0406785), wk =   0.1250000
        k(    6) = (   0.0169354   0.0643004   0.1078115), wk =   0.1250000
        k(    7) = (   0.0169354   0.0643004  -0.0935875), wk =   0.1250000
        k(    8) = (   0.0169354   0.0643004  -0.0264545), wk =   0.1250000
        k(    9) = (  -0.0169354   0.0214335  -0.0406785), wk =   0.1250000
        k(   10) = (  -0.0169354   0.0214335  -0.1078115), wk =   0.1250000
        k(   11) = (  -0.0169354   0.0214335   0.0935875), wk =   0.1250000
        k(   12) = (  -0.0169354   0.0214335   0.0264545), wk =   0.1250000
        k(   13) = (  -0.0169354   0.0643004  -0.0406785), wk =   0.1250000
        k(   14) = (  -0.0169354   0.0643004  -0.1078115), wk =   0.1250000
        k(   15) = (  -0.0169354   0.0643004   0.0935875), wk =   0.1250000
        k(   16) = (  -0.0169354   0.0643004   0.0264545), wk =   0.1250000

                       cryst. coord.
        k(    1) = (   0.2500000   0.1250000   0.1250000), wk =   0.1250000
        k(    2) = (   0.2500000   0.1250000   0.3750000), wk =   0.1250000
        k(    3) = (   0.2500000   0.1250000  -0.3750000), wk =   0.1250000
        k(    4) = (   0.2500000   0.1250000  -0.1250000), wk =   0.1250000
        k(    5) = (   0.2500000   0.3750000   0.1250000), wk =   0.1250000
        k(    6) = (   0.2500000   0.3750000   0.3750000), wk =   0.1250000
        k(    7) = (   0.2500000   0.3750000  -0.3750000), wk =   0.1250000
        k(    8) = (   0.2500000   0.3750000  -0.1250000), wk =   0.1250000
        k(    9) = (  -0.2500000   0.1250000  -0.1250000), wk =   0.1250000
        k(   10) = (  -0.2500000   0.1250000  -0.3750000), wk =   0.1250000
        k(   11) = (  -0.2500000   0.1250000   0.3750000), wk =   0.1250000
        k(   12) = (  -0.2500000   0.1250000   0.1250000), wk =   0.1250000
        k(   13) = (  -0.2500000   0.3750000  -0.1250000), wk =   0.1250000
        k(   14) = (  -0.2500000   0.3750000  -0.3750000), wk =   0.1250000
        k(   15) = (  -0.2500000   0.3750000   0.3750000), wk =   0.1250000
        k(   16) = (  -0.2500000   0.3750000   0.1250000), wk =   0.1250000

     Dense  grid:  1155489 G-vectors     FFT dimensions: ( 288, 120,  80)

     Smooth grid:   292295 G-vectors     FFT dimensions: ( 180,  72,  50)

     Estimated max dynamical RAM per process >     147.21MB

     Estimated total allocated dynamical RAM >    4710.62MB

     Initial potential from superposition of free atoms

     starting charge   83.99939, renormalised to   84.00000
     Starting wfc are   72 randomized atomic wfcs
     Checking if some PAW data can be deallocated... 
       node    0, deallocated PAW data for type:  1
       node    0, deallocated PAW data for type:  3
       node    1, deallocated PAW data for type:  1
       node    1, deallocated PAW data for type:  3
       node    2, deallocated PAW data for type:  2
       node    2, deallocated PAW data for type:  3
       node    3, deallocated PAW data for type:  2
       node    3, deallocated PAW data for type:  3
       node    4, deallocated PAW data for type:  2
       node    4, deallocated PAW data for type:  3
       node    5, deallocated PAW data for type:  2
       node    5, deallocated PAW data for type:  3
       node    6, deallocated PAW data for type:  1
       node    6, deallocated PAW data for type:  2
       node    7, deallocated PAW data for type:  1
       node    7, deallocated PAW data for type:  2
       node    8, deallocated PAW data for type:  2
       node    8, deallocated PAW data for type:  3
       node    9, deallocated PAW data for type:  2
       node    9, deallocated PAW data for type:  3
       node   10, deallocated PAW data for type:  1
       node   10, deallocated PAW data for type:  2
       node   11, deallocated PAW data for type:  1
       node   11, deallocated PAW data for type:  2
       node   12, deallocated PAW data for type:  1
       node   12, deallocated PAW data for type:  2
       node   13, deallocated PAW data for type:  1
       node   13, deallocated PAW data for type:  2
       node   14, deallocated PAW data for type:  2
       node   14, deallocated PAW data for type:  3
       node   15, deallocated PAW data for type:  2
       node   15, deallocated PAW data for type:  3
       node   16, deallocated PAW data for type:  1
       node   16, deallocated PAW data for type:  2
       node   17, deallocated PAW data for type:  2
       node   17, deallocated PAW data for type:  3
       node   18, deallocated PAW data for type:  2
       node   18, deallocated PAW data for type:  3
       node   19, deallocated PAW data for type:  1
       node   19, deallocated PAW data for type:  3
       node   20, deallocated PAW data for type:  1
       node   20, deallocated PAW data for type:  2
       node   21, deallocated PAW data for type:  2
       node   21, deallocated PAW data for type:  3
       node   22, deallocated PAW data for type:  1
       node   22, deallocated PAW data for type:  2
       node   23, deallocated PAW data for type:  2
       node   23, deallocated PAW data for type:  3
       node   24, deallocated PAW data for type:  2
       node   24, deallocated PAW data for type:  3
       node   25, deallocated PAW data for type:  1
       node   25, deallocated PAW data for type:  3
       node   26, deallocated PAW data for type:  1
       node   26, deallocated PAW data for type:  2
       node   27, deallocated PAW data for type:  2
       node   27, deallocated PAW data for type:  3
       node   28, deallocated PAW data for type:  1
       node   28, deallocated PAW data for type:  2
       node   29, deallocated PAW data for type:  2
       node   29, deallocated PAW data for type:  3
       node   30, deallocated PAW data for type:  2
       node   30, deallocated PAW data for type:  3
       node   31, deallocated PAW data for type:  1
       node   31, deallocated PAW data for type:  3

     total cpu time spent up to now is        5.5 secs

     per-process dynamical memory:    20.7 Mb

     Self-consistent Calculation

     iteration #  1     ecut=   100.00 Ry     beta= 0.70
     Davidson diagonalization with overlap
     ethr =  1.00E-04,  avg # of iterations =  5.0

     total cpu time spent up to now is       12.2 secs

     total energy              =    -547.14301576 Ry
     Harris-Foulkes estimate   =    -549.00027339 Ry
     estimated scf accuracy    <       2.71796317 Ry

     iteration #  2     ecut=   100.00 Ry     beta= 0.70
     Davidson diagonalization with overlap
     ethr =  3.24E-03,  avg # of iterations =  3.0

     total cpu time spent up to now is       17.1 secs

     total energy              =    -547.54179097 Ry
     Harris-Foulkes estimate   =    -548.62022170 Ry
     estimated scf accuracy    <       1.94941316 Ry

     iteration #  3     ecut=   100.00 Ry     beta= 0.70
     Davidson diagonalization with overlap
     ethr =  2.32E-03,  avg # of iterations =  2.9

     total cpu time spent up to now is       21.5 secs

     total energy              =    -548.02676461 Ry
     Harris-Foulkes estimate   =    -548.06710948 Ry
     estimated scf accuracy    <       0.08139454 Ry

     iteration #  4     ecut=   100.00 Ry     beta= 0.70
     Davidson diagonalization with overlap
     ethr =  9.69E-05,  avg # of iterations =  3.9

     total cpu time spent up to now is       26.3 secs

     total energy              =    -548.05340223 Ry
     Harris-Foulkes estimate   =    -548.06373512 Ry
     estimated scf accuracy    <       0.02049757 Ry

     iteration #  5     ecut=   100.00 Ry     beta= 0.70
     Davidson diagonalization with overlap
     ethr =  2.44E-05,  avg # of iterations =  3.0

     total cpu time spent up to now is       30.7 secs

     total energy              =    -548.05761496 Ry
     Harris-Foulkes estimate   =    -548.05806347 Ry
     estimated scf accuracy    <       0.00093964 Ry

     iteration #  6     ecut=   100.00 Ry     beta= 0.70
     Davidson diagonalization with overlap
     ethr =  1.12E-06,  avg # of iterations =  4.0

     total cpu time spent up to now is       35.6 secs

     total energy              =    -548.05783959 Ry
     Harris-Foulkes estimate   =    -548.05800790 Ry
     estimated scf accuracy    <       0.00033501 Ry

     iteration #  7     ecut=   100.00 Ry     beta= 0.70
     Davidson diagonalization with overlap
     ethr =  3.99E-07,  avg # of iterations =  4.0

     total cpu time spent up to now is       40.2 secs

     total energy              =    -548.05791407 Ry
     Harris-Foulkes estimate   =    -548.05797537 Ry
     estimated scf accuracy    <       0.00016449 Ry

     iteration #  8     ecut=   100.00 Ry     beta= 0.70
     Davidson diagonalization with overlap
     ethr =  1.96E-07,  avg # of iterations =  4.0

     total cpu time spent up to now is       44.5 secs

     total energy              =    -548.05794403 Ry
     Harris-Foulkes estimate   =    -548.05795098 Ry
     estimated scf accuracy    <       0.00001628 Ry

     iteration #  9     ecut=   100.00 Ry     beta= 0.70
     Davidson diagonalization with overlap
     ethr =  1.94E-08,  avg # of iterations =  4.0

     total cpu time spent up to now is       49.0 secs

     total energy              =    -548.05794782 Ry
     Harris-Foulkes estimate   =    -548.05794881 Ry
     estimated scf accuracy    <       0.00000229 Ry

     iteration # 10     ecut=   100.00 Ry     beta= 0.70
     Davidson diagonalization with overlap
     ethr =  2.72E-09,  avg # of iterations =  4.0

     total cpu time spent up to now is       53.6 secs

     total energy              =    -548.05794832 Ry
     Harris-Foulkes estimate   =    -548.05794845 Ry
     estimated scf accuracy    <       0.00000028 Ry

     iteration # 11     ecut=   100.00 Ry     beta= 0.70
     Davidson diagonalization with overlap
     ethr =  3.31E-10,  avg # of iterations =  4.0

     total cpu time spent up to now is       58.3 secs

     End of self-consistent calculation

          k = 0.0169 0.0214 0.0407 ( 36525 PWs)   bands (ev):

   -16.1020 -15.9912 -15.3109 -15.2108 -13.9129 -13.8768 -12.3267 -12.3153
   -11.2989 -11.2123  -8.9684  -8.9086  -8.2389  -8.1389  -6.3487  -6.2362
    -5.3046  -5.2627  -4.9917  -4.7994  -4.2181  -4.1556  -3.9755  -3.9135
    -3.1451  -3.1287  -2.6988  -2.5946  -2.3804  -2.3403  -2.1930  -2.1492
    -1.2268  -1.1374  -1.0543  -0.9942  -0.8887  -0.7979  -0.0938   0.0703
     0.5770   0.7279

     occupation numbers 
     1.0000   1.0000   1.0000   1.0000   1.0000   1.0000   1.0000   1.0000
     1.0000   1.0000   1.0000   1.0000   1.0000   1.0000   1.0000   1.0000
     1.0000   1.0000   1.0000   1.0000   1.0000   1.0000   1.0000   1.0000
     1.0000   1.0000   1.0000   1.0000   1.0000   1.0000   1.0000   1.0000
     1.0000   1.0000   1.0000   1.0000   1.0000   1.0000   1.0000   1.0000
     1.0000   1.0000

          k = 0.0169 0.0214 0.1078 ( 36561 PWs)   bands (ev):

   -16.0124 -15.9051 -15.2674 -15.1596 -13.9037 -13.8448 -12.3487 -12.2958
   -11.2860 -11.2117  -8.9391  -8.8696  -8.2243  -8.1118  -6.3693  -6.2806
    -5.3075  -5.2551  -5.0603  -4.9470  -4.2837  -4.1794  -4.1045  -3.9676
    -3.7369  -3.6876  -2.7561  -2.7284  -2.5757  -2.4437  -2.3516  -2.3227
    -1.3593  -1.2330  -1.1697  -0.9833  -0.9046  -0.8104  -0.1894  -0.1113
     0.6610   0.7664

     occupation numbers 
     1.0000   1.0000   1.0000   1.0000   1.0000   1.0000   1.0000   1.0000
     1.0000   1.0000   1.0000   1.0000   1.0000   1.0000   1.0000   1.0000
     1.0000   1.0000   1.0000   1.0000   1.0000   1.0000   1.0000   1.0000
     1.0000   1.0000   1.0000   1.0000   1.0000   1.0000   1.0000   1.0000
     1.0000   1.0000   1.0000   1.0000   1.0000   1.0000   1.0000   1.0000
     1.0000   1.0000

          k = 0.0169 0.0214-0.0936 ( 36547 PWs)   bands (ev):

   -16.0091 -15.9105 -15.2640 -15.1603 -13.8892 -13.8582 -12.3553 -12.2918
   -11.2726 -11.2271  -8.9103  -8.8988  -8.1976  -8.1392  -6.3475  -6.2837
    -5.3002  -5.2625  -5.0816  -4.9031  -4.2626  -4.1970  -4.1603  -4.0019
    -3.7407  -3.6808  -2.7031  -2.6647  -2.5520  -2.4763  -2.4270  -2.3194
    -1.3032  -1.2330  -1.1627  -0.9979  -0.9162  -0.8288  -0.2330  -0.0770
     0.6519   0.7645

     occupation numbers 
     1.0000   1.0000   1.0000   1.0000   1.0000   1.0000   1.0000   1.0000
     1.0000   1.0000   1.0000   1.0000   1.0000   1.0000   1.0000   1.0000
     1.0000   1.0000   1.0000   1.0000   1.0000   1.0000   1.0000   1.0000
     1.0000   1.0000   1.0000   1.0000   1.0000   1.0000   1.0000   1.0000
     1.0000   1.0000   1.0000   1.0000   1.0000   1.0000   1.0000   1.0000
     1.0000   1.0000

          k = 0.0169 0.0214-0.0265 ( 36551 PWs)   bands (ev):

   -16.1003 -15.9942 -15.3100 -15.2101 -13.8991 -13.8886 -12.3351 -12.3110
   -11.2930 -11.2187  -8.9525  -8.9269  -8.2613  -8.1082  -6.3894  -6.1738
    -5.2977  -5.2815  -5.0652  -4.7017  -4.2703  -4.1629  -4.0014  -3.8541
    -3.1805  -3.1208  -2.7502  -2.5468  -2.4229  -2.2482  -2.2085  -2.1639
    -1.2006  -1.1582  -1.0335  -0.9844  -0.9140  -0.7945  -0.0773   0.0291
     0.5837   0.7211

     occupation numbers 
     1.0000   1.0000   1.0000   1.0000   1.0000   1.0000   1.0000   1.0000
     1.0000   1.0000   1.0000   1.0000   1.0000   1.0000   1.0000   1.0000
     1.0000   1.0000   1.0000   1.0000   1.0000   1.0000   1.0000   1.0000
     1.0000   1.0000   1.0000   1.0000   1.0000   1.0000   1.0000   1.0000
     1.0000   1.0000   1.0000   1.0000   1.0000   1.0000   1.0000   1.0000
     1.0000   1.0000

          k = 0.0169 0.0643 0.0407 ( 36518 PWs)   bands (ev):

   -16.0709 -15.9589 -15.3253 -15.2193 -13.9537 -13.9239 -12.3533 -12.3471
   -11.2899 -11.2114  -8.9048  -8.8214  -8.1386  -8.0676  -6.3720  -6.3125
    -5.2792  -5.2390  -5.0620  -4.9107  -4.3228  -4.2233  -4.0240  -3.9400
    -3.2381  -3.2159  -2.6398  -2.5734  -2.4494  -2.3907  -2.1157  -2.0679
    -1.0805  -0.9734  -0.9090  -0.8709  -0.8480  -0.8023  -0.1027   0.0836
     0.6604   0.7281

     occupation numbers 
     1.0000   1.0000   1.0000   1.0000   1.0000   1.0000   1.0000   1.0000
     1.0000   1.0000   1.0000   1.0000   1.0000   1.0000   1.0000   1.0000
     1.0000   1.0000   1.0000   1.0000   1.0000   1.0000   1.0000   1.0000
     1.0000   1.0000   1.0000   1.0000   1.0000   1.0000   1.0000   1.0000
     1.0000   1.0000   1.0000   1.0000   1.0000   1.0000   1.0000   1.0000
     1.0000   1.0000

          k = 0.0169 0.0643 0.1078 ( 36558 PWs)   bands (ev):

   -15.9949 -15.8852 -15.2710 -15.1606 -13.9193 -13.8772 -12.3518 -12.3129
   -11.2924 -11.2356  -8.9391  -8.8452  -8.2059  -8.1145  -6.3356  -6.2998
    -5.3067  -5.2466  -4.9360  -4.8262  -4.2600  -4.2206  -4.0653  -3.9723
    -3.8893  -3.8760  -2.7518  -2.6897  -2.5937  -2.4637  -2.3804  -2.2879
    -1.2945  -1.1522  -1.0649  -1.0291  -0.9518  -0.8410  -0.0422   0.0517
     0.6208   0.7498

     occupation numbers 
     1.0000   1.0000   1.0000   1.0000   1.0000   1.0000   1.0000   1.0000
     1.0000   1.0000   1.0000   1.0000   1.0000   1.0000   1.0000   1.0000
     1.0000   1.0000   1.0000   1.0000   1.0000   1.0000   1.0000   1.0000
     1.0000   1.0000   1.0000   1.0000   1.0000   1.0000   1.0000   1.0000
     1.0000   1.0000   1.0000   1.0000   1.0000   1.0000   1.0000   1.0000
     1.0000   1.0000

          k = 0.0169 0.0643-0.0936 ( 36547 PWs)   bands (ev):

   -15.9910 -15.8918 -15.2653 -15.1631 -13.9090 -13.8862 -12.3591 -12.3085
   -11.2834 -11.2466  -8.9066  -8.8771  -8.1762  -8.1460  -6.3477  -6.2694
    -5.3026  -5.2584  -4.9245  -4.7997  -4.2851  -4.2183  -4.1112  -4.0353
    -3.8651  -3.8231  -2.7796  -2.6729  -2.6085  -2.5568  -2.3075  -2.2152
    -1.2530  -1.1511  -1.0759  -1.0588  -0.9392  -0.8596  -0.0869   0.0745
     0.6123   0.7558

     occupation numbers 
     1.0000   1.0000   1.0000   1.0000   1.0000   1.0000   1.0000   1.0000
     1.0000   1.0000   1.0000   1.0000   1.0000   1.0000   1.0000   1.0000
     1.0000   1.0000   1.0000   1.0000   1.0000   1.0000   1.0000   1.0000
     1.0000   1.0000   1.0000   1.0000   1.0000   1.0000   1.0000   1.0000
     1.0000   1.0000   1.0000   1.0000   1.0000   1.0000   1.0000   1.0000
     1.0000   1.0000

          k = 0.0169 0.0643-0.0265 ( 36489 PWs)   bands (ev):

   -16.0676 -15.9645 -15.3204 -15.2215 -13.9476 -13.9287 -12.3601 -12.3419
   -11.2836 -11.2220  -8.8770  -8.8454  -8.1327  -8.0714  -6.4045  -6.2869
    -5.2791  -5.2313  -5.0209  -4.8960  -4.3082  -4.2100  -4.1034  -3.9995
    -3.2683  -3.1878  -2.6106  -2.5178  -2.4704  -2.3632  -2.1287  -2.0796
    -1.1107  -0.9996  -0.9148  -0.8558  -0.8125  -0.7768  -0.1016   0.0469
     0.6588   0.7277

     occupation numbers 
     1.0000   1.0000   1.0000   1.0000   1.0000   1.0000   1.0000   1.0000
     1.0000   1.0000   1.0000   1.0000   1.0000   1.0000   1.0000   1.0000
     1.0000   1.0000   1.0000   1.0000   1.0000   1.0000   1.0000   1.0000
     1.0000   1.0000   1.0000   1.0000   1.0000   1.0000   1.0000   1.0000
     1.0000   1.0000   1.0000   1.0000   1.0000   1.0000   1.0000   1.0000
     1.0000   1.0000

          k =-0.0169 0.0214-0.0407 ( 36525 PWs)   bands (ev):

   -16.0990 -15.9961 -15.3067 -15.2127 -13.9046 -13.8835 -12.3335 -12.3117
   -11.2895 -11.2235  -8.9436  -8.9322  -8.2349  -8.1436  -6.3405  -6.2253
    -5.2947  -5.2747  -4.9951  -4.7877  -4.1965  -4.1654  -4.0790  -3.8638
    -3.1820  -3.1069  -2.6993  -2.5799  -2.4214  -2.2522  -2.2017  -2.1503
    -1.2299  -1.1434  -1.0355  -0.9865  -0.9184  -0.7892  -0.0783   0.0299
     0.5780   0.7261

     occupation numbers 
     1.0000   1.0000   1.0000   1.0000   1.0000   1.0000   1.0000   1.0000
     1.0000   1.0000   1.0000   1.0000   1.0000   1.0000   1.0000   1.0000
     1.0000   1.0000   1.0000   1.0000   1.0000   1.0000   1.0000   1.0000
     1.0000   1.0000   1.0000   1.0000   1.0000   1.0000   1.0000   1.0000
     1.0000   1.0000   1.0000   1.0000   1.0000   1.0000   1.0000   1.0000
     1.0000   1.0000

          k =-0.0169 0.0214-0.1078 ( 36561 PWs)   bands (ev):

   -16.0087 -15.9112 -15.2623 -15.1617 -13.8974 -13.8499 -12.3558 -12.2912
   -11.2791 -11.2209  -8.9159  -8.8932  -8.2010  -8.1352  -6.3613  -6.2681
    -5.3026  -5.2632  -5.0594  -4.9382  -4.3119  -4.1829  -4.1035  -3.9825
    -3.7572  -3.6684  -2.7781  -2.7153  -2.5532  -2.4447  -2.3860  -2.2664
    -1.3431  -1.2066  -1.1843  -0.9929  -0.9121  -0.8232  -0.2365  -0.0785
     0.6510   0.7688

     occupation numbers 
     1.0000   1.0000   1.0000   1.0000   1.0000   1.0000   1.0000   1.0000
     1.0000   1.0000   1.0000   1.0000   1.0000   1.0000   1.0000   1.0000
     1.0000   1.0000   1.0000   1.0000   1.0000   1.0000   1.0000   1.0000
     1.0000   1.0000   1.0000   1.0000   1.0000   1.0000   1.0000   1.0000
     1.0000   1.0000   1.0000   1.0000   1.0000   1.0000   1.0000   1.0000
     1.0000   1.0000

          k =-0.0169 0.0214 0.0936 ( 36547 PWs)   bands (ev):

   -16.0129 -15.9043 -15.2697 -15.1575 -13.8991 -13.8496 -12.3485 -12.2961
   -11.2813 -11.2162  -8.9379  -8.8711  -8.2221  -8.1142  -6.3556  -6.2946
    -5.3014  -5.2618  -5.0896  -4.9046  -4.2472  -4.1810  -4.1418  -4.0058
    -3.7198  -3.6919  -2.7142  -2.6620  -2.5996  -2.4471  -2.3937  -2.3670
    -1.3064  -1.2503  -1.1582  -1.0014  -0.9111  -0.8151  -0.1825  -0.1131
     0.6659   0.7599

     occupation numbers 
     1.0000   1.0000   1.0000   1.0000   1.0000   1.0000   1.0000   1.0000
     1.0000   1.0000   1.0000   1.0000   1.0000   1.0000   1.0000   1.0000
     1.0000   1.0000   1.0000   1.0000   1.0000   1.0000   1.0000   1.0000
     1.0000   1.0000   1.0000   1.0000   1.0000   1.0000   1.0000   1.0000
     1.0000   1.0000   1.0000   1.0000   1.0000   1.0000   1.0000   1.0000
     1.0000   1.0000

          k =-0.0169 0.0214 0.0265 ( 36551 PWs)   bands (ev):

   -16.1033 -15.9892 -15.3143 -15.2083 -13.9073 -13.8820 -12.3281 -12.3150
   -11.2989 -11.2107  -8.9712  -8.9097  -8.2666  -8.1020  -6.3902  -6.1924
    -5.3054  -5.2760  -5.0631  -4.7112  -4.2536  -4.1721  -3.9374  -3.8713
    -3.1642  -3.1301  -2.7446  -2.5802  -2.3768  -2.3286  -2.2133  -2.1484
    -1.1959  -1.1526  -1.0589  -0.9894  -0.8851  -0.7987  -0.0956   0.0689
     0.5880   0.7195

     occupation numbers 
     1.0000   1.0000   1.0000   1.0000   1.0000   1.0000   1.0000   1.0000
     1.0000   1.0000   1.0000   1.0000   1.0000   1.0000   1.0000   1.0000
     1.0000   1.0000   1.0000   1.0000   1.0000   1.0000   1.0000   1.0000
     1.0000   1.0000   1.0000   1.0000   1.0000   1.0000   1.0000   1.0000
     1.0000   1.0000   1.0000   1.0000   1.0000   1.0000   1.0000   1.0000
     1.0000   1.0000

          k =-0.0169 0.0643-0.0407 ( 36518 PWs)   bands (ev):

   -16.0673 -15.9648 -15.3200 -15.2219 -13.9442 -13.9319 -12.3598 -12.3436
   -11.2800 -11.2233  -8.8742  -8.8505  -8.1301  -8.0781  -6.3643  -6.3017
    -5.2816  -5.2336  -5.0362  -4.9322  -4.3197  -4.2531  -4.0817  -3.8941
    -3.2750  -3.1829  -2.6365  -2.5851  -2.4718  -2.3328  -2.1098  -2.0715
    -1.0861  -0.9679  -0.8983  -0.8864  -0.8451  -0.7857  -0.1018   0.0451
     0.6582   0.7311

     occupation numbers 
     1.0000   1.0000   1.0000   1.0000   1.0000   1.0000   1.0000   1.0000
     1.0000   1.0000   1.0000   1.0000   1.0000   1.0000   1.0000   1.0000
     1.0000   1.0000   1.0000   1.0000   1.0000   1.0000   1.0000   1.0000
     1.0000   1.0000   1.0000   1.0000   1.0000   1.0000   1.0000   1.0000
     1.0000   1.0000   1.0000   1.0000   1.0000   1.0000   1.0000   1.0000
     1.0000   1.0000

          k =-0.0169 0.0643-0.1078 ( 36558 PWs)   bands (ev):

   -15.9909 -15.8918 -15.2653 -15.1630 -13.9112 -13.8841 -12.3593 -12.3081
   -11.2839 -11.2461  -8.9077  -8.8768  -8.1780  -8.1435  -6.3482  -6.2682
    -5.2970  -5.2555  -4.9278  -4.8157  -4.3005  -4.1897  -4.0960  -4.0209
    -3.8838  -3.8520  -2.7820  -2.6541  -2.5895  -2.4936  -2.3740  -2.2328
    -1.2966  -1.1528  -1.0666  -1.0311  -0.9169  -0.8700  -0.0868   0.0748
     0.6089   0.7554

     occupation numbers 
     1.0000   1.0000   1.0000   1.0000   1.0000   1.0000   1.0000   1.0000
     1.0000   1.0000   1.0000   1.0000   1.0000   1.0000   1.0000   1.0000
     1.0000   1.0000   1.0000   1.0000   1.0000   1.0000   1.0000   1.0000
     1.0000   1.0000   1.0000   1.0000   1.0000   1.0000   1.0000   1.0000
     1.0000   1.0000   1.0000   1.0000   1.0000   1.0000   1.0000   1.0000
     1.0000   1.0000

          k =-0.0169 0.0643 0.0936 ( 36547 PWs)   bands (ev):

   -15.9950 -15.8850 -15.2716 -15.1600 -13.9195 -13.8770 -12.3519 -12.3129
   -11.2920 -11.2360  -8.9389  -8.8448  -8.2059  -8.1152  -6.3359  -6.2989
    -5.3089  -5.2548  -4.9435  -4.8010  -4.2567  -4.2361  -4.0781  -3.9942
    -3.8641  -3.8420  -2.7710  -2.6869  -2.6150  -2.5625  -2.2969  -2.2557
    -1.2291  -1.1405  -1.0925  -1.0784  -0.9237  -0.8742  -0.0415   0.0512
     0.6251   0.7507

     occupation numbers 
     1.0000   1.0000   1.0000   1.0000   1.0000   1.0000   1.0000   1.0000
     1.0000   1.0000   1.0000   1.0000   1.0000   1.0000   1.0000   1.0000
     1.0000   1.0000   1.0000   1.0000   1.0000   1.0000   1.0000   1.0000
     1.0000   1.0000   1.0000   1.0000   1.0000   1.0000   1.0000   1.0000
     1.0000   1.0000   1.0000   1.0000   1.0000   1.0000   1.0000   1.0000
     1.0000   1.0000

          k =-0.0169 0.0643 0.0265 ( 36489 PWs)   bands (ev):

   -16.0712 -15.9585 -15.3257 -15.2190 -13.9530 -13.9249 -12.3538 -12.3454
   -11.2902 -11.2131  -8.9033  -8.8210  -8.1454  -8.0561  -6.3995  -6.3103
    -5.2767  -5.2382  -5.0460  -4.8763  -4.2738  -4.2118  -4.1183  -3.9664
    -3.2420  -3.2151  -2.6151  -2.5146  -2.4617  -2.4031  -2.1169  -2.0938
    -1.0925  -1.0140  -0.9173  -0.8709  -0.8276  -0.7613  -0.1033   0.0844
     0.6645   0.7222

     occupation numbers 
     1.0000   1.0000   1.0000   1.0000   1.0000   1.0000   1.0000   1.0000
     1.0000   1.0000   1.0000   1.0000   1.0000   1.0000   1.0000   1.0000
     1.0000   1.0000   1.0000   1.0000   1.0000   1.0000   1.0000   1.0000
     1.0000   1.0000   1.0000   1.0000   1.0000   1.0000   1.0000   1.0000
     1.0000   1.0000   1.0000   1.0000   1.0000   1.0000   1.0000   1.0000
     1.0000   1.0000

     highest occupied level (ev):     0.7688

!    total energy              =    -548.05794838 Ry
     Harris-Foulkes estimate   =    -548.05794840 Ry
     estimated scf accuracy    <       0.00000004 Ry

     total all-electron energy =     -4615.901436 Ry

     The total energy is the sum of the following terms:

     one-electron contribution =    -155.23800432 Ry
     hartree contribution      =     108.98012320 Ry
     xc contribution           =    -104.18138662 Ry
     ewald contribution        =    -141.83805384 Ry
     one-center paw contrib.   =    -255.78062680 Ry
      -> PAW hartree energy AE =      19.15149138 Ry
      -> PAW hartree energy PS =     -19.04692084 Ry
      -> PAW xc energy AE      =     -55.65308345 Ry
      -> PAW xc energy PS      =      10.10689671 Ry
      -> total E_H with PAW    =     109.08469373 Ry
      -> total E_XC with PAW   =    -149.72757336 Ry

     convergence has been achieved in  11 iterations
 writing file ./scratch/scf-1433.save/charge-density
 writing file ./scratch/scf-1433.save/charge-density
 writing file ./scratch/scf-1433.save/charge-density
 writing file ./scratch/scf-1433.save/charge-density
 writing file ./scratch/scf-1433.save/charge-density
 writing file ./scratch/scf-1433.save/charge-density
 writing file ./scratch/scf-1433.save/charge-density
 writing file ./scratch/scf-1433.save/charge-density
 writing file ./scratch/scf-1433.save/charge-density
 writing file ./scratch/scf-1433.save/charge-density
 writing file ./scratch/scf-1433.save/charge-density
 writing file ./scratch/scf-1433.save/charge-density
 writing file ./scratch/scf-1433.save/charge-density
 writing file ./scratch/scf-1433.save/charge-density
 writing file ./scratch/scf-1433.save/charge-density
 writing file ./scratch/scf-1433.save/charge-density
 writing file ./scratch/scf-1433.save/charge-density
 writing file ./scratch/scf-1433.save/charge-density
 writing file ./scratch/scf-1433.save/charge-density
 writing file ./scratch/scf-1433.save/charge-density
 writing file ./scratch/scf-1433.save/charge-density
 writing file ./scratch/scf-1433.save/charge-density
 writing file ./scratch/scf-1433.save/charge-density
 writing file ./scratch/scf-1433.save/charge-density
 writing file ./scratch/scf-1433.save/charge-density
 writing file ./scratch/scf-1433.save/charge-density
 writing file ./scratch/scf-1433.save/charge-density
 writing file ./scratch/scf-1433.save/charge-density
 writing file ./scratch/scf-1433.save/charge-density
 writing file ./scratch/scf-1433.save/charge-density
 writing file ./scratch/scf-1433.save/charge-density
 writing file ./scratch/scf-1433.save/charge-density

     Forces acting on atoms (cartesian axes, Ry/au):

     atom    1 type  2   force =    -0.01727378    0.00645217   -0.00415131
     atom    2 type  1   force =     0.01581997    0.00348805   -0.00491448
     atom    3 type  1   force =     0.00202179   -0.01569914    0.02889425
     atom    4 type  3   force =     0.00212828    0.00528926   -0.00294558
     atom    5 type  1   force =     0.01027519    0.00254275   -0.03066021
     atom    6 type  3   force =    -0.00387187   -0.00321560    0.00508781
     atom    7 type  3   force =    -0.00096996    0.00018099   -0.00153459
     atom    8 type  1   force =    -0.00174888   -0.00025238    0.00307065
     atom    9 type  3   force =    -0.00077822   -0.00012721   -0.00081813
     atom   10 type  1   force =    -0.00481735   -0.01389608   -0.00578560
     atom   11 type  1   force =    -0.01946476   -0.02597982    0.01032362
     atom   12 type  2   force =     0.02634831    0.04222592   -0.00480902
     atom   13 type  3   force =     0.00045333   -0.00122516    0.00331428
     atom   14 type  1   force =     0.00666538    0.00761782   -0.00168216
     atom   15 type  3   force =     0.00063069   -0.00045575   -0.00186418
     atom   16 type  1   force =    -0.00763269    0.01471361    0.01630306
     atom   17 type  1   force =     0.00227294   -0.01643703    0.00231112
     atom   18 type  2   force =    -0.00281527   -0.00407442   -0.00480888
     atom   19 type  3   force =     0.00114949   -0.00085845   -0.00145456
     atom   20 type  1   force =     0.00090517   -0.00396694   -0.00563988
     atom   21 type  3   force =    -0.00042683    0.00062171   -0.00022496
     atom   22 type  1   force =    -0.00559459   -0.00800395   -0.00497177
     atom   23 type  1   force =    -0.02151626   -0.00462174    0.01586692
     atom   24 type  2   force =     0.01823991    0.01568140   -0.00890642
     The non-local contrib.  to forces
     atom    1 type  2   force =    -0.31856523    0.23433010    0.00453281
     atom    2 type  1   force =     0.40934193   -0.30596462   -0.03427067
     atom    3 type  1   force =    -0.04623941   -0.06638618    0.00259624
     atom    4 type  3   force =    -0.06708377   -0.01378954   -0.03882511
     atom    5 type  1   force =    -0.01705052   -0.03210070   -0.08232100
     atom    6 type  3   force =    -0.00977281   -0.06792636   -0.03878964
     atom    7 type  3   force =     0.00235843   -0.06419195    0.04593013
     atom    8 type  1   force =     0.02850073   -0.05637295    0.04291551
     atom    9 type  3   force =     0.06206855   -0.01407685    0.04623426
     atom   10 type  1   force =     0.02899907   -0.06247447    0.04183416
     atom   11 type  1   force =    -0.39106795   -0.34637153    0.00512337
     atom   12 type  2   force =     0.27680543    0.28516004   -0.00384540
     atom   13 type  3   force =     0.00726570    0.06517681    0.04371595
     atom   14 type  1   force =     0.04369538    0.05451964    0.04616017
     atom   15 type  3   force =     0.06758386    0.01598892    0.03763192
     atom   16 type  1   force =     0.03993180    0.06050748    0.06508888
     atom   17 type  1   force =    -0.39505173    0.28720321    0.03775744
     atom   18 type  2   force =     0.29964745   -0.25890653   -0.03920911
     atom   19 type  3   force =    -0.00001657    0.06108988   -0.04943400
     atom   20 type  1   force =    -0.02759042    0.02589896   -0.05404842
     atom   21 type  3   force =    -0.06047144    0.01198619   -0.04948527
     atom   22 type  1   force =    -0.03983722    0.01704268   -0.07069563
     atom   23 type  1   force =     0.35807938    0.32749389    0.03326387
     atom   24 type  2   force =    -0.29285499   -0.26204760   -0.03468737
     The ionic contribution  to forces
     atom    1 type  2   force =     7.36014742   -4.15939204    1.14861203
     atom    2 type  1   force =     3.29445953   -1.94074865    0.74799900
     atom    3 type  1   force =     5.56051097    1.97316082    2.49320842
     atom    4 type  3   force =     2.34116740    0.65562649    1.29677708
     atom    5 type  1   force =     2.27486807    3.76174833    3.28159964
     atom    6 type  3   force =     0.75979881    1.91333083    1.36468344
     atom    7 type  3   force =    -0.52619911    1.87919538   -1.48799415
     atom    8 type  1   force =    -2.07018939    3.80399993   -3.14274858
     atom    9 type  3   force =    -2.24317637    0.52276753   -1.51498373
     atom   10 type  1   force =    -5.44696766    1.43005951   -3.30255070
     atom   11 type  1   force =    -3.71828503   -1.92238662   -1.03310615
     atom   12 type  2   force =    -6.66167123   -3.75929217   -1.31153939
     atom   13 type  3   force =    -0.14409288   -1.84548807   -1.18820909
     atom   14 type  1   force =    -0.29413072   -4.03414955   -1.88216011
     atom   15 type  3   force =    -1.95671927   -0.52520400   -1.08952295
     atom   16 type  1   force =    -3.46989238   -1.37352294   -2.22198496
     atom   17 type  1   force =    -1.41645307    1.55451621   -0.06692569
     atom   18 type  2   force =    -4.42943801    3.71128173    0.23681411
     atom   19 type  3   force =     0.01701572   -1.84568347    1.37745559
     atom   20 type  1   force =    -0.02630233   -3.85723949    2.28626022
     atom   21 type  3   force =     1.72976714   -0.51228921    1.37798429
     atom   22 type  1   force =     3.18665948   -1.51397810    2.63900185
     atom   23 type  1   force =     1.41232922    1.45483293   -0.35558696
     atom   24 type  2   force =     4.46679369    4.62885461    0.34691678
     The local contribution  to forces
     atom    1 type  2   force =    -7.07256787    3.94155293   -1.15714010
     atom    2 type  1   force =    -3.67745751    2.24181390   -0.71926506
     atom    3 type  1   force =    -5.51101188   -1.92261558   -2.46647690
     atom    4 type  3   force =    -2.27196248   -0.63656004   -1.26090477
     atom    5 type  1   force =    -2.24756231   -3.72601961   -3.22931352
     atom    6 type  3   force =    -0.75388118   -1.84860668   -1.32079718
     atom    7 type  3   force =     0.52287646   -1.81481169    1.44052796
     atom    8 type  1   force =     2.04023410   -3.74716953    3.10217783
     atom    9 type  3   force =     2.18031398   -0.50881591    1.46792205
     atom   10 type  1   force =     5.41188507   -1.38188325    3.25439304
     atom   11 type  1   force =     4.07929586    2.23340442    1.03813038
     atom   12 type  2   force =     6.42359567    3.52967382    1.31022696
     atom   13 type  3   force =     0.13729048    1.77909963    1.14781951
     atom   14 type  1   force =     0.25748857    3.98604852    1.83408123
     atom   15 type  3   force =     1.88975164    0.50874491    1.05001682
     atom   16 type  1   force =     3.42149393    1.32835681    2.17314772
     atom   17 type  1   force =     1.80368088   -1.85086810    0.03203043
     atom   18 type  2   force =     4.13877886   -3.46696587   -0.20411662
     atom   19 type  3   force =    -0.01583938    1.78374593   -1.32948003
     atom   20 type  1   force =     0.05458051    3.82610487   -2.23730531
     atom   21 type  3   force =    -1.66973953    0.50092507   -1.32873465
     atom   22 type  1   force =    -3.15142284    1.48863851   -2.57300645
     atom   23 type  1   force =    -1.78258947   -1.77915291    0.33838802
     atom   24 type  2   force =    -4.16675436   -4.36104984   -0.32282178
     The core correction contribution to forces
     atom    1 type  2   force =     0.01363374   -0.00992796   -0.00011973
     atom    2 type  1   force =    -0.01047885    0.00835258    0.00063851
     atom    3 type  1   force =    -0.00114973    0.00005801   -0.00043022
     atom    4 type  3   force =     0.00000000    0.00000000    0.00000000
     atom    5 type  1   force =     0.00016631   -0.00107741   -0.00056256
     atom    6 type  3   force =     0.00000000    0.00000000    0.00000000
     atom    7 type  3   force =     0.00000000    0.00000000    0.00000000
     atom    8 type  1   force =    -0.00024510   -0.00067938    0.00073559
     atom    9 type  3   force =     0.00000000    0.00000000    0.00000000
     atom   10 type  1   force =     0.00125534    0.00039035    0.00053675
     atom   11 type  1   force =     0.01063834    0.00932506    0.00021702
     atom   12 type  2   force =    -0.01242863   -0.01332467    0.00031432
     atom   13 type  3   force =     0.00000000    0.00000000    0.00000000
     atom   14 type  1   force =    -0.00029497    0.00113668    0.00026273
     atom   15 type  3   force =     0.00000000    0.00000000    0.00000000
     atom   16 type  1   force =     0.00084932   -0.00076891    0.00000362
     atom   17 type  1   force =     0.01010261   -0.00728246   -0.00054639
     atom   18 type  2   force =    -0.01196795    0.01063714    0.00164537
     atom   19 type  3   force =     0.00000000    0.00000000    0.00000000
     atom   20 type  1   force =     0.00030320    0.00127290   -0.00052087
     atom   21 type  3   force =     0.00000000    0.00000000    0.00000000
     atom   22 type  1   force =    -0.00098538    0.00024729   -0.00024679
     atom   23 type  1   force =    -0.00929773   -0.00784228   -0.00014700
     atom   24 type  2   force =     0.01104635    0.00992909    0.00169581
     The Hubbard contrib.    to forces
     atom    1 type  2   force =     0.00000000    0.00000000    0.00000000
     atom    2 type  1   force =     0.00000000    0.00000000    0.00000000
     atom    3 type  1   force =     0.00000000    0.00000000    0.00000000
     atom    4 type  3   force =     0.00000000    0.00000000    0.00000000
     atom    5 type  1   force =     0.00000000    0.00000000    0.00000000
     atom    6 type  3   force =     0.00000000    0.00000000    0.00000000
     atom    7 type  3   force =     0.00000000    0.00000000    0.00000000
     atom    8 type  1   force =     0.00000000    0.00000000    0.00000000
     atom    9 type  3   force =     0.00000000    0.00000000    0.00000000
     atom   10 type  1   force =     0.00000000    0.00000000    0.00000000
     atom   11 type  1   force =     0.00000000    0.00000000    0.00000000
     atom   12 type  2   force =     0.00000000    0.00000000    0.00000000
     atom   13 type  3   force =     0.00000000    0.00000000    0.00000000
     atom   14 type  1   force =     0.00000000    0.00000000    0.00000000
     atom   15 type  3   force =     0.00000000    0.00000000    0.00000000
     atom   16 type  1   force =     0.00000000    0.00000000    0.00000000
     atom   17 type  1   force =     0.00000000    0.00000000    0.00000000
     atom   18 type  2   force =     0.00000000    0.00000000    0.00000000
     atom   19 type  3   force =     0.00000000    0.00000000    0.00000000
     atom   20 type  1   force =     0.00000000    0.00000000    0.00000000
     atom   21 type  3   force =     0.00000000    0.00000000    0.00000000
     atom   22 type  1   force =     0.00000000    0.00000000    0.00000000
     atom   23 type  1   force =     0.00000000    0.00000000    0.00000000
     atom   24 type  2   force =     0.00000000    0.00000000    0.00000000
     The SCF correction term to forces
     atom    1 type  2   force =     0.00007837   -0.00011123   -0.00003611
     atom    2 type  1   force =    -0.00004492    0.00003447   -0.00001607
     atom    3 type  1   force =    -0.00008795    0.00008342   -0.00000310
     atom    4 type  3   force =     0.00000734    0.00001198    0.00000742
     atom    5 type  1   force =    -0.00014615   -0.00000822   -0.00006256
     atom    6 type  3   force =    -0.00001648   -0.00001375   -0.00000860
     atom    7 type  3   force =    -0.00000552   -0.00001111    0.00000166
     atom    8 type  1   force =    -0.00004899   -0.00003081   -0.00000949
     atom    9 type  3   force =     0.00001583   -0.00000234    0.00000949
     atom   10 type  1   force =     0.00001104    0.00001142    0.00000135
     atom   11 type  1   force =    -0.00004578    0.00004849   -0.00004080
     atom   12 type  2   force =     0.00004727    0.00000853    0.00003469
     atom   13 type  3   force =    -0.00000977   -0.00001390   -0.00001188
     atom   14 type  1   force =    -0.00009267    0.00006217   -0.00002599
     atom   15 type  3   force =     0.00001467    0.00001406    0.00001023
     atom   16 type  1   force =    -0.00001515    0.00014081    0.00004800
     atom   17 type  1   force =    -0.00000554   -0.00000626   -0.00000446
     atom   18 type  2   force =     0.00016459   -0.00012124    0.00005757
     atom   19 type  3   force =    -0.00001007   -0.00001116    0.00000409
     atom   20 type  1   force =    -0.00008558   -0.00000455   -0.00002529
     atom   21 type  3   force =     0.00001721   -0.00000071    0.00001087
     atom   22 type  1   force =    -0.00000843    0.00004532   -0.00002456
     atom   23 type  1   force =    -0.00003745    0.00004627   -0.00005081
     atom   24 type  2   force =     0.00000943   -0.00000522   -0.00000966

     Total force =     0.096745     Total SCF correction =     0.000421

     Writing output data file scf-1433.save
 writing file ./scratch/scf-1433.save/charge-density
 writing file ./scratch/scf-1433.save/charge-density
 writing file ./scratch/scf-1433.save/charge-density
 writing file ./scratch/scf-1433.save/charge-density
 writing file ./scratch/scf-1433.save/charge-density
 writing file ./scratch/scf-1433.save/charge-density
 writing file ./scratch/scf-1433.save/charge-density
 writing file ./scratch/scf-1433.save/charge-density
 writing file ./scratch/scf-1433.save/charge-density
 writing file ./scratch/scf-1433.save/charge-density
 writing file ./scratch/scf-1433.save/charge-density
 writing file ./scratch/scf-1433.save/charge-density
 writing file ./scratch/scf-1433.save/charge-density
 writing file ./scratch/scf-1433.save/charge-density
 writing file ./scratch/scf-1433.save/charge-density
 writing file ./scratch/scf-1433.save/charge-density
 writing file ./scratch/scf-1433.save/charge-density
 writing file ./scratch/scf-1433.save/charge-density
 writing file ./scratch/scf-1433.save/charge-density
 writing file ./scratch/scf-1433.save/charge-density
 writing file ./scratch/scf-1433.save/charge-density
 writing file ./scratch/scf-1433.save/charge-density
 writing file ./scratch/scf-1433.save/charge-density
 writing file ./scratch/scf-1433.save/charge-density
 writing file ./scratch/scf-1433.save/charge-density
 writing file ./scratch/scf-1433.save/charge-density
 writing file ./scratch/scf-1433.save/charge-density
 writing file ./scratch/scf-1433.save/charge-density
 writing file ./scratch/scf-1433.save/charge-density
 writing file ./scratch/scf-1433.save/charge-density
 writing file ./scratch/scf-1433.save/charge-density
 writing file ./scratch/scf-1433.save/charge-density
 
     init_run     :      4.36s CPU      4.63s WALL (       1 calls)
     electrons    :     50.33s CPU     53.03s WALL (       1 calls)
     forces       :      2.34s CPU      2.47s WALL (       1 calls)

     Called by init_run:
     wfcinit      :      1.60s CPU      1.66s WALL (       1 calls)
     wfcinit:atom :      0.02s CPU      0.02s WALL (      16 calls)
     wfcinit:wfcr :      1.49s CPU      1.54s WALL (      16 calls)
     potinit      :      0.88s CPU      0.91s WALL (       1 calls)

     Called by electrons:
     c_bands      :     39.16s CPU     39.40s WALL (      11 calls)
     sum_band     :      7.00s CPU      8.16s WALL (      11 calls)
     v_of_rho     :      0.92s CPU      0.97s WALL (      12 calls)
     v_h          :      0.06s CPU      0.06s WALL (      12 calls)
     v_xc         :      0.94s CPU      0.98s WALL (      13 calls)
     newd         :      1.55s CPU      2.87s WALL (      12 calls)
     PAW_pot      :      1.64s CPU      1.70s WALL (      12 calls)
     mix_rho      :      0.13s CPU      0.14s WALL (      11 calls)

     Called by c_bands:
     init_us_2    :      0.82s CPU      0.87s WALL (     384 calls)
     cegterg      :     36.87s CPU     37.02s WALL (     176 calls)

     Called by sum_band:
     sum_band:bec :      0.02s CPU      0.02s WALL (     176 calls)
     addusdens    :      1.55s CPU      2.67s WALL (      11 calls)

     Called by *egterg:
     h_psi        :     27.49s CPU     27.63s WALL (     861 calls)
     s_psi        :      2.06s CPU      2.05s WALL (     861 calls)
     g_psi        :      0.18s CPU      0.16s WALL (     669 calls)
     cdiaghg      :      3.35s CPU      3.45s WALL (     845 calls)
     cegterg:over :      1.68s CPU      1.63s WALL (     669 calls)
     cegterg:upda :      1.24s CPU      1.28s WALL (     669 calls)
     cegterg:last :      0.46s CPU      0.44s WALL (     192 calls)

     Called by h_psi:
     h_psi:pot    :     27.20s CPU     27.36s WALL (     861 calls)
     h_psi:calbec :      2.31s CPU      2.26s WALL (     861 calls)
     vloc_psi     :     22.92s CPU     23.10s WALL (     861 calls)
     add_vuspsi   :      1.96s CPU      1.99s WALL (     861 calls)

     General routines
     calbec       :      3.05s CPU      3.01s WALL (    1101 calls)
     fft          :      0.74s CPU      0.80s WALL (     199 calls)
     ffts         :      0.03s CPU      0.03s WALL (      23 calls)
     fftw         :     21.47s CPU     21.68s WALL (   55530 calls)
     interpolate  :      0.15s CPU      0.15s WALL (      23 calls)
     davcio       :      0.00s CPU      0.01s WALL (      16 calls)
 
     Parallel routines
     fft_scatter  :      7.64s CPU      7.75s WALL (   55752 calls)

     PAW routines
     PAW_pot      :      1.64s CPU      1.70s WALL (      12 calls)
 
     PWSCF        :  0m57.69s CPU     1m 1.47s WALL

 
   This run was terminated on:  16:10:52  22May2017            

=------------------------------------------------------------------------------=
   JOB DONE.
=------------------------------------------------------------------------------=
