
     Program PWSCF v.6.1 starts on 20May2017 at 15:44:54 

     This program is part of the open-source Quantum ESPRESSO suite
     for quantum simulation of materials; please cite
         "P. Giannozzi et al., J. Phys.:Condens. Matter 21 395502 (2009);
          URL http://www.quantum-espresso.org", 
     in publications or presentations arising from this work. More details at
     http://www.quantum-espresso.org/quote

     Parallel version (MPI & OpenMP), running on      32 processor cores
     Number of MPI processes:                32
     Threads/MPI process:                     1
     R & G space division:  proc/nbgrp/npool/nimage =      32
     Waiting for input...
     Reading input from standard input
Warning: card &IONS ignored
Warning: card     ION_TEMPERATURE   = 'INITIAL' ignored
Warning: card     TEMPW             = 586.D0 ignored
Warning: card     TOLP              = 100.D0 ignored
Warning: card     DELTA_T           = 1.D0 ignored
Warning: card     NRAISE            = 1 ignored
Warning: card / ignored
Warning: card &CELL ignored
Warning: card     CELL_DYNAMICS     = 'BFGS' ignored
Warning: card / ignored

     Current dimensions of program PWSCF are:
     Max number of different atomic species (ntypx) = 10
     Max number of k-points (npk) =  40000
     Max angular momentum in pseudopotentials (lmaxx) =  3
               file C.pbe-n-kjpaw_psl.1.0.0.UPF: wavefunction(s)  2S 2P renormalized
               file Cl.pbe-n-kjpaw_psl.1.0.0.UPF: wavefunction(s)  3S 3P renormalized
               file H.pbe-kjpaw_psl.1.0.0.UPF: wavefunction(s)  1S renormalized

     Subspace diagonalization in iterative solution of the eigenvalue problem:
     a serial algorithm will be used

 
     Parallelization info
     --------------------
     sticks:   dense  smooth     PW     G-vecs:    dense   smooth      PW
     Min         764     305     83                36108     9133    1292
     Max         765     306     84                36110     9135    1293
     Sum       24467    9791   2657              1155489   292295   41363
 


     bravais-lattice index     =            0
     lattice parameter (alat)  =       1.8897  a.u.
     unit-cell volume          =    2163.5316 (a.u.)^3
     number of atoms/cell      =           24
     number of atomic types    =            3
     number of electrons       =        84.00
     number of Kohn-Sham states=           42
     kinetic-energy cutoff     =     100.0000  Ry
     charge density cutoff     =    1000.0000  Ry
     convergence threshold     =      1.0E-07
     mixing beta               =       0.7000
     number of iterations used =            8  plain     mixing
     Exchange-correlation      =  SLA  PW   PBX  PBC ( 1  4  3  4 0 0)

     celldm(1)=   1.889726  celldm(2)=   0.000000  celldm(3)=   0.000000
     celldm(4)=   0.000000  celldm(5)=   0.000000  celldm(6)=   0.000000

     crystal axes: (cart. coord. in units of alat)
               a(1) = (  14.762000   0.000000   0.000000 )  
               a(2) = (   0.000000   5.832000   0.000000 )  
               a(3) = (  -1.563876   0.000000   3.723951 )  

     reciprocal axes: (cart. coord. in units 2 pi/alat)
               b(1) = (  0.067741  0.000000  0.028448 )  
               b(2) = (  0.000000  0.171468  0.000000 )  
               b(3) = (  0.000000  0.000000  0.268532 )  


     PseudoPot. # 1 for  C read from file:
     /global/cscratch1/sd/almno10/.data/PSEUDOPOTENTIALS/C.pbe-n-kjpaw_psl.1.0.0.UPF
     MD5 check sum: 2ba8448e293caca687844dde9a1b88a8
     Pseudo is Projector augmented-wave + core cor, Zval =  4.0
     Generated using "atomic" code by A. Dal Corso  v.5.3.0 svn rev. 11974
     Shape of augmentation charge: PSQ
     Using radial grid of 1073 points,  4 beta functions with: 
                l(1) =   0
                l(2) =   0
                l(3) =   1
                l(4) =   1
     Q(r) pseudized with 0 coefficients 


     PseudoPot. # 2 for Cl read from file:
     /global/cscratch1/sd/almno10/.data/PSEUDOPOTENTIALS/Cl.pbe-n-kjpaw_psl.1.0.0.UPF
     MD5 check sum: dca63699d6b897c5771335df08a09219
     Pseudo is Projector augmented-wave + core cor, Zval =  7.0
     Generated using "atomic" code by A. Dal Corso  v.5.3.0 svn rev. 11974
     Shape of augmentation charge: PSQ
     Using radial grid of 1157 points,  6 beta functions with: 
                l(1) =   0
                l(2) =   0
                l(3) =   1
                l(4) =   1
                l(5) =   2
                l(6) =   2
     Q(r) pseudized with 0 coefficients 


     PseudoPot. # 3 for  H read from file:
     /global/cscratch1/sd/almno10/.data/PSEUDOPOTENTIALS/H.pbe-kjpaw_psl.1.0.0.UPF
     MD5 check sum: bc0feb48a24907a0b97fa6ee2d589a29
     Pseudo is Projector augmented-wave, Zval =  1.0
     Generated using "atomic" code by A. Dal Corso  v.5.3.0 svn rev. 11974
     Shape of augmentation charge: PSQ
     Using radial grid of  929 points,  2 beta functions with: 
                l(1) =   0
                l(2) =   0
     Q(r) pseudized with 0 coefficients 


     atomic species   valence    mass     pseudopotential
        C              4.00    12.01100      C( 1.00)
        Cl             7.00    35.45270     Cl( 1.00)
        H              1.00     1.00790      H( 1.00)

     No symmetry found


                                    s                        frac. trans.

      isym =  1     identity                                     

 cryst.   s( 1) = (     1          0          0      )
                  (     0          1          0      )
                  (     0          0          1      )

 cart.    s( 1) = (  1.0000000  0.0000000 -0.0000000 )
                  (  0.0000000  1.0000000  0.0000000 )
                  (  0.0000000  0.0000000  1.0000000 )


   Cartesian axes

     site n.     atom                  positions (alat units)
         1           Cl  tau(   1) = (  16.5191765   1.2724226   1.8032827  )
         2           C   tau(   2) = (  15.0796749   2.4284223   1.7162265  )
         3           C   tau(   3) = (  15.1208120   3.6575418   2.3735159  )
         4           H   tau(   4) = (  15.9787272   3.9393853   2.9826968  )
         5           C   tau(   5) = (  13.9637159   4.4343992   2.3972673  )
         6           H   tau(   6) = (  13.9664425   5.3958917   2.9085316  )
         7           H   tau(   7) = (   6.5764388   1.6274655   0.4353005  )
         8           C   tau(   8) = (   6.5435834   0.7835624   1.1209007  )
         9           H   tau(   9) = (   4.5522764   0.1950455   0.5367261  )
        10           C   tau(  10) = (   5.4045073  -0.0208120   1.1789924  )
        11           C   tau(  11) = (   5.3995226  -1.0985484   2.0637876  )
        12           Cl  tau(  12) = (   4.1464341  -2.2368019   2.2065039  )
        13           H   tau(  13) = (  14.0163532   1.1540781   0.3341693  )
        14           C   tau(  14) = (  13.9884881   2.0657519   0.9271841  )
        15           H   tau(  15) = (  12.0242693   2.6285871   0.2428396  )
        16           C   tau(  16) = (  12.8762697   2.9037681   0.8603430  )
        17           C   tau(  17) = (  12.8652366   4.0669032   1.6207976  )
        18           Cl  tau(  18) = (  11.6003286   5.0923179   1.8386443  )
        19           H   tau(  19) = (   6.4816861  -2.2444024   3.5311492  )
        20           C   tau(  20) = (   6.5208430  -1.4080452   2.8344632  )
        21           H   tau(  21) = (   8.4953162  -0.7952432   3.4386131  )
        22           C   tau(  22) = (   7.6234705  -0.5563197   2.8341624  )
        23           C   tau(  23) = (   7.6397067   0.5083076   1.9360877  )
        24           Cl  tau(  24) = (   9.0507937   1.6062180   1.7758944  )

   Crystallographic axes

     site n.     atom                  positions (cryst. coord.)
         1           Cl  tau(   1) = (  1.1703337  0.2181795  0.4842391  )
         2           C   tau(   2) = (  1.0703431  0.4163962  0.4608617  )
         3           C   tau(   3) = (  1.0918284  0.6271505  0.6373649  )
         4           H   tau(   4) = (  1.1672749  0.6754776  0.8009494  )
         5           C   tau(   5) = (  1.0141207  0.7603565  0.6437429  )
         6           H   tau(   6) = (  1.0288499  0.9252215  0.7810337  )
         7           H   tau(   7) = (  0.4578813  0.2790579  0.1168921  )
         8           C   tau(   8) = (  0.4751596  0.1343557  0.3009977  )
         9           H   tau(   9) = (  0.3236469  0.0334440  0.1441281  )
        10           C   tau(  10) = (  0.3996495 -0.0035686  0.3165972  )
        11           C   tau(  11) = (  0.4244826 -0.1883656  0.5541930  )
        12           Cl  tau(  12) = (  0.3436565 -0.3835394  0.5925168  )
        13           H   tau(  13) = (  0.9589952  0.1978872  0.0897351  )
        14           C   tau(  14) = (  0.9739778  0.3542099  0.2489786  )
        15           H   tau(  15) = (  0.8214503  0.4507180  0.0652102  )
        16           C   tau(  16) = (  0.8967329  0.4979026  0.2310296  )
        17           C   tau(  17) = (  0.9176190  0.6973428  0.4352360  )
        18           Cl  tau(  18) = (  0.8381295  0.8731684  0.4937348  )
        19           H   tau(  19) = (  0.5395336 -0.3848427  0.9482264  )
        20           C   tau(  20) = (  0.5223667 -0.2414344  0.7611440  )
        21           H   tau(  21) = (  0.6733074 -0.1363586  0.9233775  )
        22           C   tau(  22) = (  0.5970518 -0.0953909  0.7610632  )
        23           C   tau(  23) = (  0.5726032  0.0871584  0.5199014  )
        24           Cl  tau(  24) = (  0.6636351  0.2754146  0.4768844  )

     number of k points=    16
                       cart. coord. in units 2pi/alat
        k(    1) = (   0.0169354   0.0214335   0.0406785), wk =   0.1250000
        k(    2) = (   0.0169354   0.0214335   0.1078115), wk =   0.1250000
        k(    3) = (   0.0169354   0.0214335  -0.0935875), wk =   0.1250000
        k(    4) = (   0.0169354   0.0214335  -0.0264545), wk =   0.1250000
        k(    5) = (   0.0169354   0.0643004   0.0406785), wk =   0.1250000
        k(    6) = (   0.0169354   0.0643004   0.1078115), wk =   0.1250000
        k(    7) = (   0.0169354   0.0643004  -0.0935875), wk =   0.1250000
        k(    8) = (   0.0169354   0.0643004  -0.0264545), wk =   0.1250000
        k(    9) = (  -0.0169354   0.0214335  -0.0406785), wk =   0.1250000
        k(   10) = (  -0.0169354   0.0214335  -0.1078115), wk =   0.1250000
        k(   11) = (  -0.0169354   0.0214335   0.0935875), wk =   0.1250000
        k(   12) = (  -0.0169354   0.0214335   0.0264545), wk =   0.1250000
        k(   13) = (  -0.0169354   0.0643004  -0.0406785), wk =   0.1250000
        k(   14) = (  -0.0169354   0.0643004  -0.1078115), wk =   0.1250000
        k(   15) = (  -0.0169354   0.0643004   0.0935875), wk =   0.1250000
        k(   16) = (  -0.0169354   0.0643004   0.0264545), wk =   0.1250000

                       cryst. coord.
        k(    1) = (   0.2500000   0.1250000   0.1250000), wk =   0.1250000
        k(    2) = (   0.2500000   0.1250000   0.3750000), wk =   0.1250000
        k(    3) = (   0.2500000   0.1250000  -0.3750000), wk =   0.1250000
        k(    4) = (   0.2500000   0.1250000  -0.1250000), wk =   0.1250000
        k(    5) = (   0.2500000   0.3750000   0.1250000), wk =   0.1250000
        k(    6) = (   0.2500000   0.3750000   0.3750000), wk =   0.1250000
        k(    7) = (   0.2500000   0.3750000  -0.3750000), wk =   0.1250000
        k(    8) = (   0.2500000   0.3750000  -0.1250000), wk =   0.1250000
        k(    9) = (  -0.2500000   0.1250000  -0.1250000), wk =   0.1250000
        k(   10) = (  -0.2500000   0.1250000  -0.3750000), wk =   0.1250000
        k(   11) = (  -0.2500000   0.1250000   0.3750000), wk =   0.1250000
        k(   12) = (  -0.2500000   0.1250000   0.1250000), wk =   0.1250000
        k(   13) = (  -0.2500000   0.3750000  -0.1250000), wk =   0.1250000
        k(   14) = (  -0.2500000   0.3750000  -0.3750000), wk =   0.1250000
        k(   15) = (  -0.2500000   0.3750000   0.3750000), wk =   0.1250000
        k(   16) = (  -0.2500000   0.3750000   0.1250000), wk =   0.1250000

     Dense  grid:  1155489 G-vectors     FFT dimensions: ( 288, 120,  80)

     Smooth grid:   292295 G-vectors     FFT dimensions: ( 180,  72,  50)

     Estimated max dynamical RAM per process >     147.21MB

     Estimated total allocated dynamical RAM >    4710.62MB

     Initial potential from superposition of free atoms

     starting charge   83.99939, renormalised to   84.00000
     Starting wfc are   72 randomized atomic wfcs
     Checking if some PAW data can be deallocated... 
       node    0, deallocated PAW data for type:  1
       node    0, deallocated PAW data for type:  3
       node    1, deallocated PAW data for type:  1
       node    1, deallocated PAW data for type:  3
       node    2, deallocated PAW data for type:  2
       node    2, deallocated PAW data for type:  3
       node    3, deallocated PAW data for type:  2
       node    3, deallocated PAW data for type:  3
       node    4, deallocated PAW data for type:  2
       node    4, deallocated PAW data for type:  3
       node    5, deallocated PAW data for type:  2
       node    5, deallocated PAW data for type:  3
       node    6, deallocated PAW data for type:  1
       node    6, deallocated PAW data for type:  2
       node    7, deallocated PAW data for type:  1
       node    7, deallocated PAW data for type:  2
       node    8, deallocated PAW data for type:  2
       node    8, deallocated PAW data for type:  3
       node    9, deallocated PAW data for type:  2
       node    9, deallocated PAW data for type:  3
       node   10, deallocated PAW data for type:  1
       node   10, deallocated PAW data for type:  2
       node   11, deallocated PAW data for type:  1
       node   11, deallocated PAW data for type:  2
       node   12, deallocated PAW data for type:  1
       node   12, deallocated PAW data for type:  2
       node   13, deallocated PAW data for type:  1
       node   13, deallocated PAW data for type:  2
       node   14, deallocated PAW data for type:  2
       node   14, deallocated PAW data for type:  3
       node   15, deallocated PAW data for type:  2
       node   15, deallocated PAW data for type:  3
       node   16, deallocated PAW data for type:  1
       node   16, deallocated PAW data for type:  2
       node   17, deallocated PAW data for type:  2
       node   17, deallocated PAW data for type:  3
       node   18, deallocated PAW data for type:  2
       node   18, deallocated PAW data for type:  3
       node   19, deallocated PAW data for type:  1
       node   19, deallocated PAW data for type:  3
       node   20, deallocated PAW data for type:  1
       node   20, deallocated PAW data for type:  2
       node   21, deallocated PAW data for type:  2
       node   21, deallocated PAW data for type:  3
       node   22, deallocated PAW data for type:  1
       node   22, deallocated PAW data for type:  2
       node   23, deallocated PAW data for type:  2
       node   23, deallocated PAW data for type:  3
       node   24, deallocated PAW data for type:  2
       node   24, deallocated PAW data for type:  3
       node   25, deallocated PAW data for type:  1
       node   25, deallocated PAW data for type:  3
       node   26, deallocated PAW data for type:  1
       node   26, deallocated PAW data for type:  2
       node   27, deallocated PAW data for type:  2
       node   27, deallocated PAW data for type:  3
       node   28, deallocated PAW data for type:  1
       node   28, deallocated PAW data for type:  2
       node   29, deallocated PAW data for type:  2
       node   29, deallocated PAW data for type:  3
       node   30, deallocated PAW data for type:  2
       node   30, deallocated PAW data for type:  3
       node   31, deallocated PAW data for type:  1
       node   31, deallocated PAW data for type:  3

     total cpu time spent up to now is        5.2 secs

     per-process dynamical memory:    20.7 Mb

     Self-consistent Calculation

     iteration #  1     ecut=   100.00 Ry     beta= 0.70
     Davidson diagonalization with overlap
     ethr =  1.00E-04,  avg # of iterations =  5.0

     total cpu time spent up to now is       12.0 secs

     total energy              =    -547.09729910 Ry
     Harris-Foulkes estimate   =    -548.98229573 Ry
     estimated scf accuracy    <       2.75382694 Ry

     iteration #  2     ecut=   100.00 Ry     beta= 0.70
     Davidson diagonalization with overlap
     ethr =  3.28E-03,  avg # of iterations =  3.0

     total cpu time spent up to now is       17.0 secs

     total energy              =    -547.49700707 Ry
     Harris-Foulkes estimate   =    -548.60577740 Ry
     estimated scf accuracy    <       2.00913803 Ry

     iteration #  3     ecut=   100.00 Ry     beta= 0.70
     Davidson diagonalization with overlap
     ethr =  2.39E-03,  avg # of iterations =  3.0

     total cpu time spent up to now is       21.4 secs

     total energy              =    -547.99657799 Ry
     Harris-Foulkes estimate   =    -548.03750799 Ry
     estimated scf accuracy    <       0.08296929 Ry

     iteration #  4     ecut=   100.00 Ry     beta= 0.70
     Davidson diagonalization with overlap
     ethr =  9.88E-05,  avg # of iterations =  4.0

     total cpu time spent up to now is       26.2 secs

     total energy              =    -548.02359891 Ry
     Harris-Foulkes estimate   =    -548.03372207 Ry
     estimated scf accuracy    <       0.02000469 Ry

     iteration #  5     ecut=   100.00 Ry     beta= 0.70
     Davidson diagonalization with overlap
     ethr =  2.38E-05,  avg # of iterations =  3.0

     total cpu time spent up to now is       30.7 secs

     total energy              =    -548.02769094 Ry
     Harris-Foulkes estimate   =    -548.02818062 Ry
     estimated scf accuracy    <       0.00100960 Ry

     iteration #  6     ecut=   100.00 Ry     beta= 0.70
     Davidson diagonalization with overlap
     ethr =  1.20E-06,  avg # of iterations =  4.0

     total cpu time spent up to now is       35.5 secs

     total energy              =    -548.02797793 Ry
     Harris-Foulkes estimate   =    -548.02811547 Ry
     estimated scf accuracy    <       0.00027828 Ry

     iteration #  7     ecut=   100.00 Ry     beta= 0.70
     Davidson diagonalization with overlap
     ethr =  3.31E-07,  avg # of iterations =  4.0

     total cpu time spent up to now is       40.2 secs

     total energy              =    -548.02804792 Ry
     Harris-Foulkes estimate   =    -548.02806359 Ry
     estimated scf accuracy    <       0.00003805 Ry

     iteration #  8     ecut=   100.00 Ry     beta= 0.70
     Davidson diagonalization with overlap
     ethr =  4.53E-08,  avg # of iterations =  4.0

     total cpu time spent up to now is       44.8 secs

     total energy              =    -548.02805658 Ry
     Harris-Foulkes estimate   =    -548.02805854 Ry
     estimated scf accuracy    <       0.00000416 Ry

     iteration #  9     ecut=   100.00 Ry     beta= 0.70
     Davidson diagonalization with overlap
     ethr =  4.95E-09,  avg # of iterations =  4.0

     total cpu time spent up to now is       49.6 secs

     total energy              =    -548.02805733 Ry
     Harris-Foulkes estimate   =    -548.02805865 Ry
     estimated scf accuracy    <       0.00000335 Ry

     iteration # 10     ecut=   100.00 Ry     beta= 0.70
     Davidson diagonalization with overlap
     ethr =  3.99E-09,  avg # of iterations =  4.0

     total cpu time spent up to now is       54.0 secs

     total energy              =    -548.02805795 Ry
     Harris-Foulkes estimate   =    -548.02805808 Ry
     estimated scf accuracy    <       0.00000032 Ry

     iteration # 11     ecut=   100.00 Ry     beta= 0.70
     Davidson diagonalization with overlap
     ethr =  3.77E-10,  avg # of iterations =  4.0

     total cpu time spent up to now is       58.6 secs

     End of self-consistent calculation

          k = 0.0169 0.0214 0.0407 ( 36525 PWs)   bands (ev):

   -16.5195 -16.1008 -15.3012 -15.2238 -13.9015 -13.8544 -12.3804 -12.2707
   -11.2605 -11.1737  -9.0258  -8.9188  -8.2241  -8.1348  -6.3833  -6.2200
    -5.3976  -5.2642  -5.0207  -4.8004  -4.2117  -4.1373  -4.0727  -3.8735
    -3.3745  -3.0878  -2.7181  -2.6576  -2.4324  -2.2983  -2.2395  -2.1618
    -1.1854  -1.0736  -1.0207  -0.9682  -0.8527  -0.7731  -0.0634  -0.0472
     0.5830   0.7260

     occupation numbers 
     1.0000   1.0000   1.0000   1.0000   1.0000   1.0000   1.0000   1.0000
     1.0000   1.0000   1.0000   1.0000   1.0000   1.0000   1.0000   1.0000
     1.0000   1.0000   1.0000   1.0000   1.0000   1.0000   1.0000   1.0000
     1.0000   1.0000   1.0000   1.0000   1.0000   1.0000   1.0000   1.0000
     1.0000   1.0000   1.0000   1.0000   1.0000   1.0000   1.0000   1.0000
     1.0000   1.0000

          k = 0.0169 0.0214 0.1078 ( 36561 PWs)   bands (ev):

   -16.4452 -15.9956 -15.2405 -15.1771 -13.8909 -13.8345 -12.3738 -12.2895
   -11.2688 -11.1887  -8.9850  -8.8791  -8.1984  -8.1346  -6.4272  -6.2642
    -5.3961  -5.2664  -5.0980  -4.9301  -4.3127  -4.1897  -4.0966  -4.0395
    -3.9177  -3.7113  -2.7728  -2.7248  -2.5375  -2.4782  -2.4285  -2.3033
    -1.2990  -1.1355  -1.0765  -0.9115  -0.8867  -0.7888  -0.2130  -0.0864
     0.6894   0.8801

     occupation numbers 
     1.0000   1.0000   1.0000   1.0000   1.0000   1.0000   1.0000   1.0000
     1.0000   1.0000   1.0000   1.0000   1.0000   1.0000   1.0000   1.0000
     1.0000   1.0000   1.0000   1.0000   1.0000   1.0000   1.0000   1.0000
     1.0000   1.0000   1.0000   1.0000   1.0000   1.0000   1.0000   1.0000
     1.0000   1.0000   1.0000   1.0000   1.0000   1.0000   1.0000   1.0000
     1.0000   1.0000

          k = 0.0169 0.0214-0.0936 ( 36547 PWs)   bands (ev):

   -16.4478 -15.9892 -15.2478 -15.1730 -13.8879 -13.8418 -12.3661 -12.2971
   -11.2659 -11.1852  -9.0142  -8.8497  -8.2338  -8.0855  -6.4062  -6.3040
    -5.3957  -5.2688  -5.0956  -4.9352  -4.2680  -4.1983  -4.1481  -4.0515
    -3.8463  -3.7746  -2.7250  -2.6574  -2.6110  -2.5286  -2.4236  -2.3281
    -1.2732  -1.1641  -1.0332  -0.9531  -0.8576  -0.7559  -0.2468  -0.0374
     0.7002   0.8612

     occupation numbers 
     1.0000   1.0000   1.0000   1.0000   1.0000   1.0000   1.0000   1.0000
     1.0000   1.0000   1.0000   1.0000   1.0000   1.0000   1.0000   1.0000
     1.0000   1.0000   1.0000   1.0000   1.0000   1.0000   1.0000   1.0000
     1.0000   1.0000   1.0000   1.0000   1.0000   1.0000   1.0000   1.0000
     1.0000   1.0000   1.0000   1.0000   1.0000   1.0000   1.0000   1.0000
     1.0000   1.0000

          k = 0.0169 0.0214-0.0265 ( 36551 PWs)   bands (ev):

   -16.5220 -16.0951 -15.3082 -15.2195 -13.8983 -13.8612 -12.3734 -12.2790
   -11.2610 -11.1658  -9.0600  -8.8878  -8.2684  -8.0679  -6.3982  -6.2219
    -5.4063  -5.2685  -5.0668  -4.7528  -4.2747  -4.0748  -4.0256  -3.9078
    -3.3577  -3.1326  -2.7551  -2.5915  -2.4450  -2.3458  -2.2415  -2.1610
    -1.1874  -1.0802  -1.0366  -0.8909  -0.8652  -0.7562  -0.0909  -0.0110
     0.6065   0.7060

     occupation numbers 
     1.0000   1.0000   1.0000   1.0000   1.0000   1.0000   1.0000   1.0000
     1.0000   1.0000   1.0000   1.0000   1.0000   1.0000   1.0000   1.0000
     1.0000   1.0000   1.0000   1.0000   1.0000   1.0000   1.0000   1.0000
     1.0000   1.0000   1.0000   1.0000   1.0000   1.0000   1.0000   1.0000
     1.0000   1.0000   1.0000   1.0000   1.0000   1.0000   1.0000   1.0000
     1.0000   1.0000

          k = 0.0169 0.0643 0.0407 ( 36518 PWs)   bands (ev):

   -16.5038 -16.0787 -15.3079 -15.2239 -13.9314 -13.8843 -12.4172 -12.2939
   -11.2661 -11.1669  -8.9447  -8.8677  -8.1341  -8.0686  -6.4099  -6.2748
    -5.3745  -5.2493  -5.1156  -4.9059  -4.3056  -4.2528  -4.0573  -3.9639
    -3.4323  -3.1713  -2.6086  -2.5770  -2.4451  -2.3461  -2.1753  -2.1123
    -1.0494  -0.9998  -0.9181  -0.8705  -0.8199  -0.7392  -0.0543  -0.0093
     0.6557   0.7480

     occupation numbers 
     1.0000   1.0000   1.0000   1.0000   1.0000   1.0000   1.0000   1.0000
     1.0000   1.0000   1.0000   1.0000   1.0000   1.0000   1.0000   1.0000
     1.0000   1.0000   1.0000   1.0000   1.0000   1.0000   1.0000   1.0000
     1.0000   1.0000   1.0000   1.0000   1.0000   1.0000   1.0000   1.0000
     1.0000   1.0000   1.0000   1.0000   1.0000   1.0000   1.0000   1.0000
     1.0000   1.0000

          k = 0.0169 0.0643 0.1078 ( 36558 PWs)   bands (ev):

   -16.4359 -15.9866 -15.2370 -15.1728 -13.8938 -13.8607 -12.3901 -12.2906
   -11.2800 -11.2098  -8.9619  -8.8905  -8.1909  -8.1565  -6.4071  -6.2621
    -5.3789  -5.2700  -5.0076  -4.8070  -4.2721  -4.2246  -4.1054  -4.0406
    -3.9739  -3.8492  -2.7668  -2.6702  -2.6461  -2.5030  -2.4315  -2.3078
    -1.2219  -1.0771  -1.0338  -0.9877  -0.9133  -0.7738  -0.0607   0.0787
     0.7117   0.8583

     occupation numbers 
     1.0000   1.0000   1.0000   1.0000   1.0000   1.0000   1.0000   1.0000
     1.0000   1.0000   1.0000   1.0000   1.0000   1.0000   1.0000   1.0000
     1.0000   1.0000   1.0000   1.0000   1.0000   1.0000   1.0000   1.0000
     1.0000   1.0000   1.0000   1.0000   1.0000   1.0000   1.0000   1.0000
     1.0000   1.0000   1.0000   1.0000   1.0000   1.0000   1.0000   1.0000
     1.0000   1.0000

          k = 0.0169 0.0643-0.0936 ( 36547 PWs)   bands (ev):

   -16.4386 -15.9802 -15.2448 -15.1679 -13.9019 -13.8570 -12.3824 -12.2983
   -11.2832 -11.2010  -8.9907  -8.8589  -8.2241  -8.1135  -6.3934  -6.3001
    -5.3870  -5.2690  -4.9347  -4.8518  -4.2863  -4.2233  -4.0932  -4.0021
    -3.9647  -3.9186  -2.8267  -2.6972  -2.5989  -2.5525  -2.3826  -2.3000
    -1.1918  -1.1115  -1.0163  -0.9580  -0.8964  -0.7847  -0.0936   0.1230
     0.7213   0.8445

     occupation numbers 
     1.0000   1.0000   1.0000   1.0000   1.0000   1.0000   1.0000   1.0000
     1.0000   1.0000   1.0000   1.0000   1.0000   1.0000   1.0000   1.0000
     1.0000   1.0000   1.0000   1.0000   1.0000   1.0000   1.0000   1.0000
     1.0000   1.0000   1.0000   1.0000   1.0000   1.0000   1.0000   1.0000
     1.0000   1.0000   1.0000   1.0000   1.0000   1.0000   1.0000   1.0000
     1.0000   1.0000

          k = 0.0169 0.0643-0.0265 ( 36489 PWs)   bands (ev):

   -16.5063 -16.0729 -15.3154 -15.2187 -13.9394 -13.8805 -12.4097 -12.3006
   -11.2712 -11.1579  -8.9755  -8.8335  -8.1713  -8.0140  -6.4134  -6.3147
    -5.3671  -5.2485  -5.0373  -4.9547  -4.3039  -4.2198  -4.0886  -4.0187
    -3.3979  -3.2063  -2.6215  -2.5673  -2.4204  -2.3460  -2.1860  -2.1222
    -1.1270  -0.9624  -0.9043  -0.8616  -0.8157  -0.6859  -0.0391  -0.0123
     0.6709   0.7312

     occupation numbers 
     1.0000   1.0000   1.0000   1.0000   1.0000   1.0000   1.0000   1.0000
     1.0000   1.0000   1.0000   1.0000   1.0000   1.0000   1.0000   1.0000
     1.0000   1.0000   1.0000   1.0000   1.0000   1.0000   1.0000   1.0000
     1.0000   1.0000   1.0000   1.0000   1.0000   1.0000   1.0000   1.0000
     1.0000   1.0000   1.0000   1.0000   1.0000   1.0000   1.0000   1.0000
     1.0000   1.0000

          k =-0.0169 0.0214-0.0407 ( 36525 PWs)   bands (ev):

   -16.5219 -16.0956 -15.3035 -15.2238 -13.9019 -13.8578 -12.3732 -12.2781
   -11.2644 -11.1640  -9.0563  -8.8866  -8.2548  -8.0924  -6.3648  -6.2527
    -5.4020  -5.2607  -4.9867  -4.8557  -4.2053  -4.1265  -4.0231  -3.9418
    -3.3449  -3.1358  -2.7328  -2.5993  -2.4397  -2.3384  -2.2454  -2.1567
    -1.1748  -1.0875  -1.0087  -0.9473  -0.8457  -0.7604  -0.0894  -0.0104
     0.5824   0.7260

     occupation numbers 
     1.0000   1.0000   1.0000   1.0000   1.0000   1.0000   1.0000   1.0000
     1.0000   1.0000   1.0000   1.0000   1.0000   1.0000   1.0000   1.0000
     1.0000   1.0000   1.0000   1.0000   1.0000   1.0000   1.0000   1.0000
     1.0000   1.0000   1.0000   1.0000   1.0000   1.0000   1.0000   1.0000
     1.0000   1.0000   1.0000   1.0000   1.0000   1.0000   1.0000   1.0000
     1.0000   1.0000

          k =-0.0169 0.0214-0.1078 ( 36561 PWs)   bands (ev):

   -16.4478 -15.9894 -15.2453 -15.1752 -13.8973 -13.8322 -12.3662 -12.2969
   -11.2720 -11.1794  -9.0142  -8.8495  -8.2301  -8.0904  -6.4135  -6.2911
    -5.4031  -5.2623  -5.0471  -5.0037  -4.3038  -4.1929  -4.0740  -4.0466
    -3.8667  -3.7755  -2.7801  -2.7159  -2.5648  -2.4752  -2.4202  -2.3147
    -1.3070  -1.1311  -1.0604  -0.9337  -0.8615  -0.7561  -0.2465  -0.0410
     0.6903   0.8728

     occupation numbers 
     1.0000   1.0000   1.0000   1.0000   1.0000   1.0000   1.0000   1.0000
     1.0000   1.0000   1.0000   1.0000   1.0000   1.0000   1.0000   1.0000
     1.0000   1.0000   1.0000   1.0000   1.0000   1.0000   1.0000   1.0000
     1.0000   1.0000   1.0000   1.0000   1.0000   1.0000   1.0000   1.0000
     1.0000   1.0000   1.0000   1.0000   1.0000   1.0000   1.0000   1.0000
     1.0000   1.0000

          k =-0.0169 0.0214 0.0936 ( 36547 PWs)   bands (ev):

   -16.4452 -15.9953 -15.2447 -15.1731 -13.8857 -13.8399 -12.3734 -12.2901
   -11.2638 -11.1931  -8.9840  -8.8809  -8.2049  -8.1266  -6.4285  -6.2662
    -5.3974  -5.2618  -5.1198  -4.8941  -4.2505  -4.2458  -4.1273  -4.0685
    -3.8895  -3.7129  -2.7188  -2.6503  -2.6295  -2.4976  -2.4187  -2.3294
    -1.2592  -1.1854  -1.0318  -0.9570  -0.8896  -0.7644  -0.2111  -0.0844
     0.6966   0.8703

     occupation numbers 
     1.0000   1.0000   1.0000   1.0000   1.0000   1.0000   1.0000   1.0000
     1.0000   1.0000   1.0000   1.0000   1.0000   1.0000   1.0000   1.0000
     1.0000   1.0000   1.0000   1.0000   1.0000   1.0000   1.0000   1.0000
     1.0000   1.0000   1.0000   1.0000   1.0000   1.0000   1.0000   1.0000
     1.0000   1.0000   1.0000   1.0000   1.0000   1.0000   1.0000   1.0000
     1.0000   1.0000

          k =-0.0169 0.0214 0.0265 ( 36551 PWs)   bands (ev):

   -16.5197 -16.1003 -15.3046 -15.2210 -13.8928 -13.8628 -12.3812 -12.2708
   -11.2578 -11.1748  -9.0341  -8.9141  -8.2523  -8.0969  -6.4161  -6.1881
    -5.4023  -5.2705  -5.0808  -4.7245  -4.2789  -4.1143  -4.0290  -3.8538
    -3.3734  -3.1042  -2.7695  -2.5939  -2.4578  -2.3155  -2.2278  -2.1674
    -1.1948  -1.1010  -1.0278  -0.9036  -0.8428  -0.7934  -0.0643  -0.0487
     0.6071   0.7048

     occupation numbers 
     1.0000   1.0000   1.0000   1.0000   1.0000   1.0000   1.0000   1.0000
     1.0000   1.0000   1.0000   1.0000   1.0000   1.0000   1.0000   1.0000
     1.0000   1.0000   1.0000   1.0000   1.0000   1.0000   1.0000   1.0000
     1.0000   1.0000   1.0000   1.0000   1.0000   1.0000   1.0000   1.0000
     1.0000   1.0000   1.0000   1.0000   1.0000   1.0000   1.0000   1.0000
     1.0000   1.0000

          k =-0.0169 0.0643-0.0407 ( 36518 PWs)   bands (ev):

   -16.5063 -16.0732 -15.3108 -15.2235 -13.9317 -13.8876 -12.4102 -12.3014
   -11.2702 -11.1568  -8.9736  -8.8370  -8.1723  -8.0189  -6.3968  -6.3016
    -5.3712  -5.2543  -5.0479  -4.9936  -4.3005  -4.2477  -4.0628  -3.9609
    -3.3941  -3.2120  -2.6571  -2.5568  -2.4467  -2.3439  -2.1637  -2.1276
    -1.0540  -0.9903  -0.8975  -0.8692  -0.8169  -0.7184  -0.0424  -0.0107
     0.6579   0.7458

     occupation numbers 
     1.0000   1.0000   1.0000   1.0000   1.0000   1.0000   1.0000   1.0000
     1.0000   1.0000   1.0000   1.0000   1.0000   1.0000   1.0000   1.0000
     1.0000   1.0000   1.0000   1.0000   1.0000   1.0000   1.0000   1.0000
     1.0000   1.0000   1.0000   1.0000   1.0000   1.0000   1.0000   1.0000
     1.0000   1.0000   1.0000   1.0000   1.0000   1.0000   1.0000   1.0000
     1.0000   1.0000

          k =-0.0169 0.0643-0.1078 ( 36558 PWs)   bands (ev):

   -16.4385 -15.9803 -15.2421 -15.1706 -13.9007 -13.8580 -12.3825 -12.2981
   -11.2843 -11.1997  -8.9911  -8.8593  -8.2215  -8.1169  -6.3905  -6.2964
    -5.3859  -5.2600  -4.9352  -4.8849  -4.2709  -4.2051  -4.0757  -4.0269
    -3.9733  -3.9340  -2.8215  -2.6558  -2.5826  -2.5096  -2.4160  -2.3541
    -1.2401  -1.0821  -1.0182  -0.9679  -0.8758  -0.7733  -0.0932   0.1223
     0.7103   0.8524

     occupation numbers 
     1.0000   1.0000   1.0000   1.0000   1.0000   1.0000   1.0000   1.0000
     1.0000   1.0000   1.0000   1.0000   1.0000   1.0000   1.0000   1.0000
     1.0000   1.0000   1.0000   1.0000   1.0000   1.0000   1.0000   1.0000
     1.0000   1.0000   1.0000   1.0000   1.0000   1.0000   1.0000   1.0000
     1.0000   1.0000   1.0000   1.0000   1.0000   1.0000   1.0000   1.0000
     1.0000   1.0000

          k =-0.0169 0.0643 0.0936 ( 36547 PWs)   bands (ev):

   -16.4359 -15.9864 -15.2414 -15.1683 -13.9010 -13.8537 -12.3896 -12.2913
   -11.2810 -11.2089  -8.9601  -8.8918  -8.1983  -8.1482  -6.4162  -6.2572
    -5.3878  -5.2707  -5.0017  -4.7809  -4.2877  -4.2342  -4.1300  -4.0252
    -3.9487  -3.8474  -2.7636  -2.6856  -2.6563  -2.5813  -2.3981  -2.2512
    -1.1706  -1.1169  -1.0561  -0.9891  -0.8742  -0.8052  -0.0615   0.0809
     0.7185   0.8526

     occupation numbers 
     1.0000   1.0000   1.0000   1.0000   1.0000   1.0000   1.0000   1.0000
     1.0000   1.0000   1.0000   1.0000   1.0000   1.0000   1.0000   1.0000
     1.0000   1.0000   1.0000   1.0000   1.0000   1.0000   1.0000   1.0000
     1.0000   1.0000   1.0000   1.0000   1.0000   1.0000   1.0000   1.0000
     1.0000   1.0000   1.0000   1.0000   1.0000   1.0000   1.0000   1.0000
     1.0000   1.0000

          k =-0.0169 0.0643 0.0265 ( 36489 PWs)   bands (ev):

   -16.5039 -16.0784 -15.3112 -15.2205 -13.9360 -13.8802 -12.4174 -12.2922
   -11.2683 -11.1670  -8.9518  -8.8584  -8.1404  -8.0572  -6.4338  -6.2784
    -5.3687  -5.2472  -5.0993  -4.8742  -4.3124  -4.1953  -4.1410  -3.9868
    -3.4252  -3.1743  -2.6353  -2.5198  -2.4258  -2.3474  -2.1669  -2.1427
    -1.1254  -0.9843  -0.9240  -0.8363  -0.8138  -0.7190  -0.0552  -0.0094
     0.6732   0.7290

     occupation numbers 
     1.0000   1.0000   1.0000   1.0000   1.0000   1.0000   1.0000   1.0000
     1.0000   1.0000   1.0000   1.0000   1.0000   1.0000   1.0000   1.0000
     1.0000   1.0000   1.0000   1.0000   1.0000   1.0000   1.0000   1.0000
     1.0000   1.0000   1.0000   1.0000   1.0000   1.0000   1.0000   1.0000
     1.0000   1.0000   1.0000   1.0000   1.0000   1.0000   1.0000   1.0000
     1.0000   1.0000

     highest occupied level (ev):     0.8801

!    total energy              =    -548.02805802 Ry
     Harris-Foulkes estimate   =    -548.02805805 Ry
     estimated scf accuracy    <       0.00000004 Ry

     total all-electron energy =     -4615.871546 Ry

     The total energy is the sum of the following terms:

     one-electron contribution =    -153.68740882 Ry
     hartree contribution      =     108.21263426 Ry
     xc contribution           =    -104.26855804 Ry
     ewald contribution        =    -142.49939426 Ry
     one-center paw contrib.   =    -255.78533116 Ry
      -> PAW hartree energy AE =      18.84957731 Ry
      -> PAW hartree energy PS =     -18.74541621 Ry
      -> PAW xc energy AE      =     -55.59685974 Ry
      -> PAW xc energy PS      =      10.05223897 Ry
      -> total E_H with PAW    =     108.31679535 Ry
      -> total E_XC with PAW   =    -149.81317881 Ry

     convergence has been achieved in  11 iterations
 writing file ./scratch/scf-2230.save/charge-density
 writing file ./scratch/scf-2230.save/charge-density
 writing file ./scratch/scf-2230.save/charge-density
 writing file ./scratch/scf-2230.save/charge-density
 writing file ./scratch/scf-2230.save/charge-density
 writing file ./scratch/scf-2230.save/charge-density
 writing file ./scratch/scf-2230.save/charge-density
 writing file ./scratch/scf-2230.save/charge-density
 writing file ./scratch/scf-2230.save/charge-density
 writing file ./scratch/scf-2230.save/charge-density
 writing file ./scratch/scf-2230.save/charge-density
 writing file ./scratch/scf-2230.save/charge-density
 writing file ./scratch/scf-2230.save/charge-density
 writing file ./scratch/scf-2230.save/charge-density
 writing file ./scratch/scf-2230.save/charge-density
 writing file ./scratch/scf-2230.save/charge-density
 writing file ./scratch/scf-2230.save/charge-density
 writing file ./scratch/scf-2230.save/charge-density
 writing file ./scratch/scf-2230.save/charge-density
 writing file ./scratch/scf-2230.save/charge-density
 writing file ./scratch/scf-2230.save/charge-density
 writing file ./scratch/scf-2230.save/charge-density
 writing file ./scratch/scf-2230.save/charge-density
 writing file ./scratch/scf-2230.save/charge-density
 writing file ./scratch/scf-2230.save/charge-density
 writing file ./scratch/scf-2230.save/charge-density
 writing file ./scratch/scf-2230.save/charge-density
 writing file ./scratch/scf-2230.save/charge-density
 writing file ./scratch/scf-2230.save/charge-density
 writing file ./scratch/scf-2230.save/charge-density
 writing file ./scratch/scf-2230.save/charge-density
 writing file ./scratch/scf-2230.save/charge-density

     Forces acting on atoms (cartesian axes, Ry/au):

     atom    1 type  2   force =    -0.05030346    0.04179824   -0.00368928
     atom    2 type  1   force =     0.03542466   -0.02376936   -0.01021318
     atom    3 type  1   force =     0.00066339   -0.02050103    0.02710286
     atom    4 type  3   force =     0.00183329    0.00021844   -0.00434725
     atom    5 type  1   force =     0.04489968   -0.00721308   -0.02489348
     atom    6 type  3   force =    -0.00030082   -0.00525055    0.00626887
     atom    7 type  3   force =    -0.00171750   -0.00022873   -0.00160731
     atom    8 type  1   force =    -0.00083565    0.00506287    0.00206728
     atom    9 type  3   force =    -0.00133899    0.00000883    0.00135965
     atom   10 type  1   force =    -0.00234337   -0.00118523    0.00650749
     atom   11 type  1   force =     0.04127622   -0.00583314   -0.00177387
     atom   12 type  2   force =    -0.04772333   -0.01374794   -0.01364322
     atom   13 type  3   force =    -0.00257318   -0.00220561    0.00244286
     atom   14 type  1   force =     0.01305631   -0.00433612   -0.00198920
     atom   15 type  3   force =    -0.00225721   -0.00103423   -0.00044258
     atom   16 type  1   force =    -0.00659533   -0.00418870    0.00121151
     atom   17 type  1   force =     0.07473522   -0.03447461    0.02602629
     atom   18 type  2   force =    -0.10718572    0.05634065   -0.01307299
     atom   19 type  3   force =     0.00406830   -0.00159461   -0.00381791
     atom   20 type  1   force =     0.00604995    0.02674192    0.01635712
     atom   21 type  3   force =    -0.00102434    0.00409369    0.00304407
     atom   22 type  1   force =     0.01937452   -0.00930785   -0.02018693
     atom   23 type  1   force =     0.00654078    0.02454704   -0.00448602
     atom   24 type  2   force =    -0.02372342   -0.02394089    0.01177523
     The non-local contrib.  to forces
     atom    1 type  2   force =    -0.30430522    0.24706550   -0.01455977
     atom    2 type  1   force =     0.43080017   -0.32317905   -0.00786124
     atom    3 type  1   force =    -0.02748986   -0.09886159   -0.00555334
     atom    4 type  3   force =    -0.06171673   -0.02029113   -0.04426559
     atom    5 type  1   force =     0.04553711   -0.03266590   -0.06523816
     atom    6 type  3   force =    -0.00114065   -0.06945823   -0.03655293
     atom    7 type  3   force =    -0.00205176   -0.06109798    0.04976002
     atom    8 type  1   force =     0.02023972   -0.03632930    0.04909285
     atom    9 type  3   force =     0.06118767   -0.01597234    0.04649616
     atom   10 type  1   force =     0.02199157   -0.03516755    0.06661147
     atom   11 type  1   force =    -0.33262632   -0.31516475    0.00927598
     atom   12 type  2   force =     0.27306485    0.28381591   -0.04193728
     atom   13 type  3   force =    -0.00191755    0.06562185    0.04316589
     atom   14 type  1   force =     0.03757223    0.03304490    0.04441429
     atom   15 type  3   force =     0.06149635    0.02030739    0.04489775
     atom   16 type  1   force =     0.03403781    0.04600878    0.04958541
     atom   17 type  1   force =    -0.33215133    0.25689091    0.06219860
     atom   18 type  2   force =     0.27401831   -0.25451145   -0.08084317
     atom   19 type  3   force =     0.00254736    0.05993545   -0.05061685
     atom   20 type  1   force =    -0.00971034    0.07604327   -0.00432886
     atom   21 type  3   force =    -0.06327574    0.01754292   -0.04396981
     atom   22 type  1   force =    -0.00516647    0.04125649   -0.09414160
     atom   23 type  1   force =     0.40731597    0.33833752   -0.02534634
     atom   24 type  2   force =    -0.30337361   -0.24397383    0.05128861
     The ionic contribution  to forces
     atom    1 type  2   force =     4.94925864   -3.81748913    0.73486113
     atom    2 type  1   force =     2.96521249   -2.07271105    0.75485275
     atom    3 type  1   force =     4.62690902    2.07037508    2.41553125
     atom    4 type  3   force =     1.93502965    0.78132551    1.37820268
     atom    5 type  1   force =     1.30091929    3.75677546    2.84710904
     atom    6 type  3   force =     0.34572597    2.04227074    1.25931643
     atom    7 type  3   force =    -0.24083115    1.87391467   -1.44496071
     atom    8 type  1   force =    -1.11509531    3.96431627   -2.66802149
     atom    9 type  3   force =    -2.10363070    0.59757370   -1.44478000
     atom   10 type  1   force =    -4.64753362    1.71192093   -3.00731582
     atom   11 type  1   force =    -2.71891946   -1.05973639   -0.52721130
     atom   12 type  2   force =    -6.19773236   -4.49980315   -0.68361332
     atom   13 type  3   force =    -0.08302594   -1.90446270   -1.27447106
     atom   14 type  1   force =    -0.56043298   -4.15142991   -2.21039999
     atom   15 type  3   force =    -1.98164490   -0.71238627   -1.34913147
     atom   16 type  1   force =    -4.06527102   -1.98012768   -2.91849804
     atom   17 type  1   force =    -1.90641543    0.88790748   -0.92609744
     atom   18 type  2   force =    -6.26156666    4.46948205    0.10341069
     atom   19 type  3   force =     0.24621077   -1.88691161    1.48101168
     atom   20 type  1   force =     1.25549458   -4.20327932    2.31426868
     atom   21 type  3   force =     1.93916000   -0.70998579    1.23854874
     atom   22 type  1   force =     4.12327954   -1.46723773    3.02144151
     atom   23 type  1   force =     2.66135655    1.83843493    0.44114552
     atom   24 type  2   force =     5.53354305    4.47126393    0.46480054
     The local contribution  to forces
     atom    1 type  2   force =    -4.70996544    3.62422168   -0.72467775
     atom    2 type  1   force =    -3.34889517    2.36307040   -0.75680577
     atom    3 type  1   force =    -4.59713384   -1.99259745   -2.38238916
     atom    4 type  3   force =    -1.87147350   -0.76081765   -1.33828245
     atom    5 type  1   force =    -1.30080854   -3.73035582   -2.80605236
     atom    6 type  3   force =    -0.34488498   -1.97805878   -1.21649527
     atom    7 type  3   force =     0.24113948   -1.81304355    1.39358313
     atom    8 type  1   force =     1.09390878   -3.92196345    2.62030239
     atom    9 type  3   force =     2.04111688   -0.58159736    1.39965434
     atom   10 type  1   force =     4.62171566   -1.67791865    2.94694037
     atom   11 type  1   force =     3.08386757    1.36214884    0.51641749
     atom   12 type  2   force =     5.88605317    4.21287014    0.71001735
     atom   13 type  3   force =     0.08237723    1.83664892    1.23375542
     atom   14 type  1   force =     0.53630416    4.11276400    2.16370228
     atom   15 type  3   force =     1.91791950    0.69104842    1.30380425
     atom   16 type  1   force =     4.02369557    1.92998175    2.86946492
     atom   17 type  1   force =     2.30547774   -1.17376122    0.89030405
     atom   18 type  2   force =     5.88740741   -4.16627607   -0.03881606
     atom   19 type  3   force =    -0.24469828    1.82537589   -1.43421502
     atom   20 type  1   force =    -1.23955553    4.15313255   -2.29274144
     atom   21 type  3   force =    -1.87688568    0.69652637   -1.19152260
     atom   22 type  1   force =    -4.09733856    1.41707134   -2.94717430
     atom   23 type  1   force =    -3.05102973   -2.14357860   -0.42092859
     atom   24 type  2   force =    -5.26715050   -4.26204626   -0.50170122
     The core correction contribution to forces
     atom    1 type  2   force =     0.01464354   -0.01194694    0.00068428
     atom    2 type  1   force =    -0.01171896    0.00903268   -0.00041651
     atom    3 type  1   force =    -0.00163094    0.00053042   -0.00051102
     atom    4 type  3   force =     0.00000000    0.00000000    0.00000000
     atom    5 type  1   force =    -0.00076591   -0.00097957   -0.00072142
     atom    6 type  3   force =     0.00000000    0.00000000    0.00000000
     atom    7 type  3   force =     0.00000000    0.00000000    0.00000000
     atom    8 type  1   force =    -0.00010876   -0.00095422    0.00059455
     atom    9 type  3   force =     0.00000000    0.00000000    0.00000000
     atom   10 type  1   force =     0.00137654   -0.00002904    0.00023024
     atom   11 type  1   force =     0.00883441    0.00694310   -0.00033720
     atom   12 type  2   force =    -0.00913485   -0.01056534    0.00183102
     atom   13 type  3   force =     0.00000000    0.00000000    0.00000000
     atom   14 type  1   force =    -0.00038304    0.00132534    0.00031829
     atom   15 type  3   force =     0.00000000    0.00000000    0.00000000
     atom   16 type  1   force =     0.00099606   -0.00007015    0.00067685
     atom   17 type  1   force =     0.00785058   -0.00556448   -0.00038954
     atom   18 type  2   force =    -0.00689753    0.00759535    0.00320649
     atom   19 type  3   force =     0.00000000    0.00000000    0.00000000
     atom   20 type  1   force =    -0.00027709    0.00078991   -0.00087001
     atom   21 type  3   force =     0.00000000    0.00000000    0.00000000
     atom   22 type  1   force =    -0.00137803   -0.00048530   -0.00025275
     atom   23 type  1   force =    -0.01114505   -0.00862880    0.00062587
     atom   24 type  2   force =     0.01351502    0.01098055   -0.00255706
     The Hubbard contrib.    to forces
     atom    1 type  2   force =     0.00000000    0.00000000    0.00000000
     atom    2 type  1   force =     0.00000000    0.00000000    0.00000000
     atom    3 type  1   force =     0.00000000    0.00000000    0.00000000
     atom    4 type  3   force =     0.00000000    0.00000000    0.00000000
     atom    5 type  1   force =     0.00000000    0.00000000    0.00000000
     atom    6 type  3   force =     0.00000000    0.00000000    0.00000000
     atom    7 type  3   force =     0.00000000    0.00000000    0.00000000
     atom    8 type  1   force =     0.00000000    0.00000000    0.00000000
     atom    9 type  3   force =     0.00000000    0.00000000    0.00000000
     atom   10 type  1   force =     0.00000000    0.00000000    0.00000000
     atom   11 type  1   force =     0.00000000    0.00000000    0.00000000
     atom   12 type  2   force =     0.00000000    0.00000000    0.00000000
     atom   13 type  3   force =     0.00000000    0.00000000    0.00000000
     atom   14 type  1   force =     0.00000000    0.00000000    0.00000000
     atom   15 type  3   force =     0.00000000    0.00000000    0.00000000
     atom   16 type  1   force =     0.00000000    0.00000000    0.00000000
     atom   17 type  1   force =     0.00000000    0.00000000    0.00000000
     atom   18 type  2   force =     0.00000000    0.00000000    0.00000000
     atom   19 type  3   force =     0.00000000    0.00000000    0.00000000
     atom   20 type  1   force =     0.00000000    0.00000000    0.00000000
     atom   21 type  3   force =     0.00000000    0.00000000    0.00000000
     atom   22 type  1   force =     0.00000000    0.00000000    0.00000000
     atom   23 type  1   force =     0.00000000    0.00000000    0.00000000
     atom   24 type  2   force =     0.00000000    0.00000000    0.00000000
     The SCF correction term to forces
     atom    1 type  2   force =     0.00006777   -0.00005146    0.00000288
     atom    2 type  1   force =     0.00002887    0.00001907    0.00001766
     atom    3 type  1   force =     0.00001176    0.00005393    0.00002519
     atom    4 type  3   force =    -0.00000339    0.00000312   -0.00000183
     atom    5 type  1   force =     0.00002049    0.00001417    0.00000947
     atom    6 type  3   force =     0.00000159   -0.00000286    0.00000069
     atom    7 type  3   force =     0.00002869   -0.00000044    0.00001031
     atom    8 type  1   force =     0.00022268   -0.00000501    0.00009904
     atom    9 type  3   force =    -0.00001009    0.00000623   -0.00001079
     atom   10 type  1   force =     0.00010923    0.00001048    0.00004129
     atom   11 type  1   force =     0.00012277   -0.00002253    0.00008122
     atom   12 type  2   force =     0.00002863   -0.00006409    0.00005907
     atom   13 type  3   force =    -0.00000416   -0.00001227   -0.00000734
     atom   14 type  1   force =    -0.00000131   -0.00003904   -0.00002402
     atom   15 type  3   force =    -0.00002542   -0.00000236   -0.00001306
     atom   16 type  1   force =    -0.00005099    0.00002002   -0.00001757
     atom   17 type  1   force =    -0.00002359    0.00005411    0.00001068
     atom   18 type  2   force =    -0.00014450    0.00005218   -0.00003089
     atom   19 type  3   force =     0.00001120    0.00000706    0.00000234
     atom   20 type  1   force =     0.00010108    0.00005693    0.00002881
     atom   21 type  3   force =    -0.00002017    0.00001160   -0.00001220
     atom   22 type  1   force =    -0.00001921    0.00008876   -0.00005973
     atom   23 type  1   force =     0.00004579   -0.00001660    0.00001757
     atom   24 type  2   force =    -0.00025463   -0.00016388   -0.00005558

     Total force =     0.202693     Total SCF correction =     0.000526

     Writing output data file scf-2230.save
 writing file ./scratch/scf-2230.save/charge-density
 writing file ./scratch/scf-2230.save/charge-density
 writing file ./scratch/scf-2230.save/charge-density
 writing file ./scratch/scf-2230.save/charge-density
 writing file ./scratch/scf-2230.save/charge-density
 writing file ./scratch/scf-2230.save/charge-density
 writing file ./scratch/scf-2230.save/charge-density
 writing file ./scratch/scf-2230.save/charge-density
 writing file ./scratch/scf-2230.save/charge-density
 writing file ./scratch/scf-2230.save/charge-density
 writing file ./scratch/scf-2230.save/charge-density
 writing file ./scratch/scf-2230.save/charge-density
 writing file ./scratch/scf-2230.save/charge-density
 writing file ./scratch/scf-2230.save/charge-density
 writing file ./scratch/scf-2230.save/charge-density
 writing file ./scratch/scf-2230.save/charge-density
 writing file ./scratch/scf-2230.save/charge-density
 writing file ./scratch/scf-2230.save/charge-density
 writing file ./scratch/scf-2230.save/charge-density
 writing file ./scratch/scf-2230.save/charge-density
 writing file ./scratch/scf-2230.save/charge-density
 writing file ./scratch/scf-2230.save/charge-density
 writing file ./scratch/scf-2230.save/charge-density
 writing file ./scratch/scf-2230.save/charge-density
 writing file ./scratch/scf-2230.save/charge-density
 writing file ./scratch/scf-2230.save/charge-density
 writing file ./scratch/scf-2230.save/charge-density
 writing file ./scratch/scf-2230.save/charge-density
 writing file ./scratch/scf-2230.save/charge-density
 writing file ./scratch/scf-2230.save/charge-density
 writing file ./scratch/scf-2230.save/charge-density
 writing file ./scratch/scf-2230.save/charge-density
 
     init_run     :      4.38s CPU      4.61s WALL (       1 calls)
     electrons    :     50.76s CPU     53.53s WALL (       1 calls)
     forces       :      2.33s CPU      2.48s WALL (       1 calls)

     Called by init_run:
     wfcinit      :      1.64s CPU      1.65s WALL (       1 calls)
     wfcinit:atom :      0.02s CPU      0.02s WALL (      16 calls)
     wfcinit:wfcr :      1.53s CPU      1.53s WALL (      16 calls)
     potinit      :      0.87s CPU      0.91s WALL (       1 calls)

     Called by electrons:
     c_bands      :     39.73s CPU     39.99s WALL (      11 calls)
     sum_band     :      6.91s CPU      8.09s WALL (      11 calls)
     v_of_rho     :      0.90s CPU      0.97s WALL (      12 calls)
     v_h          :      0.05s CPU      0.06s WALL (      12 calls)
     v_xc         :      0.91s CPU      0.98s WALL (      13 calls)
     newd         :      1.56s CPU      2.87s WALL (      12 calls)
     PAW_pot      :      1.64s CPU      1.68s WALL (      12 calls)
     mix_rho      :      0.15s CPU      0.14s WALL (      11 calls)

     Called by c_bands:
     init_us_2    :      0.82s CPU      0.87s WALL (     384 calls)
     cegterg      :     37.45s CPU     37.61s WALL (     176 calls)

     Called by sum_band:
     sum_band:bec :      0.01s CPU      0.02s WALL (     176 calls)
     addusdens    :      1.56s CPU      2.70s WALL (      11 calls)

     Called by *egterg:
     h_psi        :     27.88s CPU     28.03s WALL (     864 calls)
     s_psi        :      2.13s CPU      2.08s WALL (     864 calls)
     g_psi        :      0.19s CPU      0.16s WALL (     672 calls)
     cdiaghg      :      3.55s CPU      3.53s WALL (     848 calls)
     cegterg:over :      1.64s CPU      1.66s WALL (     672 calls)
     cegterg:upda :      1.28s CPU      1.31s WALL (     672 calls)
     cegterg:last :      0.41s CPU      0.44s WALL (     192 calls)

     Called by h_psi:
     h_psi:pot    :     27.60s CPU     27.75s WALL (     864 calls)
     h_psi:calbec :      2.25s CPU      2.27s WALL (     864 calls)
     vloc_psi     :     23.36s CPU     23.48s WALL (     864 calls)
     add_vuspsi   :      1.98s CPU      2.00s WALL (     864 calls)

     General routines
     calbec       :      3.07s CPU      3.02s WALL (    1104 calls)
     fft          :      0.72s CPU      0.77s WALL (     199 calls)
     ffts         :      0.02s CPU      0.03s WALL (      23 calls)
     fftw         :     21.99s CPU     22.13s WALL (   55936 calls)
     interpolate  :      0.14s CPU      0.15s WALL (      23 calls)
     davcio       :      0.00s CPU      0.01s WALL (      16 calls)
 
     Parallel routines
     fft_scatter  :      8.11s CPU      8.22s WALL (   56158 calls)

     PAW routines
     PAW_pot      :      1.64s CPU      1.68s WALL (      12 calls)
 
     PWSCF        :  0m58.16s CPU     1m 1.80s WALL

 
   This run was terminated on:  15:45:56  20May2017            

=------------------------------------------------------------------------------=
   JOB DONE.
=------------------------------------------------------------------------------=
