
     Program PWSCF v.6.1 starts on 20May2017 at 17: 4:27 

     This program is part of the open-source Quantum ESPRESSO suite
     for quantum simulation of materials; please cite
         "P. Giannozzi et al., J. Phys.:Condens. Matter 21 395502 (2009);
          URL http://www.quantum-espresso.org", 
     in publications or presentations arising from this work. More details at
     http://www.quantum-espresso.org/quote

     Parallel version (MPI & OpenMP), running on      32 processor cores
     Number of MPI processes:                32
     Threads/MPI process:                     1
     R & G space division:  proc/nbgrp/npool/nimage =      32
     Waiting for input...
     Reading input from standard input
Warning: card &IONS ignored
Warning: card     ION_TEMPERATURE   = 'INITIAL' ignored
Warning: card     TEMPW             = 586.D0 ignored
Warning: card     TOLP              = 100.D0 ignored
Warning: card     DELTA_T           = 1.D0 ignored
Warning: card     NRAISE            = 1 ignored
Warning: card / ignored
Warning: card &CELL ignored
Warning: card     CELL_DYNAMICS     = 'BFGS' ignored
Warning: card / ignored

     Current dimensions of program PWSCF are:
     Max number of different atomic species (ntypx) = 10
     Max number of k-points (npk) =  40000
     Max angular momentum in pseudopotentials (lmaxx) =  3
               file C.pbe-n-kjpaw_psl.1.0.0.UPF: wavefunction(s)  2S 2P renormalized
               file Cl.pbe-n-kjpaw_psl.1.0.0.UPF: wavefunction(s)  3S 3P renormalized
               file H.pbe-kjpaw_psl.1.0.0.UPF: wavefunction(s)  1S renormalized

     Subspace diagonalization in iterative solution of the eigenvalue problem:
     a serial algorithm will be used

 
     Parallelization info
     --------------------
     sticks:   dense  smooth     PW     G-vecs:    dense   smooth      PW
     Min         764     305     83                36108     9133    1292
     Max         765     306     84                36110     9135    1293
     Sum       24467    9791   2657              1155489   292295   41363
 


     bravais-lattice index     =            0
     lattice parameter (alat)  =       1.8897  a.u.
     unit-cell volume          =    2163.5316 (a.u.)^3
     number of atoms/cell      =           24
     number of atomic types    =            3
     number of electrons       =        84.00
     number of Kohn-Sham states=           42
     kinetic-energy cutoff     =     100.0000  Ry
     charge density cutoff     =    1000.0000  Ry
     convergence threshold     =      1.0E-07
     mixing beta               =       0.7000
     number of iterations used =            8  plain     mixing
     Exchange-correlation      =  SLA  PW   PBX  PBC ( 1  4  3  4 0 0)

     celldm(1)=   1.889726  celldm(2)=   0.000000  celldm(3)=   0.000000
     celldm(4)=   0.000000  celldm(5)=   0.000000  celldm(6)=   0.000000

     crystal axes: (cart. coord. in units of alat)
               a(1) = (  14.762000   0.000000   0.000000 )  
               a(2) = (   0.000000   5.832000   0.000000 )  
               a(3) = (  -1.563876   0.000000   3.723951 )  

     reciprocal axes: (cart. coord. in units 2 pi/alat)
               b(1) = (  0.067741  0.000000  0.028448 )  
               b(2) = (  0.000000  0.171468  0.000000 )  
               b(3) = (  0.000000  0.000000  0.268532 )  


     PseudoPot. # 1 for  C read from file:
     /global/cscratch1/sd/almno10/.data/PSEUDOPOTENTIALS/C.pbe-n-kjpaw_psl.1.0.0.UPF
     MD5 check sum: 2ba8448e293caca687844dde9a1b88a8
     Pseudo is Projector augmented-wave + core cor, Zval =  4.0
     Generated using "atomic" code by A. Dal Corso  v.5.3.0 svn rev. 11974
     Shape of augmentation charge: PSQ
     Using radial grid of 1073 points,  4 beta functions with: 
                l(1) =   0
                l(2) =   0
                l(3) =   1
                l(4) =   1
     Q(r) pseudized with 0 coefficients 


     PseudoPot. # 2 for Cl read from file:
     /global/cscratch1/sd/almno10/.data/PSEUDOPOTENTIALS/Cl.pbe-n-kjpaw_psl.1.0.0.UPF
     MD5 check sum: dca63699d6b897c5771335df08a09219
     Pseudo is Projector augmented-wave + core cor, Zval =  7.0
     Generated using "atomic" code by A. Dal Corso  v.5.3.0 svn rev. 11974
     Shape of augmentation charge: PSQ
     Using radial grid of 1157 points,  6 beta functions with: 
                l(1) =   0
                l(2) =   0
                l(3) =   1
                l(4) =   1
                l(5) =   2
                l(6) =   2
     Q(r) pseudized with 0 coefficients 


     PseudoPot. # 3 for  H read from file:
     /global/cscratch1/sd/almno10/.data/PSEUDOPOTENTIALS/H.pbe-kjpaw_psl.1.0.0.UPF
     MD5 check sum: bc0feb48a24907a0b97fa6ee2d589a29
     Pseudo is Projector augmented-wave, Zval =  1.0
     Generated using "atomic" code by A. Dal Corso  v.5.3.0 svn rev. 11974
     Shape of augmentation charge: PSQ
     Using radial grid of  929 points,  2 beta functions with: 
                l(1) =   0
                l(2) =   0
     Q(r) pseudized with 0 coefficients 


     atomic species   valence    mass     pseudopotential
        C              4.00    12.01100      C( 1.00)
        Cl             7.00    35.45270     Cl( 1.00)
        H              1.00     1.00790      H( 1.00)

     No symmetry found


                                    s                        frac. trans.

      isym =  1     identity                                     

 cryst.   s( 1) = (     1          0          0      )
                  (     0          1          0      )
                  (     0          0          1      )

 cart.    s( 1) = (  1.0000000  0.0000000 -0.0000000 )
                  (  0.0000000  1.0000000  0.0000000 )
                  (  0.0000000  0.0000000  1.0000000 )


   Cartesian axes

     site n.     atom                  positions (alat units)
         1           Cl  tau(   1) = (  16.4964538   0.9008696   1.6821088  )
         2           C   tau(   2) = (  15.0902426   2.0079976   1.7110926  )
         3           C   tau(   3) = (  15.1762925   3.2054747   2.4198408  )
         4           H   tau(   4) = (  16.1086750   3.4850140   2.9074026  )
         5           C   tau(   5) = (  14.0516669   4.0176468   2.5491973  )
         6           H   tau(   6) = (  14.1174920   4.9496867   3.1074311  )
         7           H   tau(   7) = (   6.3917472   2.4440797   0.9418216  )
         8           C   tau(   8) = (   6.4763360   1.4321655   1.3331901  )
         9           H   tau(   9) = (   4.3667326   1.0193828   1.1483589  )
        10           C   tau(  10) = (   5.3298272   0.6541116   1.5022094  )
        11           C   tau(  11) = (   5.4608171  -0.6423903   1.9980169  )
        12           Cl  tau(  12) = (   4.1881362  -1.7552427   1.9698388  )
        13           H   tau(  13) = (  13.8360949   0.6511639   0.5929996  )
        14           C   tau(  14) = (  13.8807798   1.5709887   1.1732110  )
        15           H   tau(  15) = (  11.8413563   2.1297186   0.7536862  )
        16           C   tau(  16) = (  12.7949114   2.4459912   1.1724755  )
        17           C   tau(  17) = (  12.8692793   3.6321855   1.9193696  )
        18           Cl  tau(  18) = (  11.3880310   4.5705622   2.0379178  )
        19           H   tau(  19) = (   6.7658247  -2.1120672   2.9019981  )
        20           C   tau(  20) = (   6.6877119  -1.1215122   2.4563944  )
        21           H   tau(  21) = (   8.7812735  -0.6799099   2.7094209  )
        22           C   tau(  22) = (   7.8206894  -0.3169101   2.3502818  )
        23           C   tau(  23) = (   7.7044829   0.9510938   1.7846976  )
        24           Cl  tau(  24) = (   9.1333000   1.9939953   1.7443812  )

   Crystallographic axes

     site n.     atom                  positions (cryst. coord.)
         1           Cl  tau(   1) = (  1.1653473  0.1544701  0.4517000  )
         2           C   tau(   2) = (  1.0709129  0.3443069  0.4594831  )
         3           C   tau(   3) = (  1.0969046  0.5496356  0.6498046  )
         4           H   tau(   4) = (  1.1739358  0.5975676  0.7807305  )
         5           C   tau(   5) = (  1.0244007  0.6888969  0.6845410  )
         6           H   tau(   6) = (  1.0447405  0.8487117  0.8344446  )
         7           H   tau(   7) = (  0.4597796  0.4190809  0.2529092  )
         8           C   tau(   8) = (  0.4766434  0.2455702  0.3580042  )
         9           H   tau(   9) = (  0.3284776  0.1747913  0.3083711  )
        10           C   tau(  10) = (  0.4037855  0.1121590  0.4033912  )
        11           C   tau(  11) = (  0.4267637 -0.1101492  0.5365314  )
        12           Cl  tau(  12) = (  0.3397488 -0.3009675  0.5289647  )
        13           H   tau(  13) = (  0.9541475  0.1116536  0.1592394  )
        14           C   tau(  14) = (  0.9736804  0.2693739  0.3150447  )
        15           H   tau(  15) = (  0.8235921  0.3651781  0.2023888  )
        16           C   tau(  16) = (  0.9001012  0.4194086  0.3148471  )
        17           C   tau(  17) = (  0.9263866  0.6228027  0.5154121  )
        18           Cl  tau(  18) = (  0.8294171  0.7837041  0.5472461  )
        19           H   tau(  19) = (  0.5408834 -0.3621514  0.7792793  )
        20           C   tau(  20) = (  0.5229153 -0.1923032  0.6596204  )
        21           H   tau(  21) = (  0.6719345 -0.1165826  0.7275661  )
        22           C   tau(  22) = (  0.5966462 -0.0543399  0.6311258  )
        23           C   tau(  23) = (  0.5726844  0.1630819  0.4792484  )
        24           Cl  tau(  24) = (  0.6683277  0.3419059  0.4684221  )

     number of k points=    16
                       cart. coord. in units 2pi/alat
        k(    1) = (   0.0169354   0.0214335   0.0406785), wk =   0.1250000
        k(    2) = (   0.0169354   0.0214335   0.1078115), wk =   0.1250000
        k(    3) = (   0.0169354   0.0214335  -0.0935875), wk =   0.1250000
        k(    4) = (   0.0169354   0.0214335  -0.0264545), wk =   0.1250000
        k(    5) = (   0.0169354   0.0643004   0.0406785), wk =   0.1250000
        k(    6) = (   0.0169354   0.0643004   0.1078115), wk =   0.1250000
        k(    7) = (   0.0169354   0.0643004  -0.0935875), wk =   0.1250000
        k(    8) = (   0.0169354   0.0643004  -0.0264545), wk =   0.1250000
        k(    9) = (  -0.0169354   0.0214335  -0.0406785), wk =   0.1250000
        k(   10) = (  -0.0169354   0.0214335  -0.1078115), wk =   0.1250000
        k(   11) = (  -0.0169354   0.0214335   0.0935875), wk =   0.1250000
        k(   12) = (  -0.0169354   0.0214335   0.0264545), wk =   0.1250000
        k(   13) = (  -0.0169354   0.0643004  -0.0406785), wk =   0.1250000
        k(   14) = (  -0.0169354   0.0643004  -0.1078115), wk =   0.1250000
        k(   15) = (  -0.0169354   0.0643004   0.0935875), wk =   0.1250000
        k(   16) = (  -0.0169354   0.0643004   0.0264545), wk =   0.1250000

                       cryst. coord.
        k(    1) = (   0.2500000   0.1250000   0.1250000), wk =   0.1250000
        k(    2) = (   0.2500000   0.1250000   0.3750000), wk =   0.1250000
        k(    3) = (   0.2500000   0.1250000  -0.3750000), wk =   0.1250000
        k(    4) = (   0.2500000   0.1250000  -0.1250000), wk =   0.1250000
        k(    5) = (   0.2500000   0.3750000   0.1250000), wk =   0.1250000
        k(    6) = (   0.2500000   0.3750000   0.3750000), wk =   0.1250000
        k(    7) = (   0.2500000   0.3750000  -0.3750000), wk =   0.1250000
        k(    8) = (   0.2500000   0.3750000  -0.1250000), wk =   0.1250000
        k(    9) = (  -0.2500000   0.1250000  -0.1250000), wk =   0.1250000
        k(   10) = (  -0.2500000   0.1250000  -0.3750000), wk =   0.1250000
        k(   11) = (  -0.2500000   0.1250000   0.3750000), wk =   0.1250000
        k(   12) = (  -0.2500000   0.1250000   0.1250000), wk =   0.1250000
        k(   13) = (  -0.2500000   0.3750000  -0.1250000), wk =   0.1250000
        k(   14) = (  -0.2500000   0.3750000  -0.3750000), wk =   0.1250000
        k(   15) = (  -0.2500000   0.3750000   0.3750000), wk =   0.1250000
        k(   16) = (  -0.2500000   0.3750000   0.1250000), wk =   0.1250000

     Dense  grid:  1155489 G-vectors     FFT dimensions: ( 288, 120,  80)

     Smooth grid:   292295 G-vectors     FFT dimensions: ( 180,  72,  50)

     Estimated max dynamical RAM per process >     147.21MB

     Estimated total allocated dynamical RAM >    4710.62MB

     Initial potential from superposition of free atoms

     starting charge   83.99939, renormalised to   84.00000
     Starting wfc are   72 randomized atomic wfcs
     Checking if some PAW data can be deallocated... 
       node    0, deallocated PAW data for type:  1
       node    0, deallocated PAW data for type:  3
       node    1, deallocated PAW data for type:  1
       node    1, deallocated PAW data for type:  3
       node    2, deallocated PAW data for type:  2
       node    2, deallocated PAW data for type:  3
       node    3, deallocated PAW data for type:  2
       node    3, deallocated PAW data for type:  3
       node    4, deallocated PAW data for type:  2
       node    4, deallocated PAW data for type:  3
       node    5, deallocated PAW data for type:  2
       node    5, deallocated PAW data for type:  3
       node    6, deallocated PAW data for type:  1
       node    6, deallocated PAW data for type:  2
       node    7, deallocated PAW data for type:  1
       node    7, deallocated PAW data for type:  2
       node    8, deallocated PAW data for type:  2
       node    8, deallocated PAW data for type:  3
       node    9, deallocated PAW data for type:  2
       node    9, deallocated PAW data for type:  3
       node   10, deallocated PAW data for type:  1
       node   10, deallocated PAW data for type:  2
       node   11, deallocated PAW data for type:  1
       node   11, deallocated PAW data for type:  2
       node   12, deallocated PAW data for type:  1
       node   12, deallocated PAW data for type:  2
       node   13, deallocated PAW data for type:  1
       node   13, deallocated PAW data for type:  2
       node   14, deallocated PAW data for type:  2
       node   14, deallocated PAW data for type:  3
       node   15, deallocated PAW data for type:  2
       node   15, deallocated PAW data for type:  3
       node   16, deallocated PAW data for type:  1
       node   16, deallocated PAW data for type:  2
       node   17, deallocated PAW data for type:  2
       node   17, deallocated PAW data for type:  3
       node   18, deallocated PAW data for type:  2
       node   18, deallocated PAW data for type:  3
       node   19, deallocated PAW data for type:  1
       node   19, deallocated PAW data for type:  3
       node   20, deallocated PAW data for type:  1
       node   20, deallocated PAW data for type:  2
       node   21, deallocated PAW data for type:  2
       node   21, deallocated PAW data for type:  3
       node   22, deallocated PAW data for type:  1
       node   22, deallocated PAW data for type:  2
       node   23, deallocated PAW data for type:  2
       node   23, deallocated PAW data for type:  3
       node   24, deallocated PAW data for type:  2
       node   24, deallocated PAW data for type:  3
       node   25, deallocated PAW data for type:  1
       node   25, deallocated PAW data for type:  3
       node   26, deallocated PAW data for type:  1
       node   26, deallocated PAW data for type:  2
       node   27, deallocated PAW data for type:  2
       node   27, deallocated PAW data for type:  3
       node   28, deallocated PAW data for type:  1
       node   28, deallocated PAW data for type:  2
       node   29, deallocated PAW data for type:  2
       node   29, deallocated PAW data for type:  3
       node   30, deallocated PAW data for type:  2
       node   30, deallocated PAW data for type:  3
       node   31, deallocated PAW data for type:  1
       node   31, deallocated PAW data for type:  3

     total cpu time spent up to now is        5.2 secs

     per-process dynamical memory:    20.7 Mb

     Self-consistent Calculation

     iteration #  1     ecut=   100.00 Ry     beta= 0.70
     Davidson diagonalization with overlap
     ethr =  1.00E-04,  avg # of iterations =  5.0

     total cpu time spent up to now is       11.9 secs

     total energy              =    -547.14276504 Ry
     Harris-Foulkes estimate   =    -548.99580370 Ry
     estimated scf accuracy    <       2.71473091 Ry

     iteration #  2     ecut=   100.00 Ry     beta= 0.70
     Davidson diagonalization with overlap
     ethr =  3.23E-03,  avg # of iterations =  3.0

     total cpu time spent up to now is       16.7 secs

     total energy              =    -547.54438750 Ry
     Harris-Foulkes estimate   =    -548.60880902 Ry
     estimated scf accuracy    <       1.91928180 Ry

     iteration #  3     ecut=   100.00 Ry     beta= 0.70
     Davidson diagonalization with overlap
     ethr =  2.28E-03,  avg # of iterations =  2.9

     total cpu time spent up to now is       21.0 secs

     total energy              =    -548.02184541 Ry
     Harris-Foulkes estimate   =    -548.06291455 Ry
     estimated scf accuracy    <       0.08258199 Ry

     iteration #  4     ecut=   100.00 Ry     beta= 0.70
     Davidson diagonalization with overlap
     ethr =  9.83E-05,  avg # of iterations =  4.0

     total cpu time spent up to now is       25.8 secs

     total energy              =    -548.04880244 Ry
     Harris-Foulkes estimate   =    -548.05922216 Ry
     estimated scf accuracy    <       0.02068163 Ry

     iteration #  5     ecut=   100.00 Ry     beta= 0.70
     Davidson diagonalization with overlap
     ethr =  2.46E-05,  avg # of iterations =  3.0

     total cpu time spent up to now is       30.1 secs

     total energy              =    -548.05308478 Ry
     Harris-Foulkes estimate   =    -548.05346418 Ry
     estimated scf accuracy    <       0.00083155 Ry

     iteration #  6     ecut=   100.00 Ry     beta= 0.70
     Davidson diagonalization with overlap
     ethr =  9.90E-07,  avg # of iterations =  3.7

     total cpu time spent up to now is       34.8 secs

     total energy              =    -548.05334479 Ry
     Harris-Foulkes estimate   =    -548.05339205 Ry
     estimated scf accuracy    <       0.00009753 Ry

     iteration #  7     ecut=   100.00 Ry     beta= 0.70
     Davidson diagonalization with overlap
     ethr =  1.16E-07,  avg # of iterations =  4.0

     total cpu time spent up to now is       39.5 secs

     total energy              =    -548.05337138 Ry
     Harris-Foulkes estimate   =    -548.05338256 Ry
     estimated scf accuracy    <       0.00002443 Ry

     iteration #  8     ecut=   100.00 Ry     beta= 0.70
     Davidson diagonalization with overlap
     ethr =  2.91E-08,  avg # of iterations =  4.0

     total cpu time spent up to now is       44.2 secs

     total energy              =    -548.05337742 Ry
     Harris-Foulkes estimate   =    -548.05337961 Ry
     estimated scf accuracy    <       0.00000512 Ry

     iteration #  9     ecut=   100.00 Ry     beta= 0.70
     Davidson diagonalization with overlap
     ethr =  6.10E-09,  avg # of iterations =  4.0

     total cpu time spent up to now is       48.8 secs

     total energy              =    -548.05337850 Ry
     Harris-Foulkes estimate   =    -548.05337875 Ry
     estimated scf accuracy    <       0.00000055 Ry

     iteration # 10     ecut=   100.00 Ry     beta= 0.70
     Davidson diagonalization with overlap
     ethr =  6.55E-10,  avg # of iterations =  4.0

     total cpu time spent up to now is       53.4 secs

     End of self-consistent calculation

          k = 0.0169 0.0214 0.0407 ( 36525 PWs)   bands (ev):

   -16.2034 -15.9689 -15.4134 -15.2199 -13.9284 -13.9026 -12.3718 -12.3061
   -11.2762 -11.1905  -9.0212  -8.9506  -8.2619  -8.1686  -6.3868  -6.2655
    -5.3532  -5.2866  -5.0685  -4.8083  -4.2393  -4.1007  -4.0006  -3.8465
    -3.2289  -3.1431  -2.7856  -2.5793  -2.4243  -2.3599  -2.2447  -2.0729
    -1.2144  -1.1299  -1.0375  -0.9454  -0.9151  -0.8073   0.0142   0.1094
     0.5431   0.7189

     occupation numbers 
     1.0000   1.0000   1.0000   1.0000   1.0000   1.0000   1.0000   1.0000
     1.0000   1.0000   1.0000   1.0000   1.0000   1.0000   1.0000   1.0000
     1.0000   1.0000   1.0000   1.0000   1.0000   1.0000   1.0000   1.0000
     1.0000   1.0000   1.0000   1.0000   1.0000   1.0000   1.0000   1.0000
     1.0000   1.0000   1.0000   1.0000   1.0000   1.0000   1.0000   1.0000
     1.0000   1.0000

          k = 0.0169 0.0214 0.1078 ( 36561 PWs)   bands (ev):

   -16.1390 -15.8778 -15.3670 -15.1749 -13.9200 -13.8831 -12.3478 -12.2622
   -11.2920 -11.1969  -8.9927  -8.9165  -8.1963  -8.1567  -6.3751  -6.3025
    -5.3471  -5.2868  -5.0933  -4.9115  -4.2445  -4.2223  -4.0915  -3.9471
    -3.7631  -3.6805  -2.8275  -2.7382  -2.6036  -2.4789  -2.4309  -2.2601
    -1.3089  -1.1751  -1.1139  -1.0061  -0.9111  -0.8132  -0.3135  -0.2451
     0.6827   0.7791

     occupation numbers 
     1.0000   1.0000   1.0000   1.0000   1.0000   1.0000   1.0000   1.0000
     1.0000   1.0000   1.0000   1.0000   1.0000   1.0000   1.0000   1.0000
     1.0000   1.0000   1.0000   1.0000   1.0000   1.0000   1.0000   1.0000
     1.0000   1.0000   1.0000   1.0000   1.0000   1.0000   1.0000   1.0000
     1.0000   1.0000   1.0000   1.0000   1.0000   1.0000   1.0000   1.0000
     1.0000   1.0000

          k = 0.0169 0.0214-0.0936 ( 36547 PWs)   bands (ev):

   -16.1365 -15.8822 -15.3705 -15.1701 -13.9149 -13.8861 -12.3420 -12.2666
   -11.2978 -11.1906  -8.9732  -8.9474  -8.2296  -8.1274  -6.4179  -6.2646
    -5.3431  -5.2931  -5.1325  -4.8312  -4.2719  -4.1701  -4.0859  -3.9853
    -3.7339  -3.7024  -2.7975  -2.6852  -2.6518  -2.4766  -2.4111  -2.3290
    -1.2480  -1.1946  -1.1091  -1.0404  -0.9522  -0.7915  -0.3182  -0.2381
     0.6813   0.7760

     occupation numbers 
     1.0000   1.0000   1.0000   1.0000   1.0000   1.0000   1.0000   1.0000
     1.0000   1.0000   1.0000   1.0000   1.0000   1.0000   1.0000   1.0000
     1.0000   1.0000   1.0000   1.0000   1.0000   1.0000   1.0000   1.0000
     1.0000   1.0000   1.0000   1.0000   1.0000   1.0000   1.0000   1.0000
     1.0000   1.0000   1.0000   1.0000   1.0000   1.0000   1.0000   1.0000
     1.0000   1.0000

          k = 0.0169 0.0214-0.0265 ( 36551 PWs)   bands (ev):

   -16.2013 -15.9721 -15.4172 -15.2156 -13.9268 -13.9019 -12.3665 -12.3104
   -11.2831 -11.1825  -9.0053  -8.9785  -8.2898  -8.1417  -6.4334  -6.2208
    -5.3512  -5.2998  -5.1203  -4.7127  -4.2759  -4.0687  -3.9345  -3.8815
    -3.2279  -3.1387  -2.8174  -2.5641  -2.4501  -2.3355  -2.2224  -2.1213
    -1.1847  -1.1317  -1.0477  -0.9511  -0.9424  -0.7901  -0.0318   0.1495
     0.5464   0.7140

     occupation numbers 
     1.0000   1.0000   1.0000   1.0000   1.0000   1.0000   1.0000   1.0000
     1.0000   1.0000   1.0000   1.0000   1.0000   1.0000   1.0000   1.0000
     1.0000   1.0000   1.0000   1.0000   1.0000   1.0000   1.0000   1.0000
     1.0000   1.0000   1.0000   1.0000   1.0000   1.0000   1.0000   1.0000
     1.0000   1.0000   1.0000   1.0000   1.0000   1.0000   1.0000   1.0000
     1.0000   1.0000

          k = 0.0169 0.0643 0.0407 ( 36518 PWs)   bands (ev):

   -16.1679 -15.9402 -15.4200 -15.2312 -13.9637 -13.9391 -12.4125 -12.3775
   -11.2863 -11.2096  -8.8750  -8.8635  -8.1310  -8.0883  -6.3821  -6.3052
    -5.2773  -5.2540  -5.0646  -4.9947  -4.3835  -4.3104  -4.1105  -3.9346
    -3.2569  -3.2128  -2.6644  -2.5515  -2.4679  -2.3466  -2.1467  -2.0716
    -1.0698  -1.0074  -0.9314  -0.9064  -0.8782  -0.8111   0.0515   0.1540
     0.6058   0.7382

     occupation numbers 
     1.0000   1.0000   1.0000   1.0000   1.0000   1.0000   1.0000   1.0000
     1.0000   1.0000   1.0000   1.0000   1.0000   1.0000   1.0000   1.0000
     1.0000   1.0000   1.0000   1.0000   1.0000   1.0000   1.0000   1.0000
     1.0000   1.0000   1.0000   1.0000   1.0000   1.0000   1.0000   1.0000
     1.0000   1.0000   1.0000   1.0000   1.0000   1.0000   1.0000   1.0000
     1.0000   1.0000

          k = 0.0169 0.0643 0.1078 ( 36558 PWs)   bands (ev):

   -16.1116 -15.8603 -15.3692 -15.1775 -13.9351 -13.9112 -12.3714 -12.3211
   -11.3140 -11.2273  -8.8887  -8.8821  -8.1613  -8.0996  -6.3560  -6.2890
    -5.2864  -5.2674  -4.9897  -4.9122  -4.3466  -4.3177  -4.1099  -3.9821
    -3.8946  -3.8193  -2.8332  -2.6495  -2.5953  -2.4479  -2.3808  -2.2683
    -1.2746  -1.1330  -1.0756  -1.0490  -0.9401  -0.8354  -0.1961  -0.1213
     0.7098   0.8049

     occupation numbers 
     1.0000   1.0000   1.0000   1.0000   1.0000   1.0000   1.0000   1.0000
     1.0000   1.0000   1.0000   1.0000   1.0000   1.0000   1.0000   1.0000
     1.0000   1.0000   1.0000   1.0000   1.0000   1.0000   1.0000   1.0000
     1.0000   1.0000   1.0000   1.0000   1.0000   1.0000   1.0000   1.0000
     1.0000   1.0000   1.0000   1.0000   1.0000   1.0000   1.0000   1.0000
     1.0000   1.0000

          k = 0.0169 0.0643-0.0936 ( 36547 PWs)   bands (ev):

   -16.1086 -15.8655 -15.3715 -15.1734 -13.9373 -13.9070 -12.3656 -12.3246
   -11.3211 -11.2213  -8.9145  -8.8666  -8.1944  -8.0676  -6.3932  -6.2632
    -5.2912  -5.2754  -5.0399  -4.8126  -4.3486  -4.3207  -4.0796  -4.0186
    -3.8583  -3.8158  -2.8039  -2.7104  -2.6104  -2.5007  -2.3171  -2.2406
    -1.2015  -1.1877  -1.1328  -1.0519  -0.9280  -0.8356  -0.1751  -0.1578
     0.7198   0.8021

     occupation numbers 
     1.0000   1.0000   1.0000   1.0000   1.0000   1.0000   1.0000   1.0000
     1.0000   1.0000   1.0000   1.0000   1.0000   1.0000   1.0000   1.0000
     1.0000   1.0000   1.0000   1.0000   1.0000   1.0000   1.0000   1.0000
     1.0000   1.0000   1.0000   1.0000   1.0000   1.0000   1.0000   1.0000
     1.0000   1.0000   1.0000   1.0000   1.0000   1.0000   1.0000   1.0000
     1.0000   1.0000

          k = 0.0169 0.0643-0.0265 ( 36489 PWs)   bands (ev):

   -16.1652 -15.9447 -15.4221 -15.2277 -13.9671 -13.9339 -12.4065 -12.3807
   -11.2935 -11.2044  -8.8896  -8.8567  -8.1648  -8.0570  -6.4219  -6.2878
    -5.2836  -5.2498  -5.0943  -4.9088  -4.3673  -4.2745  -4.1384  -3.9733
    -3.2803  -3.1828  -2.6653  -2.4951  -2.4358  -2.3934  -2.1667  -2.0732
    -1.0936  -1.0214  -0.9487  -0.9104  -0.8686  -0.7880   0.0111   0.1941
     0.6069   0.7307

     occupation numbers 
     1.0000   1.0000   1.0000   1.0000   1.0000   1.0000   1.0000   1.0000
     1.0000   1.0000   1.0000   1.0000   1.0000   1.0000   1.0000   1.0000
     1.0000   1.0000   1.0000   1.0000   1.0000   1.0000   1.0000   1.0000
     1.0000   1.0000   1.0000   1.0000   1.0000   1.0000   1.0000   1.0000
     1.0000   1.0000   1.0000   1.0000   1.0000   1.0000   1.0000   1.0000
     1.0000   1.0000

          k =-0.0169 0.0214-0.0407 ( 36525 PWs)   bands (ev):

   -16.2008 -15.9732 -15.4154 -15.2166 -13.9311 -13.8980 -12.3666 -12.3090
   -11.2830 -11.1846  -9.0004  -8.9799  -8.2631  -8.1757  -6.3841  -6.2772
    -5.3454  -5.3026  -5.0656  -4.7621  -4.1985  -4.0935  -3.9875  -3.9188
    -3.2302  -3.1177  -2.7631  -2.5894  -2.4593  -2.3218  -2.2422  -2.0933
    -1.2270  -1.1200  -1.0476  -0.9723  -0.9022  -0.7996  -0.0296   0.1492
     0.5445   0.7152

     occupation numbers 
     1.0000   1.0000   1.0000   1.0000   1.0000   1.0000   1.0000   1.0000
     1.0000   1.0000   1.0000   1.0000   1.0000   1.0000   1.0000   1.0000
     1.0000   1.0000   1.0000   1.0000   1.0000   1.0000   1.0000   1.0000
     1.0000   1.0000   1.0000   1.0000   1.0000   1.0000   1.0000   1.0000
     1.0000   1.0000   1.0000   1.0000   1.0000   1.0000   1.0000   1.0000
     1.0000   1.0000

          k =-0.0169 0.0214-0.1078 ( 36561 PWs)   bands (ev):

   -16.1361 -15.8830 -15.3688 -15.1712 -13.9220 -13.8791 -12.3419 -12.2659
   -11.2991 -11.1908  -8.9708  -8.9468  -8.2017  -8.1601  -6.3632  -6.3269
    -5.3383  -5.2990  -5.0790  -4.8740  -4.2233  -4.1797  -4.1124  -3.9909
    -3.7428  -3.7075  -2.8280  -2.7282  -2.6137  -2.4607  -2.4140  -2.2768
    -1.3058  -1.1632  -1.1141  -1.0397  -0.9176  -0.8151  -0.3252  -0.2347
     0.6847   0.7738

     occupation numbers 
     1.0000   1.0000   1.0000   1.0000   1.0000   1.0000   1.0000   1.0000
     1.0000   1.0000   1.0000   1.0000   1.0000   1.0000   1.0000   1.0000
     1.0000   1.0000   1.0000   1.0000   1.0000   1.0000   1.0000   1.0000
     1.0000   1.0000   1.0000   1.0000   1.0000   1.0000   1.0000   1.0000
     1.0000   1.0000   1.0000   1.0000   1.0000   1.0000   1.0000   1.0000
     1.0000   1.0000

          k =-0.0169 0.0214 0.0936 ( 36547 PWs)   bands (ev):

   -16.1392 -15.8771 -15.3687 -15.1736 -13.9181 -13.8851 -12.3479 -12.2620
   -11.2919 -11.1972  -8.9914  -8.9178  -8.2150  -8.1350  -6.3851  -6.3036
    -5.3408  -5.2935  -5.1054  -4.8747  -4.2281  -4.2049  -4.0754  -4.0223
    -3.7492  -3.7129  -2.7882  -2.6574  -2.6404  -2.4869  -2.4181  -2.3404
    -1.2532  -1.1766  -1.1020  -1.0539  -0.9302  -0.7997  -0.2900  -0.2585
     0.6709   0.7879

     occupation numbers 
     1.0000   1.0000   1.0000   1.0000   1.0000   1.0000   1.0000   1.0000
     1.0000   1.0000   1.0000   1.0000   1.0000   1.0000   1.0000   1.0000
     1.0000   1.0000   1.0000   1.0000   1.0000   1.0000   1.0000   1.0000
     1.0000   1.0000   1.0000   1.0000   1.0000   1.0000   1.0000   1.0000
     1.0000   1.0000   1.0000   1.0000   1.0000   1.0000   1.0000   1.0000
     1.0000   1.0000

          k =-0.0169 0.0214 0.0265 ( 36551 PWs)   bands (ev):

   -16.2039 -15.9676 -15.4160 -15.2180 -13.9250 -13.9059 -12.3728 -12.3054
   -11.2776 -11.1886  -9.0205  -8.9535  -8.2818  -8.1421  -6.4078  -6.2517
    -5.3522  -5.2959  -5.1026  -4.7408  -4.2377  -4.1366  -3.9432  -3.8839
    -3.2429  -3.1457  -2.7850  -2.5605  -2.4224  -2.3465  -2.2579  -2.1061
    -1.1644  -1.1127  -1.0712  -0.9577  -0.9281  -0.7919   0.0128   0.1064
     0.5392   0.7250

     occupation numbers 
     1.0000   1.0000   1.0000   1.0000   1.0000   1.0000   1.0000   1.0000
     1.0000   1.0000   1.0000   1.0000   1.0000   1.0000   1.0000   1.0000
     1.0000   1.0000   1.0000   1.0000   1.0000   1.0000   1.0000   1.0000
     1.0000   1.0000   1.0000   1.0000   1.0000   1.0000   1.0000   1.0000
     1.0000   1.0000   1.0000   1.0000   1.0000   1.0000   1.0000   1.0000
     1.0000   1.0000

          k =-0.0169 0.0643-0.0407 ( 36518 PWs)   bands (ev):

   -16.1651 -15.9448 -15.4225 -15.2272 -13.9681 -13.9330 -12.4076 -12.3800
   -11.2931 -11.2038  -8.8934  -8.8527  -8.1672  -8.0595  -6.3777  -6.3182
    -5.2830  -5.2536  -5.1020  -4.9311  -4.3512  -4.2832  -4.0927  -4.0004
    -3.2790  -3.1834  -2.6249  -2.5611  -2.4296  -2.3786  -2.1902  -2.0504
    -1.0865  -0.9877  -0.9457  -0.9268  -0.8588  -0.8224   0.0077   0.1920
     0.6044   0.7381

     occupation numbers 
     1.0000   1.0000   1.0000   1.0000   1.0000   1.0000   1.0000   1.0000
     1.0000   1.0000   1.0000   1.0000   1.0000   1.0000   1.0000   1.0000
     1.0000   1.0000   1.0000   1.0000   1.0000   1.0000   1.0000   1.0000
     1.0000   1.0000   1.0000   1.0000   1.0000   1.0000   1.0000   1.0000
     1.0000   1.0000   1.0000   1.0000   1.0000   1.0000   1.0000   1.0000
     1.0000   1.0000

          k =-0.0169 0.0643-0.1078 ( 36558 PWs)   bands (ev):

   -16.1086 -15.8657 -15.3713 -15.1734 -13.9408 -13.9035 -12.3658 -12.3244
   -11.3209 -11.2216  -8.9156  -8.8643  -8.1924  -8.0733  -6.3474  -6.3066
    -5.2877  -5.2751  -5.0229  -4.8583  -4.3297  -4.2590  -4.0947  -4.0254
    -3.8944  -3.8382  -2.8041  -2.6340  -2.6196  -2.4564  -2.3479  -2.3025
    -1.2660  -1.1501  -1.1015  -1.0374  -0.9298  -0.8472  -0.1748  -0.1500
     0.7120   0.8012

     occupation numbers 
     1.0000   1.0000   1.0000   1.0000   1.0000   1.0000   1.0000   1.0000
     1.0000   1.0000   1.0000   1.0000   1.0000   1.0000   1.0000   1.0000
     1.0000   1.0000   1.0000   1.0000   1.0000   1.0000   1.0000   1.0000
     1.0000   1.0000   1.0000   1.0000   1.0000   1.0000   1.0000   1.0000
     1.0000   1.0000   1.0000   1.0000   1.0000   1.0000   1.0000   1.0000
     1.0000   1.0000

          k =-0.0169 0.0643 0.0936 ( 36547 PWs)   bands (ev):

   -16.1116 -15.8602 -15.3695 -15.1772 -13.9377 -13.9088 -12.3712 -12.3203
   -11.3156 -11.2274  -8.8874  -8.8805  -8.1617  -8.0985  -6.3546  -6.3109
    -5.2832  -5.2714  -4.9562  -4.8949  -4.3628  -4.2503  -4.1269  -4.0779
    -3.8791  -3.8151  -2.8689  -2.6331  -2.5651  -2.5191  -2.3106  -2.2581
    -1.2306  -1.1452  -1.1145  -1.0619  -0.9014  -0.8646  -0.2026  -0.1227
     0.7103   0.8134

     occupation numbers 
     1.0000   1.0000   1.0000   1.0000   1.0000   1.0000   1.0000   1.0000
     1.0000   1.0000   1.0000   1.0000   1.0000   1.0000   1.0000   1.0000
     1.0000   1.0000   1.0000   1.0000   1.0000   1.0000   1.0000   1.0000
     1.0000   1.0000   1.0000   1.0000   1.0000   1.0000   1.0000   1.0000
     1.0000   1.0000   1.0000   1.0000   1.0000   1.0000   1.0000   1.0000
     1.0000   1.0000

          k =-0.0169 0.0643 0.0265 ( 36489 PWs)   bands (ev):

   -16.1681 -15.9399 -15.4208 -15.2304 -13.9640 -13.9392 -12.4127 -12.3757
   -11.2882 -11.2101  -8.8755  -8.8595  -8.1383  -8.0787  -6.3848  -6.3285
    -5.2743  -5.2566  -5.0503  -4.9568  -4.3711  -4.2471  -4.1314  -4.0529
    -3.2632  -3.2101  -2.6211  -2.5058  -2.4401  -2.4106  -2.1684  -2.0621
    -1.0703  -1.0183  -0.9715  -0.8964  -0.8575  -0.7949   0.0533   0.1565
     0.5986   0.7422

     occupation numbers 
     1.0000   1.0000   1.0000   1.0000   1.0000   1.0000   1.0000   1.0000
     1.0000   1.0000   1.0000   1.0000   1.0000   1.0000   1.0000   1.0000
     1.0000   1.0000   1.0000   1.0000   1.0000   1.0000   1.0000   1.0000
     1.0000   1.0000   1.0000   1.0000   1.0000   1.0000   1.0000   1.0000
     1.0000   1.0000   1.0000   1.0000   1.0000   1.0000   1.0000   1.0000
     1.0000   1.0000

     highest occupied level (ev):     0.8134

!    total energy              =    -548.05337862 Ry
     Harris-Foulkes estimate   =    -548.05337868 Ry
     estimated scf accuracy    <       0.00000008 Ry

     total all-electron energy =     -4615.896866 Ry

     The total energy is the sum of the following terms:

     one-electron contribution =    -149.35540001 Ry
     hartree contribution      =     106.01108632 Ry
     xc contribution           =    -104.21153752 Ry
     ewald contribution        =    -144.71557752 Ry
     one-center paw contrib.   =    -255.78194989 Ry
      -> PAW hartree energy AE =      19.07250176 Ry
      -> PAW hartree energy PS =     -18.96802909 Ry
      -> PAW xc energy AE      =     -55.63843981 Ry
      -> PAW xc energy PS      =      10.09255942 Ry
      -> total E_H with PAW    =     106.11555899 Ry
      -> total E_XC with PAW   =    -149.75741791 Ry

     convergence has been achieved in  10 iterations
 writing file ./scratch/scf-2296.save/charge-density
 writing file ./scratch/scf-2296.save/charge-density
 writing file ./scratch/scf-2296.save/charge-density
 writing file ./scratch/scf-2296.save/charge-density
 writing file ./scratch/scf-2296.save/charge-density
 writing file ./scratch/scf-2296.save/charge-density
 writing file ./scratch/scf-2296.save/charge-density
 writing file ./scratch/scf-2296.save/charge-density
 writing file ./scratch/scf-2296.save/charge-density
 writing file ./scratch/scf-2296.save/charge-density
 writing file ./scratch/scf-2296.save/charge-density
 writing file ./scratch/scf-2296.save/charge-density
 writing file ./scratch/scf-2296.save/charge-density
 writing file ./scratch/scf-2296.save/charge-density
 writing file ./scratch/scf-2296.save/charge-density
 writing file ./scratch/scf-2296.save/charge-density
 writing file ./scratch/scf-2296.save/charge-density
 writing file ./scratch/scf-2296.save/charge-density
 writing file ./scratch/scf-2296.save/charge-density
 writing file ./scratch/scf-2296.save/charge-density
 writing file ./scratch/scf-2296.save/charge-density
 writing file ./scratch/scf-2296.save/charge-density
 writing file ./scratch/scf-2296.save/charge-density
 writing file ./scratch/scf-2296.save/charge-density
 writing file ./scratch/scf-2296.save/charge-density
 writing file ./scratch/scf-2296.save/charge-density
 writing file ./scratch/scf-2296.save/charge-density
 writing file ./scratch/scf-2296.save/charge-density
 writing file ./scratch/scf-2296.save/charge-density
 writing file ./scratch/scf-2296.save/charge-density
 writing file ./scratch/scf-2296.save/charge-density
 writing file ./scratch/scf-2296.save/charge-density

     Forces acting on atoms (cartesian axes, Ry/au):

     atom    1 type  2   force =    -0.02600001    0.02336693   -0.00116232
     atom    2 type  1   force =     0.01135881   -0.02398617    0.02328200
     atom    3 type  1   force =     0.00978081   -0.00799126    0.00089601
     atom    4 type  3   force =     0.00023564    0.00268029   -0.00127166
     atom    5 type  1   force =    -0.00810696    0.00771266   -0.00895206
     atom    6 type  3   force =    -0.00095253   -0.00126357    0.00251548
     atom    7 type  3   force =     0.00037081   -0.00298087   -0.00467486
     atom    8 type  1   force =    -0.00047019    0.00841121    0.01747311
     atom    9 type  3   force =     0.00145623   -0.00028909    0.00131442
     atom   10 type  1   force =     0.00565609   -0.00789075   -0.02176497
     atom   11 type  1   force =     0.03737627    0.01575982    0.00159366
     atom   12 type  2   force =    -0.05305693   -0.02206297    0.00281790
     atom   13 type  3   force =    -0.00331398   -0.00435437    0.00589031
     atom   14 type  1   force =     0.01396915    0.01766511   -0.03612324
     atom   15 type  3   force =     0.00268397    0.00251238   -0.00674195
     atom   16 type  1   force =    -0.00547664   -0.00678116    0.03652068
     atom   17 type  1   force =    -0.01093705   -0.01354691   -0.01486560
     atom   18 type  2   force =     0.01841624    0.00605963    0.00059817
     atom   19 type  3   force =     0.00010678    0.00104271   -0.00208863
     atom   20 type  1   force =     0.01468098    0.01046378    0.00128247
     atom   21 type  3   force =    -0.00055951    0.00071913    0.00196606
     atom   22 type  1   force =    -0.00099036   -0.00001527    0.00268982
     atom   23 type  1   force =     0.01220521    0.00651754    0.00403959
     atom   24 type  2   force =    -0.01843285   -0.01174879   -0.00523437
     The non-local contrib.  to forces
     atom    1 type  2   force =    -0.30698953    0.25372805   -0.00030899
     atom    2 type  1   force =     0.39879982   -0.32910633    0.02720306
     atom    3 type  1   force =    -0.02928244   -0.04233318   -0.04799200
     atom    4 type  3   force =    -0.06717097   -0.02029085   -0.03545996
     atom    5 type  1   force =    -0.04262851   -0.03902713   -0.05707242
     atom    6 type  3   force =    -0.00534920   -0.06739755   -0.04034543
     atom    7 type  3   force =     0.00649835   -0.07312819    0.02822274
     atom    8 type  1   force =     0.03859626   -0.04171723    0.04647785
     atom    9 type  3   force =     0.06928682   -0.02666793    0.02570168
     atom   10 type  1   force =     0.05290914   -0.06311755    0.00561304
     atom   11 type  1   force =    -0.36004429   -0.29772410    0.01335122
     atom   12 type  2   force =     0.27816597    0.27302272    0.01273316
     atom   13 type  3   force =     0.00346486    0.06601496    0.04249717
     atom   14 type  1   force =     0.06342662    0.07228639   -0.02546669
     atom   15 type  3   force =     0.06919842    0.02334177    0.03020989
     atom   16 type  1   force =     0.04089348    0.02903920    0.08898419
     atom   17 type  1   force =    -0.41248692    0.27950235    0.01125568
     atom   18 type  2   force =     0.34407360   -0.20009373   -0.02211288
     atom   19 type  3   force =    -0.00622059    0.07125472   -0.03268577
     atom   20 type  1   force =    -0.01636989    0.05646478   -0.01925018
     atom   21 type  3   force =    -0.06914710    0.02667482   -0.02618332
     atom   22 type  1   force =    -0.02898023    0.04532359   -0.03421711
     atom   23 type  1   force =     0.40529224    0.29437779   -0.02765485
     atom   24 type  2   force =    -0.32097972   -0.24011836   -0.00107686
     The ionic contribution  to forces
     atom    1 type  2   force =     5.23713817   -3.65562558    0.57764939
     atom    2 type  1   force =     2.83765709   -1.51902543   -0.10937558
     atom    3 type  1   force =     4.58829816    1.96091953    2.28266153
     atom    4 type  3   force =     2.12730236    0.73728835    1.14967556
     atom    5 type  1   force =     1.19149366    4.09332699    2.49745167
     atom    6 type  3   force =     0.35586946    1.94628773    1.25488899
     atom    7 type  3   force =    -0.36460821    1.96366789   -1.05425923
     atom    8 type  1   force =    -1.18598275    3.95227721   -2.27154201
     atom    9 type  3   force =    -2.12597735    0.91177028   -0.90637176
     atom   10 type  1   force =    -4.68126790    2.34746310   -1.59489192
     atom   11 type  1   force =    -2.49509353   -1.01783602   -0.12089160
     atom   12 type  2   force =    -6.65139216   -4.39810236   -0.84132679
     atom   13 type  3   force =    -0.30861570   -1.94710642   -1.27117907
     atom   14 type  1   force =    -1.20005130   -4.49569038   -1.68898758
     atom   15 type  3   force =    -2.04482589   -0.88822679   -1.00331660
     atom   16 type  1   force =    -3.95573930   -1.76451220   -2.70799559
     atom   17 type  1   force =    -2.12034656    1.82999430   -0.15285450
     atom   18 type  2   force =    -5.50441665    4.15771966   -0.29951268
     atom   19 type  3   force =     0.36399402   -1.96046409    1.12024058
     atom   20 type  1   force =     1.22651437   -4.01920363    1.97967792
     atom   21 type  3   force =     2.12556059   -0.84747455    0.92558667
     atom   22 type  1   force =     4.50652441   -2.10090161    1.94054467
     atom   23 type  1   force =     2.56841694    1.47094119   -0.07067950
     atom   24 type  2   force =     5.50954808    3.24251283    0.36480744
     The local contribution  to forces
     atom    1 type  2   force =    -4.96977749    3.43672655   -0.57856856
     atom    2 type  1   force =    -3.21417386    1.81589998    0.10518856
     atom    3 type  1   force =    -4.54786261   -1.92644462   -2.23377097
     atom    4 type  3   force =    -2.05990382   -0.71432639   -1.11549313
     atom    5 type  1   force =    -1.15737955   -4.04546055   -2.44889752
     atom    6 type  3   force =    -0.35146087   -1.88016313   -1.21202929
     atom    7 type  3   force =     0.35843222   -1.89351776    1.02134326
     atom    8 type  1   force =     1.14694646   -3.90106242    2.24181657
     atom    9 type  3   force =     2.05814757   -0.88538914    0.88198032
     atom   10 type  1   force =     4.63272136   -2.29201955    1.56735714
     atom   11 type  1   force =     2.88324782    1.32451861    0.10949372
     atom   12 type  2   force =     6.32906850    4.11291550    0.83194907
     atom   13 type  3   force =     0.30186134    1.87675413    1.23459059
     atom   14 type  1   force =     1.15114317    4.43993094    1.67768116
     atom   15 type  3   force =     1.97833969    0.86739661    0.96637531
     atom   16 type  1   force =     3.90870969    1.72897955    2.65533430
     atom   17 type  1   force =     2.51144034   -2.11575348    0.12726866
     atom   18 type  2   force =     5.19356824   -3.95962003    0.32142719
     atom   19 type  3   force =    -0.35769034    1.89023209   -1.08964955
     atom   20 type  1   force =    -1.19552083    3.97204688   -1.95853790
     atom   21 type  3   force =    -2.05694517    0.82150484   -0.89742469
     atom   22 type  1   force =    -4.47707429    2.05531473   -1.90343288
     atom   23 type  1   force =    -2.95087264   -1.75104225    0.10132878
     atom   24 type  2   force =    -5.22043085   -3.02440258   -0.36919179
     The core correction contribution to forces
     atom    1 type  2   force =     0.01352123   -0.01131796    0.00008152
     atom    2 type  1   force =    -0.01091632    0.00826961    0.00028102
     atom    3 type  1   force =    -0.00135055   -0.00018214   -0.00001608
     atom    4 type  3   force =     0.00000000    0.00000000    0.00000000
     atom    5 type  1   force =     0.00049164   -0.00116114   -0.00041255
     atom    6 type  3   force =     0.00000000    0.00000000    0.00000000
     atom    7 type  3   force =     0.00000000    0.00000000    0.00000000
     atom    8 type  1   force =    -0.00032590   -0.00101720    0.00061182
     atom    9 type  3   force =     0.00000000    0.00000000    0.00000000
     atom   10 type  1   force =     0.00108165   -0.00014362    0.00006328
     atom   11 type  1   force =     0.00905827    0.00684022   -0.00046519
     atom   12 type  2   force =    -0.00914409   -0.01001774   -0.00065696
     atom   13 type  3   force =     0.00000000    0.00000000    0.00000000
     atom   14 type  1   force =    -0.00042950    0.00117231    0.00070836
     atom   15 type  3   force =     0.00000000    0.00000000    0.00000000
     atom   16 type  1   force =     0.00081207   -0.00032081    0.00024793
     atom   17 type  1   force =     0.01059915   -0.00732180   -0.00049330
     atom   18 type  2   force =    -0.01458932    0.00801343    0.00084944
     atom   19 type  3   force =     0.00000000    0.00000000    0.00000000
     atom   20 type  1   force =    -0.00007867    0.00104678   -0.00063661
     atom   21 type  3   force =     0.00000000    0.00000000    0.00000000
     atom   22 type  1   force =    -0.00142696    0.00017343   -0.00018286
     atom   23 type  1   force =    -0.01068490   -0.00768837    0.00100958
     atom   24 type  2   force =     0.01362228    0.01035745    0.00031422
     The Hubbard contrib.    to forces
     atom    1 type  2   force =     0.00000000    0.00000000    0.00000000
     atom    2 type  1   force =     0.00000000    0.00000000    0.00000000
     atom    3 type  1   force =     0.00000000    0.00000000    0.00000000
     atom    4 type  3   force =     0.00000000    0.00000000    0.00000000
     atom    5 type  1   force =     0.00000000    0.00000000    0.00000000
     atom    6 type  3   force =     0.00000000    0.00000000    0.00000000
     atom    7 type  3   force =     0.00000000    0.00000000    0.00000000
     atom    8 type  1   force =     0.00000000    0.00000000    0.00000000
     atom    9 type  3   force =     0.00000000    0.00000000    0.00000000
     atom   10 type  1   force =     0.00000000    0.00000000    0.00000000
     atom   11 type  1   force =     0.00000000    0.00000000    0.00000000
     atom   12 type  2   force =     0.00000000    0.00000000    0.00000000
     atom   13 type  3   force =     0.00000000    0.00000000    0.00000000
     atom   14 type  1   force =     0.00000000    0.00000000    0.00000000
     atom   15 type  3   force =     0.00000000    0.00000000    0.00000000
     atom   16 type  1   force =     0.00000000    0.00000000    0.00000000
     atom   17 type  1   force =     0.00000000    0.00000000    0.00000000
     atom   18 type  2   force =     0.00000000    0.00000000    0.00000000
     atom   19 type  3   force =     0.00000000    0.00000000    0.00000000
     atom   20 type  1   force =     0.00000000    0.00000000    0.00000000
     atom   21 type  3   force =     0.00000000    0.00000000    0.00000000
     atom   22 type  1   force =     0.00000000    0.00000000    0.00000000
     atom   23 type  1   force =     0.00000000    0.00000000    0.00000000
     atom   24 type  2   force =     0.00000000    0.00000000    0.00000000
     The SCF correction term to forces
     atom    1 type  2   force =     0.00010635   -0.00014431   -0.00001648
     atom    2 type  1   force =    -0.00000918   -0.00002419   -0.00001585
     atom    3 type  1   force =    -0.00002301    0.00004896    0.00001273
     atom    4 type  3   force =     0.00000680    0.00000899    0.00000507
     atom    5 type  1   force =    -0.00008546    0.00003430   -0.00002203
     atom    6 type  3   force =    -0.00001318    0.00000919    0.00000042
     atom    7 type  3   force =     0.00004718   -0.00000299    0.00001759
     atom    8 type  1   force =     0.00029449   -0.00006934    0.00010808
     atom    9 type  3   force =    -0.00000208   -0.00000249    0.00000339
     atom   10 type  1   force =     0.00021058   -0.00007332    0.00009269
     atom   11 type  1   force =     0.00020674   -0.00003908    0.00010472
     atom   12 type  2   force =     0.00024359    0.00011872    0.00011863
     atom   13 type  3   force =    -0.00002574   -0.00001722   -0.00001917
     atom   14 type  1   force =    -0.00012109   -0.00003434   -0.00005927
     atom   15 type  3   force =    -0.00002952    0.00000061   -0.00001134
     atom   16 type  1   force =    -0.00015384    0.00003291   -0.00005094
     atom   17 type  1   force =    -0.00014432    0.00003154   -0.00004293
     atom   18 type  2   force =    -0.00022089    0.00004012   -0.00005369
     atom   19 type  3   force =     0.00002243    0.00001980    0.00000532
     atom   20 type  1   force =     0.00013475    0.00010878    0.00002844
     atom   21 type  3   force =    -0.00002909    0.00001383   -0.00001340
     atom   22 type  1   force =    -0.00003454    0.00007442   -0.00002279
     atom   23 type  1   force =     0.00005231   -0.00007100    0.00003479
     atom   24 type  2   force =    -0.00019391   -0.00009831   -0.00008817

     Total force =     0.118717     Total SCF correction =     0.000763

     Writing output data file scf-2296.save
 writing file ./scratch/scf-2296.save/charge-density
 writing file ./scratch/scf-2296.save/charge-density
 writing file ./scratch/scf-2296.save/charge-density
 writing file ./scratch/scf-2296.save/charge-density
 writing file ./scratch/scf-2296.save/charge-density
 writing file ./scratch/scf-2296.save/charge-density
 writing file ./scratch/scf-2296.save/charge-density
 writing file ./scratch/scf-2296.save/charge-density
 writing file ./scratch/scf-2296.save/charge-density
 writing file ./scratch/scf-2296.save/charge-density
 writing file ./scratch/scf-2296.save/charge-density
 writing file ./scratch/scf-2296.save/charge-density
 writing file ./scratch/scf-2296.save/charge-density
 writing file ./scratch/scf-2296.save/charge-density
 writing file ./scratch/scf-2296.save/charge-density
 writing file ./scratch/scf-2296.save/charge-density
 writing file ./scratch/scf-2296.save/charge-density
 writing file ./scratch/scf-2296.save/charge-density
 writing file ./scratch/scf-2296.save/charge-density
 writing file ./scratch/scf-2296.save/charge-density
 writing file ./scratch/scf-2296.save/charge-density
 writing file ./scratch/scf-2296.save/charge-density
 writing file ./scratch/scf-2296.save/charge-density
 writing file ./scratch/scf-2296.save/charge-density
 writing file ./scratch/scf-2296.save/charge-density
 writing file ./scratch/scf-2296.save/charge-density
 writing file ./scratch/scf-2296.save/charge-density
 writing file ./scratch/scf-2296.save/charge-density
 writing file ./scratch/scf-2296.save/charge-density
 writing file ./scratch/scf-2296.save/charge-density
 writing file ./scratch/scf-2296.save/charge-density
 writing file ./scratch/scf-2296.save/charge-density
 
     init_run     :      4.34s CPU      4.59s WALL (       1 calls)
     electrons    :     45.67s CPU     48.29s WALL (       1 calls)
     forces       :      2.35s CPU      2.47s WALL (       1 calls)

     Called by init_run:
     wfcinit      :      1.58s CPU      1.61s WALL (       1 calls)
     wfcinit:atom :      0.01s CPU      0.02s WALL (      16 calls)
     wfcinit:wfcr :      1.46s CPU      1.49s WALL (      16 calls)
     potinit      :      0.88s CPU      0.91s WALL (       1 calls)

     Called by electrons:
     c_bands      :     35.93s CPU     36.18s WALL (      10 calls)
     sum_band     :      6.09s CPU      7.15s WALL (      10 calls)
     v_of_rho     :      0.83s CPU      0.89s WALL (      11 calls)
     v_h          :      0.04s CPU      0.06s WALL (      11 calls)
     v_xc         :      0.85s CPU      0.91s WALL (      12 calls)
     newd         :      1.32s CPU      2.62s WALL (      11 calls)
     PAW_pot      :      1.51s CPU      1.54s WALL (      11 calls)
     mix_rho      :      0.12s CPU      0.12s WALL (      10 calls)

     Called by c_bands:
     init_us_2    :      0.79s CPU      0.79s WALL (     352 calls)
     cegterg      :     33.84s CPU     34.03s WALL (     160 calls)

     Called by sum_band:
     sum_band:bec :      0.00s CPU      0.02s WALL (     160 calls)
     addusdens    :      1.42s CPU      2.45s WALL (      10 calls)

     Called by *egterg:
     h_psi        :     25.16s CPU     25.39s WALL (     778 calls)
     s_psi        :      1.82s CPU      1.86s WALL (     778 calls)
     g_psi        :      0.15s CPU      0.15s WALL (     602 calls)
     cdiaghg      :      3.08s CPU      3.21s WALL (     762 calls)
     cegterg:over :      1.69s CPU      1.57s WALL (     602 calls)
     cegterg:upda :      1.15s CPU      1.17s WALL (     602 calls)
     cegterg:last :      0.44s CPU      0.41s WALL (     176 calls)

     Called by h_psi:
     h_psi:pot    :     24.92s CPU     25.12s WALL (     778 calls)
     h_psi:calbec :      2.12s CPU      2.08s WALL (     778 calls)
     vloc_psi     :     21.06s CPU     21.23s WALL (     778 calls)
     add_vuspsi   :      1.72s CPU      1.81s WALL (     778 calls)

     General routines
     calbec       :      2.86s CPU      2.77s WALL (    1002 calls)
     fft          :      0.67s CPU      0.73s WALL (     183 calls)
     ffts         :      0.03s CPU      0.03s WALL (      21 calls)
     fftw         :     19.67s CPU     19.99s WALL (   51814 calls)
     interpolate  :      0.13s CPU      0.14s WALL (      21 calls)
     davcio       :      0.00s CPU      0.01s WALL (      16 calls)
 
     Parallel routines
     fft_scatter  :      6.80s CPU      7.13s WALL (   52018 calls)

     PAW routines
     PAW_pot      :      1.51s CPU      1.54s WALL (      11 calls)
 
     PWSCF        :    53.07s CPU        56.55s WALL

 
   This run was terminated on:  17: 5:24  20May2017            

=------------------------------------------------------------------------------=
   JOB DONE.
=------------------------------------------------------------------------------=
