
     Program PWSCF v.6.1 starts on 20May2017 at 15:57:52 

     This program is part of the open-source Quantum ESPRESSO suite
     for quantum simulation of materials; please cite
         "P. Giannozzi et al., J. Phys.:Condens. Matter 21 395502 (2009);
          URL http://www.quantum-espresso.org", 
     in publications or presentations arising from this work. More details at
     http://www.quantum-espresso.org/quote

     Parallel version (MPI & OpenMP), running on      32 processor cores
     Number of MPI processes:                32
     Threads/MPI process:                     1
     R & G space division:  proc/nbgrp/npool/nimage =      32
     Waiting for input...
     Reading input from standard input
Warning: card &IONS ignored
Warning: card     ION_TEMPERATURE   = 'INITIAL' ignored
Warning: card     TEMPW             = 586.D0 ignored
Warning: card     TOLP              = 100.D0 ignored
Warning: card     DELTA_T           = 1.D0 ignored
Warning: card     NRAISE            = 1 ignored
Warning: card / ignored
Warning: card &CELL ignored
Warning: card     CELL_DYNAMICS     = 'BFGS' ignored
Warning: card / ignored

     Current dimensions of program PWSCF are:
     Max number of different atomic species (ntypx) = 10
     Max number of k-points (npk) =  40000
     Max angular momentum in pseudopotentials (lmaxx) =  3
               file C.pbe-n-kjpaw_psl.1.0.0.UPF: wavefunction(s)  2S 2P renormalized
               file Cl.pbe-n-kjpaw_psl.1.0.0.UPF: wavefunction(s)  3S 3P renormalized
               file H.pbe-kjpaw_psl.1.0.0.UPF: wavefunction(s)  1S renormalized

     Subspace diagonalization in iterative solution of the eigenvalue problem:
     a serial algorithm will be used

 
     Parallelization info
     --------------------
     sticks:   dense  smooth     PW     G-vecs:    dense   smooth      PW
     Min         764     305     83                36108     9133    1292
     Max         765     306     84                36110     9135    1293
     Sum       24467    9791   2657              1155489   292295   41363
 


     bravais-lattice index     =            0
     lattice parameter (alat)  =       1.8897  a.u.
     unit-cell volume          =    2163.5316 (a.u.)^3
     number of atoms/cell      =           24
     number of atomic types    =            3
     number of electrons       =        84.00
     number of Kohn-Sham states=           42
     kinetic-energy cutoff     =     100.0000  Ry
     charge density cutoff     =    1000.0000  Ry
     convergence threshold     =      1.0E-07
     mixing beta               =       0.7000
     number of iterations used =            8  plain     mixing
     Exchange-correlation      =  SLA  PW   PBX  PBC ( 1  4  3  4 0 0)

     celldm(1)=   1.889726  celldm(2)=   0.000000  celldm(3)=   0.000000
     celldm(4)=   0.000000  celldm(5)=   0.000000  celldm(6)=   0.000000

     crystal axes: (cart. coord. in units of alat)
               a(1) = (  14.762000   0.000000   0.000000 )  
               a(2) = (   0.000000   5.832000   0.000000 )  
               a(3) = (  -1.563876   0.000000   3.723951 )  

     reciprocal axes: (cart. coord. in units 2 pi/alat)
               b(1) = (  0.067741  0.000000  0.028448 )  
               b(2) = (  0.000000  0.171468  0.000000 )  
               b(3) = (  0.000000  0.000000  0.268532 )  


     PseudoPot. # 1 for  C read from file:
     /global/cscratch1/sd/almno10/.data/PSEUDOPOTENTIALS/C.pbe-n-kjpaw_psl.1.0.0.UPF
     MD5 check sum: 2ba8448e293caca687844dde9a1b88a8
     Pseudo is Projector augmented-wave + core cor, Zval =  4.0
     Generated using "atomic" code by A. Dal Corso  v.5.3.0 svn rev. 11974
     Shape of augmentation charge: PSQ
     Using radial grid of 1073 points,  4 beta functions with: 
                l(1) =   0
                l(2) =   0
                l(3) =   1
                l(4) =   1
     Q(r) pseudized with 0 coefficients 


     PseudoPot. # 2 for Cl read from file:
     /global/cscratch1/sd/almno10/.data/PSEUDOPOTENTIALS/Cl.pbe-n-kjpaw_psl.1.0.0.UPF
     MD5 check sum: dca63699d6b897c5771335df08a09219
     Pseudo is Projector augmented-wave + core cor, Zval =  7.0
     Generated using "atomic" code by A. Dal Corso  v.5.3.0 svn rev. 11974
     Shape of augmentation charge: PSQ
     Using radial grid of 1157 points,  6 beta functions with: 
                l(1) =   0
                l(2) =   0
                l(3) =   1
                l(4) =   1
                l(5) =   2
                l(6) =   2
     Q(r) pseudized with 0 coefficients 


     PseudoPot. # 3 for  H read from file:
     /global/cscratch1/sd/almno10/.data/PSEUDOPOTENTIALS/H.pbe-kjpaw_psl.1.0.0.UPF
     MD5 check sum: bc0feb48a24907a0b97fa6ee2d589a29
     Pseudo is Projector augmented-wave, Zval =  1.0
     Generated using "atomic" code by A. Dal Corso  v.5.3.0 svn rev. 11974
     Shape of augmentation charge: PSQ
     Using radial grid of  929 points,  2 beta functions with: 
                l(1) =   0
                l(2) =   0
     Q(r) pseudized with 0 coefficients 


     atomic species   valence    mass     pseudopotential
        C              4.00    12.01100      C( 1.00)
        Cl             7.00    35.45270     Cl( 1.00)
        H              1.00     1.00790      H( 1.00)

     No symmetry found


                                    s                        frac. trans.

      isym =  1     identity                                     

 cryst.   s( 1) = (     1          0          0      )
                  (     0          1          0      )
                  (     0          0          1      )

 cart.    s( 1) = (  1.0000000  0.0000000 -0.0000000 )
                  (  0.0000000  1.0000000  0.0000000 )
                  (  0.0000000  0.0000000  1.0000000 )


   Cartesian axes

     site n.     atom                  positions (alat units)
         1           Cl  tau(   1) = (  16.2482529   1.2843818   1.7773107  )
         2           C   tau(   2) = (  15.0189478   2.3651534   1.8274836  )
         3           C   tau(   3) = (  15.0766375   3.5593857   2.5446509  )
         4           H   tau(   4) = (  15.9729738   3.8213359   3.1044943  )
         5           C   tau(   5) = (  14.0206023   4.4641480   2.4569321  )
         6           H   tau(   6) = (  14.0568511   5.3957700   3.0188517  )
         7           H   tau(   7) = (   6.5086239   1.8206701   0.6316383  )
         8           C   tau(   8) = (   6.5877074   0.9042032   1.2129872  )
         9           H   tau(   9) = (   4.5622167   0.2868579   0.7998124  )
        10           C   tau(  10) = (   5.5085891   0.0202730   1.2676169  )
        11           C   tau(  11) = (   5.6283845  -1.1528543   2.0105596  )
        12           Cl  tau(  12) = (   4.3092956  -2.3658025   2.1124971  )
        13           H   tau(  13) = (  13.8598326   1.0915456   0.5206540  )
        14           C   tau(  14) = (  13.9096780   2.0424855   1.0478132  )
        15           H   tau(  15) = (  11.9273207   2.6492520   0.4589386  )
        16           C   tau(  16) = (  12.7995947   2.8849168   1.0661052  )
        17           C   tau(  17) = (  12.8795836   4.1066356   1.7406041  )
        18           Cl  tau(  18) = (  11.3745245   5.1911065   1.8371486  )
        19           H   tau(  19) = (   6.8623648  -2.3436312   3.3307186  )
        20           C   tau(  20) = (   6.7919116  -1.4429697   2.7228735  )
        21           H   tau(  21) = (   8.8124493  -0.8216254   3.1405534  )
        22           C   tau(  22) = (   7.9003122  -0.6090909   2.5866554  )
        23           C   tau(  23) = (   7.7937951   0.5438954   1.8119057  )
        24           Cl  tau(  24) = (   9.0697729   1.6511683   1.7339229  )

   Crystallographic axes

     site n.     atom                  positions (cryst. coord.)
         1           Cl  tau(   1) = (  1.1512421  0.2202301  0.4772647  )
         2           C   tau(   2) = (  1.0693944  0.4055476  0.4907378  )
         3           C   tau(   3) = (  1.0937045  0.6103199  0.6833201  )
         4           H   tau(   4) = (  1.1703501  0.6552359  0.8336560  )
         5           C   tau(   5) = (  1.0196716  0.7654575  0.6597648  )
         6           H   tau(   6) = (  1.0381127  0.9252006  0.8106582  )
         7           H   tau(   7) = (  0.4588728  0.3121862  0.1696151  )
         8           C   tau(   8) = (  0.4807683  0.1550417  0.3257258  )
         9           H   tau(   9) = (  0.3318045  0.0491869  0.2147752  )
        10           C   tau(  10) = (  0.4092213  0.0034762  0.3403957  )
        11           C   tau(  11) = (  0.4384718 -0.1976774  0.5398995  )
        12           Cl  tau(  12) = (  0.3520146 -0.4056589  0.5672730  )
        13           H   tau(  13) = (  0.9536974  0.1871649  0.1398122  )
        14           C   tau(  14) = (  0.9720707  0.3502204  0.2813713  )
        15           H   tau(  15) = (  0.8210305  0.4542613  0.1232397  )
        16           C   tau(  16) = (  0.8973924  0.4946702  0.2862833  )
        17           C   tau(  17) = (  0.9219991  0.7041556  0.4674079  )
        18           Cl  tau(  18) = (  0.8227907  0.8901074  0.4933331  )
        19           H   tau(  19) = (  0.5596194 -0.4018572  0.8944044  )
        20           C   tau(  20) = (  0.5375548 -0.2474228  0.7311786  )
        21           H   tau(  21) = (  0.6863112 -0.1408823  0.8433390  )
        22           C   tau(  22) = (  0.6087644 -0.1044395  0.6945997  )
        23           C   tau(  23) = (  0.5795086  0.0932605  0.4865546  )
        24           Cl  tau(  24) = (  0.6637268  0.2831221  0.4656137  )

     number of k points=    16
                       cart. coord. in units 2pi/alat
        k(    1) = (   0.0169354   0.0214335   0.0406785), wk =   0.1250000
        k(    2) = (   0.0169354   0.0214335   0.1078115), wk =   0.1250000
        k(    3) = (   0.0169354   0.0214335  -0.0935875), wk =   0.1250000
        k(    4) = (   0.0169354   0.0214335  -0.0264545), wk =   0.1250000
        k(    5) = (   0.0169354   0.0643004   0.0406785), wk =   0.1250000
        k(    6) = (   0.0169354   0.0643004   0.1078115), wk =   0.1250000
        k(    7) = (   0.0169354   0.0643004  -0.0935875), wk =   0.1250000
        k(    8) = (   0.0169354   0.0643004  -0.0264545), wk =   0.1250000
        k(    9) = (  -0.0169354   0.0214335  -0.0406785), wk =   0.1250000
        k(   10) = (  -0.0169354   0.0214335  -0.1078115), wk =   0.1250000
        k(   11) = (  -0.0169354   0.0214335   0.0935875), wk =   0.1250000
        k(   12) = (  -0.0169354   0.0214335   0.0264545), wk =   0.1250000
        k(   13) = (  -0.0169354   0.0643004  -0.0406785), wk =   0.1250000
        k(   14) = (  -0.0169354   0.0643004  -0.1078115), wk =   0.1250000
        k(   15) = (  -0.0169354   0.0643004   0.0935875), wk =   0.1250000
        k(   16) = (  -0.0169354   0.0643004   0.0264545), wk =   0.1250000

                       cryst. coord.
        k(    1) = (   0.2500000   0.1250000   0.1250000), wk =   0.1250000
        k(    2) = (   0.2500000   0.1250000   0.3750000), wk =   0.1250000
        k(    3) = (   0.2500000   0.1250000  -0.3750000), wk =   0.1250000
        k(    4) = (   0.2500000   0.1250000  -0.1250000), wk =   0.1250000
        k(    5) = (   0.2500000   0.3750000   0.1250000), wk =   0.1250000
        k(    6) = (   0.2500000   0.3750000   0.3750000), wk =   0.1250000
        k(    7) = (   0.2500000   0.3750000  -0.3750000), wk =   0.1250000
        k(    8) = (   0.2500000   0.3750000  -0.1250000), wk =   0.1250000
        k(    9) = (  -0.2500000   0.1250000  -0.1250000), wk =   0.1250000
        k(   10) = (  -0.2500000   0.1250000  -0.3750000), wk =   0.1250000
        k(   11) = (  -0.2500000   0.1250000   0.3750000), wk =   0.1250000
        k(   12) = (  -0.2500000   0.1250000   0.1250000), wk =   0.1250000
        k(   13) = (  -0.2500000   0.3750000  -0.1250000), wk =   0.1250000
        k(   14) = (  -0.2500000   0.3750000  -0.3750000), wk =   0.1250000
        k(   15) = (  -0.2500000   0.3750000   0.3750000), wk =   0.1250000
        k(   16) = (  -0.2500000   0.3750000   0.1250000), wk =   0.1250000

     Dense  grid:  1155489 G-vectors     FFT dimensions: ( 288, 120,  80)

     Smooth grid:   292295 G-vectors     FFT dimensions: ( 180,  72,  50)

     Estimated max dynamical RAM per process >     147.21MB

     Estimated total allocated dynamical RAM >    4710.62MB

     Initial potential from superposition of free atoms

     starting charge   83.99939, renormalised to   84.00000
     Starting wfc are   72 randomized atomic wfcs
     Checking if some PAW data can be deallocated... 
       node    0, deallocated PAW data for type:  1
       node    0, deallocated PAW data for type:  3
       node    1, deallocated PAW data for type:  1
       node    1, deallocated PAW data for type:  3
       node    2, deallocated PAW data for type:  2
       node    2, deallocated PAW data for type:  3
       node    3, deallocated PAW data for type:  2
       node    3, deallocated PAW data for type:  3
       node    4, deallocated PAW data for type:  2
       node    4, deallocated PAW data for type:  3
       node    5, deallocated PAW data for type:  2
       node    5, deallocated PAW data for type:  3
       node    6, deallocated PAW data for type:  1
       node    6, deallocated PAW data for type:  2
       node    7, deallocated PAW data for type:  1
       node    7, deallocated PAW data for type:  2
       node    8, deallocated PAW data for type:  2
       node    8, deallocated PAW data for type:  3
       node    9, deallocated PAW data for type:  2
       node    9, deallocated PAW data for type:  3
       node   10, deallocated PAW data for type:  1
       node   10, deallocated PAW data for type:  2
       node   11, deallocated PAW data for type:  1
       node   11, deallocated PAW data for type:  2
       node   12, deallocated PAW data for type:  1
       node   12, deallocated PAW data for type:  2
       node   13, deallocated PAW data for type:  1
       node   13, deallocated PAW data for type:  2
       node   14, deallocated PAW data for type:  2
       node   14, deallocated PAW data for type:  3
       node   15, deallocated PAW data for type:  2
       node   15, deallocated PAW data for type:  3
       node   16, deallocated PAW data for type:  1
       node   16, deallocated PAW data for type:  2
       node   17, deallocated PAW data for type:  2
       node   17, deallocated PAW data for type:  3
       node   18, deallocated PAW data for type:  2
       node   18, deallocated PAW data for type:  3
       node   19, deallocated PAW data for type:  1
       node   19, deallocated PAW data for type:  3
       node   20, deallocated PAW data for type:  1
       node   20, deallocated PAW data for type:  2
       node   21, deallocated PAW data for type:  2
       node   21, deallocated PAW data for type:  3
       node   22, deallocated PAW data for type:  1
       node   22, deallocated PAW data for type:  2
       node   23, deallocated PAW data for type:  2
       node   23, deallocated PAW data for type:  3
       node   24, deallocated PAW data for type:  2
       node   24, deallocated PAW data for type:  3
       node   25, deallocated PAW data for type:  1
       node   25, deallocated PAW data for type:  3
       node   26, deallocated PAW data for type:  1
       node   26, deallocated PAW data for type:  2
       node   27, deallocated PAW data for type:  2
       node   27, deallocated PAW data for type:  3
       node   28, deallocated PAW data for type:  1
       node   28, deallocated PAW data for type:  2
       node   29, deallocated PAW data for type:  2
       node   29, deallocated PAW data for type:  3
       node   30, deallocated PAW data for type:  2
       node   30, deallocated PAW data for type:  3
       node   31, deallocated PAW data for type:  1
       node   31, deallocated PAW data for type:  3

     total cpu time spent up to now is        5.3 secs

     per-process dynamical memory:    20.7 Mb

     Self-consistent Calculation

     iteration #  1     ecut=   100.00 Ry     beta= 0.70
     Davidson diagonalization with overlap
     ethr =  1.00E-04,  avg # of iterations =  5.0

     total cpu time spent up to now is       11.9 secs

     total energy              =    -547.10003410 Ry
     Harris-Foulkes estimate   =    -548.99166914 Ry
     estimated scf accuracy    <       2.75971533 Ry

     iteration #  2     ecut=   100.00 Ry     beta= 0.70
     Davidson diagonalization with overlap
     ethr =  3.29E-03,  avg # of iterations =  3.0

     total cpu time spent up to now is       16.8 secs

     total energy              =    -547.50641389 Ry
     Harris-Foulkes estimate   =    -548.61121021 Ry
     estimated scf accuracy    <       2.00041757 Ry

     iteration #  3     ecut=   100.00 Ry     beta= 0.70
     Davidson diagonalization with overlap
     ethr =  2.38E-03,  avg # of iterations =  3.0

     total cpu time spent up to now is       21.2 secs

     total energy              =    -548.00232508 Ry
     Harris-Foulkes estimate   =    -548.04406067 Ry
     estimated scf accuracy    <       0.08379346 Ry

     iteration #  4     ecut=   100.00 Ry     beta= 0.70
     Davidson diagonalization with overlap
     ethr =  9.98E-05,  avg # of iterations =  4.0

     total cpu time spent up to now is       26.0 secs

     total energy              =    -548.02944557 Ry
     Harris-Foulkes estimate   =    -548.04081900 Ry
     estimated scf accuracy    <       0.02262353 Ry

     iteration #  5     ecut=   100.00 Ry     beta= 0.70
     Davidson diagonalization with overlap
     ethr =  2.69E-05,  avg # of iterations =  3.0

     total cpu time spent up to now is       30.4 secs

     total energy              =    -548.03389388 Ry
     Harris-Foulkes estimate   =    -548.03487210 Ry
     estimated scf accuracy    <       0.00184582 Ry

     iteration #  6     ecut=   100.00 Ry     beta= 0.70
     Davidson diagonalization with overlap
     ethr =  2.20E-06,  avg # of iterations =  4.0

     total cpu time spent up to now is       35.2 secs

     total energy              =    -548.03426146 Ry
     Harris-Foulkes estimate   =    -548.03482813 Ry
     estimated scf accuracy    <       0.00135519 Ry

     iteration #  7     ecut=   100.00 Ry     beta= 0.70
     Davidson diagonalization with overlap
     ethr =  1.61E-06,  avg # of iterations =  4.0

     total cpu time spent up to now is       39.5 secs

     total energy              =    -548.03453727 Ry
     Harris-Foulkes estimate   =    -548.03460637 Ry
     estimated scf accuracy    <       0.00017469 Ry

     iteration #  8     ecut=   100.00 Ry     beta= 0.70
     Davidson diagonalization with overlap
     ethr =  2.08E-07,  avg # of iterations =  4.0

     total cpu time spent up to now is       43.9 secs

     total energy              =    -548.03457292 Ry
     Harris-Foulkes estimate   =    -548.03458400 Ry
     estimated scf accuracy    <       0.00002579 Ry

     iteration #  9     ecut=   100.00 Ry     beta= 0.70
     Davidson diagonalization with overlap
     ethr =  3.07E-08,  avg # of iterations =  4.0

     total cpu time spent up to now is       48.6 secs

     total energy              =    -548.03457887 Ry
     Harris-Foulkes estimate   =    -548.03458033 Ry
     estimated scf accuracy    <       0.00000336 Ry

     iteration # 10     ecut=   100.00 Ry     beta= 0.70
     Davidson diagonalization with overlap
     ethr =  4.01E-09,  avg # of iterations =  4.0

     total cpu time spent up to now is       53.2 secs

     total energy              =    -548.03457959 Ry
     Harris-Foulkes estimate   =    -548.03457976 Ry
     estimated scf accuracy    <       0.00000038 Ry

     iteration # 11     ecut=   100.00 Ry     beta= 0.70
     Davidson diagonalization with overlap
     ethr =  4.54E-10,  avg # of iterations =  4.0

     total cpu time spent up to now is       57.9 secs

     End of self-consistent calculation

          k = 0.0169 0.0214 0.0407 ( 36525 PWs)   bands (ev):

   -16.5312 -16.1478 -15.2895 -15.1856 -13.8725 -13.8356 -12.3678 -12.2618
   -11.2545 -11.1776  -9.0132  -8.9208  -8.2320  -8.1478  -6.3869  -6.2118
    -5.3763  -5.2728  -5.0147  -4.7829  -4.2188  -4.1188  -4.0568  -3.8743
    -3.3701  -3.1336  -2.7241  -2.6156  -2.4281  -2.2730  -2.1840  -2.1585
    -1.2086  -1.1038  -1.0379  -0.9468  -0.8644  -0.7602  -0.0298   0.0955
     0.6175   0.7612

     occupation numbers 
     1.0000   1.0000   1.0000   1.0000   1.0000   1.0000   1.0000   1.0000
     1.0000   1.0000   1.0000   1.0000   1.0000   1.0000   1.0000   1.0000
     1.0000   1.0000   1.0000   1.0000   1.0000   1.0000   1.0000   1.0000
     1.0000   1.0000   1.0000   1.0000   1.0000   1.0000   1.0000   1.0000
     1.0000   1.0000   1.0000   1.0000   1.0000   1.0000   1.0000   1.0000
     1.0000   1.0000

          k = 0.0169 0.0214 0.1078 ( 36561 PWs)   bands (ev):

   -16.4712 -16.0657 -15.2395 -15.1263 -13.8685 -13.8042 -12.3564 -12.2409
   -11.2531 -11.1763  -8.9742  -8.8829  -8.1861  -8.1270  -6.4079  -6.2655
    -5.3722  -5.2735  -5.0593  -4.9286  -4.2904  -4.1822  -4.1090  -4.0090
    -3.8610  -3.6848  -2.8158  -2.7196  -2.5848  -2.4300  -2.3734  -2.2969
    -1.3248  -1.1452  -1.1212  -0.9642  -0.9276  -0.7578  -0.2288  -0.1521
     0.6729   0.8527

     occupation numbers 
     1.0000   1.0000   1.0000   1.0000   1.0000   1.0000   1.0000   1.0000
     1.0000   1.0000   1.0000   1.0000   1.0000   1.0000   1.0000   1.0000
     1.0000   1.0000   1.0000   1.0000   1.0000   1.0000   1.0000   1.0000
     1.0000   1.0000   1.0000   1.0000   1.0000   1.0000   1.0000   1.0000
     1.0000   1.0000   1.0000   1.0000   1.0000   1.0000   1.0000   1.0000
     1.0000   1.0000

          k = 0.0169 0.0214-0.0936 ( 36547 PWs)   bands (ev):

   -16.4734 -16.0602 -15.2449 -15.1241 -13.8673 -13.8099 -12.3501 -12.2469
   -11.2528 -11.1683  -9.0016  -8.8543  -8.2244  -8.0734  -6.3886  -6.3124
    -5.3764  -5.2742  -5.0908  -4.9079  -4.2545  -4.1927  -4.1127  -4.0457
    -3.7993  -3.7289  -2.7783  -2.6933  -2.5974  -2.4660  -2.3928  -2.3385
    -1.2772  -1.1727  -1.0793  -1.0152  -0.8833  -0.7379  -0.2596  -0.1008
     0.6804   0.8385

     occupation numbers 
     1.0000   1.0000   1.0000   1.0000   1.0000   1.0000   1.0000   1.0000
     1.0000   1.0000   1.0000   1.0000   1.0000   1.0000   1.0000   1.0000
     1.0000   1.0000   1.0000   1.0000   1.0000   1.0000   1.0000   1.0000
     1.0000   1.0000   1.0000   1.0000   1.0000   1.0000   1.0000   1.0000
     1.0000   1.0000   1.0000   1.0000   1.0000   1.0000   1.0000   1.0000
     1.0000   1.0000

          k = 0.0169 0.0214-0.0265 ( 36551 PWs)   bands (ev):

   -16.5333 -16.1427 -15.2946 -15.1833 -13.8696 -13.8427 -12.3620 -12.2677
   -11.2573 -11.1662  -9.0429  -8.8927  -8.2704  -8.0891  -6.3957  -6.2298
    -5.3877  -5.2766  -5.0588  -4.7361  -4.2445  -4.0970  -3.9754  -3.9350
    -3.3497  -3.1641  -2.7839  -2.5391  -2.4026  -2.3394  -2.2193  -2.1556
    -1.1839  -1.1266  -0.9968  -0.9290  -0.8696  -0.7363  -0.0631   0.1402
     0.6304   0.7506

     occupation numbers 
     1.0000   1.0000   1.0000   1.0000   1.0000   1.0000   1.0000   1.0000
     1.0000   1.0000   1.0000   1.0000   1.0000   1.0000   1.0000   1.0000
     1.0000   1.0000   1.0000   1.0000   1.0000   1.0000   1.0000   1.0000
     1.0000   1.0000   1.0000   1.0000   1.0000   1.0000   1.0000   1.0000
     1.0000   1.0000   1.0000   1.0000   1.0000   1.0000   1.0000   1.0000
     1.0000   1.0000

          k = 0.0169 0.0643 0.0407 ( 36518 PWs)   bands (ev):

   -16.5116 -16.1198 -15.2925 -15.1920 -13.9127 -13.8794 -12.4070 -12.2939
   -11.2586 -11.1681  -8.9155  -8.8428  -8.1265  -8.0548  -6.4250  -6.2947
    -5.3527  -5.2442  -5.0918  -4.8910  -4.3112  -4.2177  -4.0833  -3.9631
    -3.4379  -3.2067  -2.6297  -2.5614  -2.4689  -2.3583  -2.1416  -2.0961
    -1.0617  -0.9908  -0.8979  -0.8406  -0.7970  -0.7503   0.0196   0.1020
     0.6681   0.7796

     occupation numbers 
     1.0000   1.0000   1.0000   1.0000   1.0000   1.0000   1.0000   1.0000
     1.0000   1.0000   1.0000   1.0000   1.0000   1.0000   1.0000   1.0000
     1.0000   1.0000   1.0000   1.0000   1.0000   1.0000   1.0000   1.0000
     1.0000   1.0000   1.0000   1.0000   1.0000   1.0000   1.0000   1.0000
     1.0000   1.0000   1.0000   1.0000   1.0000   1.0000   1.0000   1.0000
     1.0000   1.0000

          k = 0.0169 0.0643 0.1078 ( 36558 PWs)   bands (ev):

   -16.4573 -16.0503 -15.2359 -15.1274 -13.8864 -13.8328 -12.3772 -12.2545
   -11.2674 -11.1977  -8.9313  -8.8657  -8.1641  -8.1144  -6.3959  -6.2572
    -5.3594  -5.2612  -4.9871  -4.7972  -4.2835  -4.2243  -4.1169  -4.0274
    -3.9460  -3.8710  -2.7852  -2.7085  -2.6021  -2.4772  -2.4126  -2.2503
    -1.2673  -1.0984  -1.0565  -0.9957  -0.9242  -0.7882  -0.0703  -0.0086
     0.6795   0.8249

     occupation numbers 
     1.0000   1.0000   1.0000   1.0000   1.0000   1.0000   1.0000   1.0000
     1.0000   1.0000   1.0000   1.0000   1.0000   1.0000   1.0000   1.0000
     1.0000   1.0000   1.0000   1.0000   1.0000   1.0000   1.0000   1.0000
     1.0000   1.0000   1.0000   1.0000   1.0000   1.0000   1.0000   1.0000
     1.0000   1.0000   1.0000   1.0000   1.0000   1.0000   1.0000   1.0000
     1.0000   1.0000

          k = 0.0169 0.0643-0.0936 ( 36547 PWs)   bands (ev):

   -16.4595 -16.0447 -15.2404 -15.1262 -13.8884 -13.8351 -12.3709 -12.2605
   -11.2701 -11.1874  -8.9586  -8.8348  -8.2010  -8.0656  -6.3866  -6.2969
    -5.3647  -5.2637  -4.9424  -4.8368  -4.3077  -4.1928  -4.1079  -4.0460
    -3.9397  -3.8749  -2.7782  -2.7226  -2.5936  -2.5477  -2.3392  -2.2958
    -1.2164  -1.1132  -1.0560  -0.9739  -0.9208  -0.7835  -0.1020   0.0339
     0.6904   0.8152

     occupation numbers 
     1.0000   1.0000   1.0000   1.0000   1.0000   1.0000   1.0000   1.0000
     1.0000   1.0000   1.0000   1.0000   1.0000   1.0000   1.0000   1.0000
     1.0000   1.0000   1.0000   1.0000   1.0000   1.0000   1.0000   1.0000
     1.0000   1.0000   1.0000   1.0000   1.0000   1.0000   1.0000   1.0000
     1.0000   1.0000   1.0000   1.0000   1.0000   1.0000   1.0000   1.0000
     1.0000   1.0000

          k = 0.0169 0.0643-0.0265 ( 36489 PWs)   bands (ev):

   -16.5137 -16.1146 -15.2967 -15.1907 -13.9154 -13.8809 -12.4006 -12.2995
   -11.2635 -11.1567  -8.9411  -8.8144  -8.1621  -8.0019  -6.4430  -6.3148
    -5.3483  -5.2471  -5.0634  -4.9198  -4.3153  -4.1625  -4.0999  -4.0105
    -3.4063  -3.2447  -2.6428  -2.5073  -2.4641  -2.3883  -2.1557  -2.1077
    -1.0970  -0.9655  -0.9210  -0.8235  -0.7652  -0.7131  -0.0064   0.1438
     0.6796   0.7699

     occupation numbers 
     1.0000   1.0000   1.0000   1.0000   1.0000   1.0000   1.0000   1.0000
     1.0000   1.0000   1.0000   1.0000   1.0000   1.0000   1.0000   1.0000
     1.0000   1.0000   1.0000   1.0000   1.0000   1.0000   1.0000   1.0000
     1.0000   1.0000   1.0000   1.0000   1.0000   1.0000   1.0000   1.0000
     1.0000   1.0000   1.0000   1.0000   1.0000   1.0000   1.0000   1.0000
     1.0000   1.0000

          k =-0.0169 0.0214-0.0407 ( 36525 PWs)   bands (ev):

   -16.5332 -16.1430 -15.2933 -15.1843 -13.8764 -13.8361 -12.3619 -12.2670
   -11.2598 -11.1651  -9.0413  -8.8902  -8.2558  -8.1125  -6.3651  -6.2623
    -5.3849  -5.2644  -4.9921  -4.8177  -4.1996  -4.1056  -4.0114  -3.9591
    -3.3382  -3.1635  -2.7534  -2.5493  -2.4115  -2.3440  -2.1998  -2.1497
    -1.1937  -1.1069  -1.0084  -0.9369  -0.8847  -0.7273  -0.0617   0.1412
     0.6225   0.7572

     occupation numbers 
     1.0000   1.0000   1.0000   1.0000   1.0000   1.0000   1.0000   1.0000
     1.0000   1.0000   1.0000   1.0000   1.0000   1.0000   1.0000   1.0000
     1.0000   1.0000   1.0000   1.0000   1.0000   1.0000   1.0000   1.0000
     1.0000   1.0000   1.0000   1.0000   1.0000   1.0000   1.0000   1.0000
     1.0000   1.0000   1.0000   1.0000   1.0000   1.0000   1.0000   1.0000
     1.0000   1.0000

          k =-0.0169 0.0214-0.1078 ( 36561 PWs)   bands (ev):

   -16.4733 -16.0603 -15.2440 -15.1248 -13.8727 -13.8045 -12.3502 -12.2467
   -11.2571 -11.1644  -9.0021  -8.8529  -8.2210  -8.0787  -6.3917  -6.3068
    -5.3814  -5.2652  -5.0524  -4.9622  -4.2851  -4.1910  -4.0710  -4.0250
    -3.8141  -3.7260  -2.8373  -2.7254  -2.5704  -2.4345  -2.3594  -2.3324
    -1.3045  -1.1718  -1.0866  -1.0104  -0.8662  -0.7416  -0.2657  -0.1007
     0.6792   0.8432

     occupation numbers 
     1.0000   1.0000   1.0000   1.0000   1.0000   1.0000   1.0000   1.0000
     1.0000   1.0000   1.0000   1.0000   1.0000   1.0000   1.0000   1.0000
     1.0000   1.0000   1.0000   1.0000   1.0000   1.0000   1.0000   1.0000
     1.0000   1.0000   1.0000   1.0000   1.0000   1.0000   1.0000   1.0000
     1.0000   1.0000   1.0000   1.0000   1.0000   1.0000   1.0000   1.0000
     1.0000   1.0000

          k =-0.0169 0.0214 0.0936 ( 36547 PWs)   bands (ev):

   -16.4713 -16.0655 -15.2403 -15.1256 -13.8634 -13.8093 -12.3562 -12.2413
   -11.2488 -11.1800  -8.9736  -8.8841  -8.1962  -8.1154  -6.4091  -6.2668
    -5.3743  -5.2748  -5.0840  -4.8872  -4.2695  -4.1838  -4.1091  -4.0661
    -3.8406  -3.6921  -2.7722  -2.6707  -2.5947  -2.4796  -2.3922  -2.3184
    -1.2828  -1.1756  -1.0749  -1.0069  -0.9242  -0.7588  -0.2207  -0.1551
     0.6760   0.8470

     occupation numbers 
     1.0000   1.0000   1.0000   1.0000   1.0000   1.0000   1.0000   1.0000
     1.0000   1.0000   1.0000   1.0000   1.0000   1.0000   1.0000   1.0000
     1.0000   1.0000   1.0000   1.0000   1.0000   1.0000   1.0000   1.0000
     1.0000   1.0000   1.0000   1.0000   1.0000   1.0000   1.0000   1.0000
     1.0000   1.0000   1.0000   1.0000   1.0000   1.0000   1.0000   1.0000
     1.0000   1.0000

          k =-0.0169 0.0214 0.0265 ( 36551 PWs)   bands (ev):

   -16.5313 -16.1475 -15.2910 -15.1844 -13.8681 -13.8399 -12.3684 -12.2617
   -11.2535 -11.1779  -9.0178  -8.9185  -8.2572  -8.1152  -6.4045  -6.1983
    -5.3812  -5.2792  -5.0566  -4.7193  -4.2500  -4.1254  -4.0097  -3.8734
    -3.3692  -3.1499  -2.7367  -2.6049  -2.4285  -2.2710  -2.2033  -2.1588
    -1.2143  -1.1219  -0.9913  -0.9211  -0.8887  -0.7697  -0.0297   0.0934
     0.6336   0.7470

     occupation numbers 
     1.0000   1.0000   1.0000   1.0000   1.0000   1.0000   1.0000   1.0000
     1.0000   1.0000   1.0000   1.0000   1.0000   1.0000   1.0000   1.0000
     1.0000   1.0000   1.0000   1.0000   1.0000   1.0000   1.0000   1.0000
     1.0000   1.0000   1.0000   1.0000   1.0000   1.0000   1.0000   1.0000
     1.0000   1.0000   1.0000   1.0000   1.0000   1.0000   1.0000   1.0000
     1.0000   1.0000

          k =-0.0169 0.0643-0.0407 ( 36518 PWs)   bands (ev):

   -16.5137 -16.1147 -15.2969 -15.1903 -13.9193 -13.8768 -12.4011 -12.2998
   -11.2642 -11.1546  -8.9419  -8.8140  -8.1624  -8.0062  -6.4086  -6.3362
    -5.3487  -5.2466  -5.0515  -4.9602  -4.2930  -4.2172  -4.0800  -3.9685
    -3.4025  -3.2468  -2.6467  -2.5194  -2.4607  -2.4116  -2.1550  -2.0898
    -1.0711  -0.9630  -0.8829  -0.8349  -0.7896  -0.7390  -0.0086   0.1435
     0.6752   0.7770

     occupation numbers 
     1.0000   1.0000   1.0000   1.0000   1.0000   1.0000   1.0000   1.0000
     1.0000   1.0000   1.0000   1.0000   1.0000   1.0000   1.0000   1.0000
     1.0000   1.0000   1.0000   1.0000   1.0000   1.0000   1.0000   1.0000
     1.0000   1.0000   1.0000   1.0000   1.0000   1.0000   1.0000   1.0000
     1.0000   1.0000   1.0000   1.0000   1.0000   1.0000   1.0000   1.0000
     1.0000   1.0000

          k =-0.0169 0.0643-0.1078 ( 36558 PWs)   bands (ev):

   -16.4595 -16.0447 -15.2407 -15.1259 -13.8915 -13.8320 -12.3710 -12.2605
   -11.2718 -11.1855  -8.9592  -8.8346  -8.2004  -8.0673  -6.3796  -6.2995
    -5.3642  -5.2535  -4.9230  -4.8847  -4.2951  -4.2014  -4.0854  -4.0368
    -3.9476  -3.9014  -2.7683  -2.7212  -2.5748  -2.4847  -2.3847  -2.3264
    -1.2526  -1.1258  -1.0318  -0.9790  -0.8908  -0.7854  -0.1036   0.0372
     0.6829   0.8195

     occupation numbers 
     1.0000   1.0000   1.0000   1.0000   1.0000   1.0000   1.0000   1.0000
     1.0000   1.0000   1.0000   1.0000   1.0000   1.0000   1.0000   1.0000
     1.0000   1.0000   1.0000   1.0000   1.0000   1.0000   1.0000   1.0000
     1.0000   1.0000   1.0000   1.0000   1.0000   1.0000   1.0000   1.0000
     1.0000   1.0000   1.0000   1.0000   1.0000   1.0000   1.0000   1.0000
     1.0000   1.0000

          k =-0.0169 0.0643 0.0936 ( 36547 PWs)   bands (ev):

   -16.4573 -16.0503 -15.2355 -15.1279 -13.8837 -13.8355 -12.3770 -12.2547
   -11.2664 -11.1990  -8.9304  -8.8658  -8.1682  -8.1096  -6.4035  -6.2541
    -5.3650  -5.2649  -4.9852  -4.7683  -4.2815  -4.2438  -4.1285  -4.0221
    -3.9424  -3.8590  -2.7908  -2.7107  -2.6054  -2.5635  -2.3519  -2.2265
    -1.1952  -1.1524  -1.0678  -0.9868  -0.9202  -0.8066  -0.0727  -0.0092
     0.6866   0.8221

     occupation numbers 
     1.0000   1.0000   1.0000   1.0000   1.0000   1.0000   1.0000   1.0000
     1.0000   1.0000   1.0000   1.0000   1.0000   1.0000   1.0000   1.0000
     1.0000   1.0000   1.0000   1.0000   1.0000   1.0000   1.0000   1.0000
     1.0000   1.0000   1.0000   1.0000   1.0000   1.0000   1.0000   1.0000
     1.0000   1.0000   1.0000   1.0000   1.0000   1.0000   1.0000   1.0000
     1.0000   1.0000

          k =-0.0169 0.0643 0.0265 ( 36489 PWs)   bands (ev):

   -16.5117 -16.1197 -15.2924 -15.1921 -13.9106 -13.8817 -12.4070 -12.2926
   -11.2597 -11.1691  -8.9175  -8.8386  -8.1309  -8.0473  -6.4452  -6.2925
    -5.3514  -5.2451  -5.0816  -4.8647  -4.2682  -4.2264  -4.1097  -4.0112
    -3.4367  -3.2118  -2.6140  -2.5315  -2.4526  -2.3827  -2.1424  -2.1068
    -1.1052  -0.9775  -0.8894  -0.8439  -0.8040  -0.7242   0.0205   0.1054
     0.6840   0.7610

     occupation numbers 
     1.0000   1.0000   1.0000   1.0000   1.0000   1.0000   1.0000   1.0000
     1.0000   1.0000   1.0000   1.0000   1.0000   1.0000   1.0000   1.0000
     1.0000   1.0000   1.0000   1.0000   1.0000   1.0000   1.0000   1.0000
     1.0000   1.0000   1.0000   1.0000   1.0000   1.0000   1.0000   1.0000
     1.0000   1.0000   1.0000   1.0000   1.0000   1.0000   1.0000   1.0000
     1.0000   1.0000

     highest occupied level (ev):     0.8527

!    total energy              =    -548.03457968 Ry
     Harris-Foulkes estimate   =    -548.03457971 Ry
     estimated scf accuracy    <       0.00000004 Ry

     total all-electron energy =     -4615.878067 Ry

     The total energy is the sum of the following terms:

     one-electron contribution =    -155.27770251 Ry
     hartree contribution      =     109.02269838 Ry
     xc contribution           =    -104.26418703 Ry
     ewald contribution        =    -141.73022938 Ry
     one-center paw contrib.   =    -255.78515914 Ry
      -> PAW hartree energy AE =      19.93382723 Ry
      -> PAW hartree energy PS =     -19.82807871 Ry
      -> PAW xc energy AE      =     -55.79913052 Ry
      -> PAW xc energy PS      =      10.24817054 Ry
      -> total E_H with PAW    =     109.12844691 Ry
      -> total E_XC with PAW   =    -149.81514700 Ry

     convergence has been achieved in  11 iterations
 writing file ./scratch/scf-2241.save/charge-density
 writing file ./scratch/scf-2241.save/charge-density
 writing file ./scratch/scf-2241.save/charge-density
 writing file ./scratch/scf-2241.save/charge-density
 writing file ./scratch/scf-2241.save/charge-density
 writing file ./scratch/scf-2241.save/charge-density
 writing file ./scratch/scf-2241.save/charge-density
 writing file ./scratch/scf-2241.save/charge-density
 writing file ./scratch/scf-2241.save/charge-density
 writing file ./scratch/scf-2241.save/charge-density
 writing file ./scratch/scf-2241.save/charge-density
 writing file ./scratch/scf-2241.save/charge-density
 writing file ./scratch/scf-2241.save/charge-density
 writing file ./scratch/scf-2241.save/charge-density
 writing file ./scratch/scf-2241.save/charge-density
 writing file ./scratch/scf-2241.save/charge-density
 writing file ./scratch/scf-2241.save/charge-density
 writing file ./scratch/scf-2241.save/charge-density
 writing file ./scratch/scf-2241.save/charge-density
 writing file ./scratch/scf-2241.save/charge-density
 writing file ./scratch/scf-2241.save/charge-density
 writing file ./scratch/scf-2241.save/charge-density
 writing file ./scratch/scf-2241.save/charge-density
 writing file ./scratch/scf-2241.save/charge-density
 writing file ./scratch/scf-2241.save/charge-density
 writing file ./scratch/scf-2241.save/charge-density
 writing file ./scratch/scf-2241.save/charge-density
 writing file ./scratch/scf-2241.save/charge-density
 writing file ./scratch/scf-2241.save/charge-density
 writing file ./scratch/scf-2241.save/charge-density
 writing file ./scratch/scf-2241.save/charge-density
 writing file ./scratch/scf-2241.save/charge-density

     Forces acting on atoms (cartesian axes, Ry/au):

     atom    1 type  2   force =     0.10277293   -0.06943357    0.01122670
     atom    2 type  1   force =    -0.07103110    0.05206579   -0.01389350
     atom    3 type  1   force =     0.00858330    0.00926291   -0.01148926
     atom    4 type  3   force =    -0.00026433   -0.00217775    0.00317631
     atom    5 type  1   force =    -0.01865849   -0.00048980    0.01190324
     atom    6 type  3   force =     0.00065929    0.00025113   -0.00194160
     atom    7 type  3   force =    -0.00122910    0.00121037    0.00296943
     atom    8 type  1   force =    -0.00409781   -0.01941016   -0.01471088
     atom    9 type  3   force =     0.00097674   -0.00208504   -0.00498647
     atom   10 type  1   force =    -0.01265734   -0.00131794    0.00915961
     atom   11 type  1   force =    -0.01091567   -0.02263967    0.01121631
     atom   12 type  2   force =     0.01580504    0.03479043   -0.00771189
     atom   13 type  3   force =     0.00154824    0.00275564   -0.00436539
     atom   14 type  1   force =    -0.03223732    0.00991635    0.01682930
     atom   15 type  3   force =    -0.00338513   -0.00418420    0.00522034
     atom   16 type  1   force =    -0.00309466    0.02276504   -0.01848870
     atom   17 type  1   force =    -0.04122769    0.01426877    0.01271666
     atom   18 type  2   force =     0.06622199   -0.04010273   -0.00594506
     atom   19 type  3   force =    -0.00086891    0.00135063    0.00023478
     atom   20 type  1   force =     0.00584440   -0.00708155   -0.01548081
     atom   21 type  3   force =    -0.00020764   -0.00068375   -0.00377610
     atom   22 type  1   force =    -0.00589315    0.00022479    0.00679868
     atom   23 type  1   force =    -0.04072298   -0.00945760    0.01423989
     atom   24 type  2   force =     0.04407937    0.03020189   -0.00290158
     The non-local contrib.  to forces
     atom    1 type  2   force =    -0.27084640    0.25917886    0.02872805
     atom    2 type  1   force =     0.32532334   -0.27382093   -0.01269120
     atom    3 type  1   force =    -0.03082785   -0.03080266   -0.05682571
     atom    4 type  3   force =    -0.06468568   -0.01905596   -0.04032406
     atom    5 type  1   force =    -0.05162758   -0.03631428   -0.03297429
     atom    6 type  3   force =    -0.00278398   -0.06702146   -0.04076579
     atom    7 type  3   force =     0.00620364   -0.06624527    0.04249554
     atom    8 type  1   force =     0.02260694   -0.08445136    0.00457599
     atom    9 type  3   force =     0.06784549   -0.01962291    0.03333331
     atom   10 type  1   force =     0.00422553   -0.05054186    0.05015973
     atom   11 type  1   force =    -0.39129208   -0.33865635    0.03131751
     atom   12 type  2   force =     0.27849282    0.28160903   -0.02531820
     atom   13 type  3   force =     0.00456437    0.06878093    0.03810052
     atom   14 type  1   force =    -0.02276645    0.04304650    0.06314190
     atom   15 type  3   force =     0.06258911    0.01707578    0.04437185
     atom   16 type  1   force =     0.02903261    0.09001938    0.00890693
     atom   17 type  1   force =    -0.42375962    0.30365229    0.02877337
     atom   18 type  2   force =     0.32053511   -0.23335171   -0.02419249
     atom   19 type  3   force =    -0.00546510    0.06493249   -0.04402689
     atom   20 type  1   force =    -0.02602875    0.02798333   -0.06323631
     atom   21 type  3   force =    -0.06604677    0.01539911   -0.04086362
     atom   22 type  1   force =    -0.05746864    0.04207987   -0.05593722
     atom   23 type  1   force =     0.34849412    0.31845082   -0.00596653
     atom   24 type  2   force =    -0.28821967   -0.26040752    0.01742290
     The ionic contribution  to forces
     atom    1 type  2   force =     7.77590309   -5.32062320    1.03878589
     atom    2 type  1   force =     2.46991698   -1.01236841    0.98305125
     atom    3 type  1   force =     4.75431999    1.85374006    3.26407162
     atom    4 type  3   force =     2.16130114    0.78358656    1.35420405
     atom    5 type  1   force =     1.72205096    4.17959511    2.35141434
     atom    6 type  3   force =     0.43571920    1.88470512    1.35292180
     atom    7 type  3   force =    -0.60246940    1.87485046   -1.36652233
     atom    8 type  1   force =    -2.29565944    3.99934242   -2.53198514
     atom    9 type  3   force =    -2.39401756    0.64962062   -1.20886792
     atom   10 type  1   force =    -5.44805612    1.49119504   -3.06427651
     atom   11 type  1   force =    -3.53785901   -1.68067835   -0.75378418
     atom   12 type  2   force =    -6.55611546   -3.60592224   -0.96214194
     atom   13 type  3   force =    -0.18881637   -1.96008947   -1.19054927
     atom   14 type  1   force =    -0.56174104   -3.69301666   -2.51404821
     atom   15 type  3   force =    -1.90297142   -0.62102815   -1.28849817
     atom   16 type  1   force =    -3.95059434   -1.78235276   -2.15014445
     atom   17 type  1   force =    -2.12277788    2.07671878   -0.41792688
     atom   18 type  2   force =    -3.37778008    2.77268580    0.25791978
     atom   19 type  3   force =     0.24994172   -1.87754876    1.27916357
     atom   20 type  1   force =     0.42815566   -3.80653913    2.39527294
     atom   21 type  3   force =     1.91942851   -0.67289432    1.13229193
     atom   22 type  1   force =     3.79806233   -1.91759159    2.08594589
     atom   23 type  1   force =     1.58176497    1.21360241   -0.33242990
     atom   24 type  2   force =     5.64229356    5.17101065    0.28613185
     The local contribution  to forces
     atom    1 type  2   force =    -7.40904266    4.99939778   -1.05483258
     atom    2 type  1   force =    -2.85877374    1.33239908   -0.98392931
     atom    3 type  1   force =    -4.71391350   -1.81359340   -3.21806043
     atom    4 type  3   force =    -2.09690546   -0.76670361   -1.31071496
     atom    5 type  1   force =    -1.68939169   -4.14227492   -2.30631125
     atom    6 type  3   force =    -0.43226618   -1.81745826   -1.31410519
     atom    7 type  3   force =     0.59503516   -1.80738212    1.32699247
     atom    8 type  1   force =     2.26876299   -3.93363878    2.51193837
     atom    9 type  3   force =     2.32713157   -0.63208261    1.17054114
     atom   10 type  1   force =     5.42949597   -1.44228835    3.02267343
     atom   11 type  1   force =     3.90763719    1.98775662    0.73426273
     atom   12 type  2   force =     6.30544278    3.37194837    0.97846636
     atom   13 type  3   force =     0.18581461    1.89405087    1.14808709
     atom   14 type  1   force =     0.55189750    3.65893234    2.46706208
     atom   15 type  3   force =     1.83698302    0.59976961    1.24933608
     atom   16 type  1   force =     3.91703179    1.71577229    2.12226144
     atom   17 type  1   force =     2.49380646   -2.35731210    0.40215425
     atom   18 type  2   force =     3.13922864   -2.59079790   -0.24077329
     atom   19 type  3   force =    -0.24533801    1.81397286   -1.23490351
     atom   20 type  1   force =    -0.39646696    3.77030860   -2.34694012
     atom   21 type  3   force =    -1.85360046    0.65680931   -1.09520989
     atom   22 type  1   force =    -3.74550445    1.87554007   -2.02329722
     atom   23 type  1   force =    -1.96207338   -1.53435013    0.35190440
     atom   24 type  2   force =    -5.31989108   -4.88955340   -0.30587579
     The core correction contribution to forces
     atom    1 type  2   force =     0.00677359   -0.00741475   -0.00141775
     atom    2 type  1   force =    -0.00746882    0.00594617   -0.00027318
     atom    3 type  1   force =    -0.00100712    0.00003594   -0.00063394
     atom    4 type  3   force =     0.00000000    0.00000000    0.00000000
     atom    5 type  1   force =     0.00039606   -0.00150940   -0.00019989
     atom    6 type  3   force =     0.00000000    0.00000000    0.00000000
     atom    7 type  3   force =     0.00000000    0.00000000    0.00000000
     atom    8 type  1   force =     0.00019374   -0.00061701    0.00074827
     atom    9 type  3   force =     0.00000000    0.00000000    0.00000000
     atom   10 type  1   force =     0.00159671    0.00031934    0.00056933
     atom   11 type  1   force =     0.01057246    0.00889935   -0.00058275
     atom   12 type  2   force =    -0.01211666   -0.01283363    0.00121720
     atom   13 type  3   force =     0.00000000    0.00000000    0.00000000
     atom   14 type  1   force =     0.00045624    0.00091239    0.00067774
     atom   15 type  3   force =     0.00000000    0.00000000    0.00000000
     atom   16 type  1   force =     0.00147908   -0.00062183    0.00051669
     atom   17 type  1   force =     0.01160767   -0.00867140   -0.00019505
     atom   18 type  2   force =    -0.01561939    0.01131126    0.00111213
     atom   19 type  3   force =     0.00000000    0.00000000    0.00000000
     atom   20 type  1   force =     0.00025585    0.00113616   -0.00054859
     atom   21 type  3   force =     0.00000000    0.00000000    0.00000000
     atom   22 type  1   force =    -0.00095752    0.00015252    0.00011029
     atom   23 type  1   force =    -0.00887155   -0.00717786    0.00076577
     atom   24 type  2   force =     0.00985640    0.00920125   -0.00057610
     The Hubbard contrib.    to forces
     atom    1 type  2   force =     0.00000000    0.00000000    0.00000000
     atom    2 type  1   force =     0.00000000    0.00000000    0.00000000
     atom    3 type  1   force =     0.00000000    0.00000000    0.00000000
     atom    4 type  3   force =     0.00000000    0.00000000    0.00000000
     atom    5 type  1   force =     0.00000000    0.00000000    0.00000000
     atom    6 type  3   force =     0.00000000    0.00000000    0.00000000
     atom    7 type  3   force =     0.00000000    0.00000000    0.00000000
     atom    8 type  1   force =     0.00000000    0.00000000    0.00000000
     atom    9 type  3   force =     0.00000000    0.00000000    0.00000000
     atom   10 type  1   force =     0.00000000    0.00000000    0.00000000
     atom   11 type  1   force =     0.00000000    0.00000000    0.00000000
     atom   12 type  2   force =     0.00000000    0.00000000    0.00000000
     atom   13 type  3   force =     0.00000000    0.00000000    0.00000000
     atom   14 type  1   force =     0.00000000    0.00000000    0.00000000
     atom   15 type  3   force =     0.00000000    0.00000000    0.00000000
     atom   16 type  1   force =     0.00000000    0.00000000    0.00000000
     atom   17 type  1   force =     0.00000000    0.00000000    0.00000000
     atom   18 type  2   force =     0.00000000    0.00000000    0.00000000
     atom   19 type  3   force =     0.00000000    0.00000000    0.00000000
     atom   20 type  1   force =     0.00000000    0.00000000    0.00000000
     atom   21 type  3   force =     0.00000000    0.00000000    0.00000000
     atom   22 type  1   force =     0.00000000    0.00000000    0.00000000
     atom   23 type  1   force =     0.00000000    0.00000000    0.00000000
     atom   24 type  2   force =     0.00000000    0.00000000    0.00000000
     The SCF correction term to forces
     atom    1 type  2   force =    -0.00001330    0.00002888   -0.00003635
     atom    2 type  1   force =    -0.00002747   -0.00008897   -0.00005049
     atom    3 type  1   force =     0.00001318   -0.00011588   -0.00004023
     atom    4 type  3   force =     0.00002706   -0.00000358    0.00001185
     atom    5 type  1   force =    -0.00008485    0.00001483   -0.00002510
     atom    6 type  3   force =    -0.00000835    0.00002688    0.00000814
     atom    7 type  3   force =     0.00000290   -0.00001155    0.00000433
     atom    8 type  1   force =    -0.00000065   -0.00004428    0.00001220
     atom    9 type  3   force =     0.00001863    0.00000102    0.00000758
     atom   10 type  1   force =     0.00008196   -0.00000096    0.00003420
     atom   11 type  1   force =     0.00002715    0.00004022    0.00000358
     atom   12 type  2   force =     0.00010294   -0.00000995    0.00006526
     atom   13 type  3   force =    -0.00001297    0.00001446   -0.00000317
     atom   14 type  1   force =    -0.00008217    0.00004293   -0.00000363
     atom   15 type  3   force =     0.00001556   -0.00000029    0.00001114
     atom   16 type  1   force =    -0.00004240   -0.00005089   -0.00002873
     atom   17 type  1   force =    -0.00010292   -0.00011765   -0.00008845
     atom   18 type  2   force =    -0.00014090    0.00005098   -0.00001063
     atom   19 type  3   force =    -0.00000613   -0.00000480    0.00000218
     atom   20 type  1   force =    -0.00007000    0.00003063   -0.00002815
     atom   21 type  3   force =     0.00001247    0.00000330    0.00000606
     atom   22 type  1   force =    -0.00002346    0.00004507   -0.00002248
     atom   23 type  1   force =    -0.00003575    0.00001831   -0.00003328
     atom   24 type  2   force =     0.00004155   -0.00004794   -0.00000388

     Total force =     0.207703     Total SCF correction =     0.000391

     Writing output data file scf-2241.save
 writing file ./scratch/scf-2241.save/charge-density
 writing file ./scratch/scf-2241.save/charge-density
 writing file ./scratch/scf-2241.save/charge-density
 writing file ./scratch/scf-2241.save/charge-density
 writing file ./scratch/scf-2241.save/charge-density
 writing file ./scratch/scf-2241.save/charge-density
 writing file ./scratch/scf-2241.save/charge-density
 writing file ./scratch/scf-2241.save/charge-density
 writing file ./scratch/scf-2241.save/charge-density
 writing file ./scratch/scf-2241.save/charge-density
 writing file ./scratch/scf-2241.save/charge-density
 writing file ./scratch/scf-2241.save/charge-density
 writing file ./scratch/scf-2241.save/charge-density
 writing file ./scratch/scf-2241.save/charge-density
 writing file ./scratch/scf-2241.save/charge-density
 writing file ./scratch/scf-2241.save/charge-density
 writing file ./scratch/scf-2241.save/charge-density
 writing file ./scratch/scf-2241.save/charge-density
 writing file ./scratch/scf-2241.save/charge-density
 writing file ./scratch/scf-2241.save/charge-density
 writing file ./scratch/scf-2241.save/charge-density
 writing file ./scratch/scf-2241.save/charge-density
 writing file ./scratch/scf-2241.save/charge-density
 writing file ./scratch/scf-2241.save/charge-density
 writing file ./scratch/scf-2241.save/charge-density
 writing file ./scratch/scf-2241.save/charge-density
 writing file ./scratch/scf-2241.save/charge-density
 writing file ./scratch/scf-2241.save/charge-density
 writing file ./scratch/scf-2241.save/charge-density
 writing file ./scratch/scf-2241.save/charge-density
 writing file ./scratch/scf-2241.save/charge-density
 writing file ./scratch/scf-2241.save/charge-density
 
     init_run     :      4.37s CPU      4.59s WALL (       1 calls)
     electrons    :     49.82s CPU     52.73s WALL (       1 calls)
     forces       :      2.32s CPU      2.48s WALL (       1 calls)

     Called by init_run:
     wfcinit      :      1.60s CPU      1.62s WALL (       1 calls)
     wfcinit:atom :      0.02s CPU      0.02s WALL (      16 calls)
     wfcinit:wfcr :      1.47s CPU      1.50s WALL (      16 calls)
     potinit      :      0.89s CPU      0.91s WALL (       1 calls)

     Called by electrons:
     c_bands      :     39.06s CPU     39.33s WALL (      11 calls)
     sum_band     :      6.72s CPU      7.94s WALL (      11 calls)
     v_of_rho     :      0.89s CPU      0.97s WALL (      12 calls)
     v_h          :      0.06s CPU      0.06s WALL (      12 calls)
     v_xc         :      0.90s CPU      0.98s WALL (      13 calls)
     newd         :      1.49s CPU      2.87s WALL (      12 calls)
     PAW_pot      :      1.63s CPU      1.69s WALL (      12 calls)
     mix_rho      :      0.14s CPU      0.14s WALL (      11 calls)

     Called by c_bands:
     init_us_2    :      0.87s CPU      0.88s WALL (     384 calls)
     cegterg      :     36.75s CPU     36.95s WALL (     176 calls)

     Called by sum_band:
     sum_band:bec :      0.02s CPU      0.02s WALL (     176 calls)
     addusdens    :      1.52s CPU      2.69s WALL (      11 calls)

     Called by *egterg:
     h_psi        :     27.28s CPU     27.43s WALL (     864 calls)
     s_psi        :      2.09s CPU      2.01s WALL (     864 calls)
     g_psi        :      0.15s CPU      0.16s WALL (     672 calls)
     cdiaghg      :      3.54s CPU      3.50s WALL (     848 calls)
     cegterg:over :      1.65s CPU      1.68s WALL (     672 calls)
     cegterg:upda :      1.20s CPU      1.28s WALL (     672 calls)
     cegterg:last :      0.42s CPU      0.43s WALL (     192 calls)

     Called by h_psi:
     h_psi:pot    :     26.96s CPU     27.16s WALL (     864 calls)
     h_psi:calbec :      2.28s CPU      2.25s WALL (     864 calls)
     vloc_psi     :     22.77s CPU     22.95s WALL (     864 calls)
     add_vuspsi   :      1.90s CPU      1.96s WALL (     864 calls)

     General routines
     calbec       :      3.04s CPU      3.00s WALL (    1104 calls)
     fft          :      0.73s CPU      0.78s WALL (     199 calls)
     ffts         :      0.02s CPU      0.03s WALL (      23 calls)
     fftw         :     21.28s CPU     21.35s WALL (   55666 calls)
     interpolate  :      0.15s CPU      0.15s WALL (      23 calls)
     davcio       :      0.00s CPU      0.01s WALL (      16 calls)
 
     Parallel routines
     fft_scatter  :      7.53s CPU      7.51s WALL (   55888 calls)

     PAW routines
     PAW_pot      :      1.63s CPU      1.69s WALL (      12 calls)
 
     PWSCF        :  0m57.20s CPU     1m 1.02s WALL

 
   This run was terminated on:  15:58:53  20May2017            

=------------------------------------------------------------------------------=
   JOB DONE.
=------------------------------------------------------------------------------=
