
     Program PWSCF v.6.1 starts on 20May2017 at 13: 5:36 

     This program is part of the open-source Quantum ESPRESSO suite
     for quantum simulation of materials; please cite
         "P. Giannozzi et al., J. Phys.:Condens. Matter 21 395502 (2009);
          URL http://www.quantum-espresso.org", 
     in publications or presentations arising from this work. More details at
     http://www.quantum-espresso.org/quote

     Parallel version (MPI & OpenMP), running on      32 processor cores
     Number of MPI processes:                32
     Threads/MPI process:                     1
     R & G space division:  proc/nbgrp/npool/nimage =      32
     Waiting for input...
     Reading input from standard input
Warning: card &IONS ignored
Warning: card     ION_TEMPERATURE   = 'INITIAL' ignored
Warning: card     TEMPW             = 586.D0 ignored
Warning: card     TOLP              = 100.D0 ignored
Warning: card     DELTA_T           = 1.D0 ignored
Warning: card     NRAISE            = 1 ignored
Warning: card / ignored
Warning: card &CELL ignored
Warning: card     CELL_DYNAMICS     = 'BFGS' ignored
Warning: card / ignored

     Current dimensions of program PWSCF are:
     Max number of different atomic species (ntypx) = 10
     Max number of k-points (npk) =  40000
     Max angular momentum in pseudopotentials (lmaxx) =  3
               file C.pbe-n-kjpaw_psl.1.0.0.UPF: wavefunction(s)  2S 2P renormalized
               file Cl.pbe-n-kjpaw_psl.1.0.0.UPF: wavefunction(s)  3S 3P renormalized
               file H.pbe-kjpaw_psl.1.0.0.UPF: wavefunction(s)  1S renormalized

     Subspace diagonalization in iterative solution of the eigenvalue problem:
     a serial algorithm will be used

 
     Parallelization info
     --------------------
     sticks:   dense  smooth     PW     G-vecs:    dense   smooth      PW
     Min         764     305     83                36108     9133    1292
     Max         765     306     84                36110     9135    1293
     Sum       24467    9791   2657              1155489   292295   41363
 


     bravais-lattice index     =            0
     lattice parameter (alat)  =       1.8897  a.u.
     unit-cell volume          =    2163.5316 (a.u.)^3
     number of atoms/cell      =           24
     number of atomic types    =            3
     number of electrons       =        84.00
     number of Kohn-Sham states=           42
     kinetic-energy cutoff     =     100.0000  Ry
     charge density cutoff     =    1000.0000  Ry
     convergence threshold     =      1.0E-07
     mixing beta               =       0.7000
     number of iterations used =            8  plain     mixing
     Exchange-correlation      =  SLA  PW   PBX  PBC ( 1  4  3  4 0 0)

     celldm(1)=   1.889726  celldm(2)=   0.000000  celldm(3)=   0.000000
     celldm(4)=   0.000000  celldm(5)=   0.000000  celldm(6)=   0.000000

     crystal axes: (cart. coord. in units of alat)
               a(1) = (  14.762000   0.000000   0.000000 )  
               a(2) = (   0.000000   5.832000   0.000000 )  
               a(3) = (  -1.563876   0.000000   3.723951 )  

     reciprocal axes: (cart. coord. in units 2 pi/alat)
               b(1) = (  0.067741  0.000000  0.028448 )  
               b(2) = (  0.000000  0.171468  0.000000 )  
               b(3) = (  0.000000  0.000000  0.268532 )  


     PseudoPot. # 1 for  C read from file:
     /global/cscratch1/sd/almno10/.data/PSEUDOPOTENTIALS/C.pbe-n-kjpaw_psl.1.0.0.UPF
     MD5 check sum: 2ba8448e293caca687844dde9a1b88a8
     Pseudo is Projector augmented-wave + core cor, Zval =  4.0
     Generated using "atomic" code by A. Dal Corso  v.5.3.0 svn rev. 11974
     Shape of augmentation charge: PSQ
     Using radial grid of 1073 points,  4 beta functions with: 
                l(1) =   0
                l(2) =   0
                l(3) =   1
                l(4) =   1
     Q(r) pseudized with 0 coefficients 


     PseudoPot. # 2 for Cl read from file:
     /global/cscratch1/sd/almno10/.data/PSEUDOPOTENTIALS/Cl.pbe-n-kjpaw_psl.1.0.0.UPF
     MD5 check sum: dca63699d6b897c5771335df08a09219
     Pseudo is Projector augmented-wave + core cor, Zval =  7.0
     Generated using "atomic" code by A. Dal Corso  v.5.3.0 svn rev. 11974
     Shape of augmentation charge: PSQ
     Using radial grid of 1157 points,  6 beta functions with: 
                l(1) =   0
                l(2) =   0
                l(3) =   1
                l(4) =   1
                l(5) =   2
                l(6) =   2
     Q(r) pseudized with 0 coefficients 


     PseudoPot. # 3 for  H read from file:
     /global/cscratch1/sd/almno10/.data/PSEUDOPOTENTIALS/H.pbe-kjpaw_psl.1.0.0.UPF
     MD5 check sum: bc0feb48a24907a0b97fa6ee2d589a29
     Pseudo is Projector augmented-wave, Zval =  1.0
     Generated using "atomic" code by A. Dal Corso  v.5.3.0 svn rev. 11974
     Shape of augmentation charge: PSQ
     Using radial grid of  929 points,  2 beta functions with: 
                l(1) =   0
                l(2) =   0
     Q(r) pseudized with 0 coefficients 


     atomic species   valence    mass     pseudopotential
        C              4.00    12.01100      C( 1.00)
        Cl             7.00    35.45270     Cl( 1.00)
        H              1.00     1.00790      H( 1.00)

     No symmetry found


                                    s                        frac. trans.

      isym =  1     identity                                     

 cryst.   s( 1) = (     1          0          0      )
                  (     0          1          0      )
                  (     0          0          1      )

 cart.    s( 1) = (  1.0000000  0.0000000 -0.0000000 )
                  (  0.0000000  1.0000000  0.0000000 )
                  (  0.0000000  0.0000000  1.0000000 )


   Cartesian axes

     site n.     atom                  positions (alat units)
         1           Cl  tau(   1) = (  16.6164234   1.3584653   1.9680614  )
         2           C   tau(   2) = (  14.9868995   2.2900663   1.9716280  )
         3           C   tau(   3) = (  15.0603080   3.4900254   2.6777597  )
         4           H   tau(   4) = (  15.9975499   3.8444719   3.1043039  )
         5           C   tau(   5) = (  13.9667853   4.3498166   2.5862295  )
         6           H   tau(   6) = (  13.9746601   5.2963238   3.1244624  )
         7           H   tau(   7) = (   6.6231247   1.6744541   0.0986620  )
         8           C   tau(   8) = (   6.6379893   0.8673702   0.8281490  )
         9           H   tau(   9) = (   4.6524378   0.1823326   0.3357156  )
        10           C   tau(  10) = (   5.5448710   0.0055802   0.9338309  )
        11           C   tau(  11) = (   5.5602008  -1.0356055   1.8616209  )
        12           Cl  tau(  12) = (   4.1211822  -2.0598007   1.8572854  )
        13           H   tau(  13) = (  13.7887274   0.9578721   0.7843039  )
        14           C   tau(  14) = (  13.8138985   1.9011508   1.3253586  )
        15           H   tau(  15) = (  11.7736289   2.4029574   0.8443891  )
        16           C   tau(  16) = (  12.6812638   2.7146406   1.3562696  )
        17           C   tau(  17) = (  12.7601111   3.9043714   2.0474379  )
        18           Cl  tau(  18) = (  11.3955496   4.8589531   2.0365052  )
        19           H   tau(  19) = (   6.7031121  -2.0969224   3.3770490  )
        20           C   tau(  20) = (   6.6852235  -1.2894454   2.6465935  )
        21           H   tau(  21) = (   8.6695119  -0.6044651   3.1329021  )
        22           C   tau(  22) = (   7.7798633  -0.4345512   2.5300364  )
        23           C   tau(  23) = (   7.7650378   0.6061311   1.6043079  )
        24           Cl  tau(  24) = (   9.1075947   1.7174204   1.5800800  )

   Crystallographic axes

     site n.     atom                  positions (cryst. coord.)
         1           Cl  tau(   1) = (  1.1816090  0.2329330  0.5284874  )
         2           C   tau(   2) = (  1.0713241  0.3926726  0.5294451  )
         3           C   tau(   3) = (  1.0963850  0.5984269  0.7190641  )
         4           H   tau(   4) = (  1.1720095  0.6592030  0.8336048  )
         5           C   tau(   5) = (  1.0197042  0.7458533  0.6944853  )
         6           H   tau(   6) = (  1.0355494  0.9081488  0.8390180  )
         7           H   tau(   7) = (  0.4514671  0.2871149  0.0264939  )
         8           C   tau(   8) = (  0.4732266  0.1487260  0.2223845  )
         9           H   tau(   9) = (  0.3247136  0.0312642  0.0901504  )
        10           C   tau(  10) = (  0.4021836  0.0009568  0.2507635  )
        11           C   tau(  11) = (  0.4296159 -0.1775730  0.4999047  )
        12           Cl  tau(  12) = (  0.3320113 -0.3531894  0.4987405  )
        13           H   tau(  13) = (  0.9563810  0.1642442  0.2106107  )
        14           C   tau(  14) = (  0.9734781  0.3259861  0.3559011  )
        15           H   tau(  15) = (  0.8215845  0.4120297  0.2267455  )
        16           C   tau(  16) = (  0.8976311  0.4654734  0.3642017  )
        17           C   tau(  17) = (  0.9226347  0.6694738  0.5498025  )
        18           Cl  tau(  18) = (  0.8298863  0.8331538  0.5468668  )
        19           H   tau(  19) = (  0.5501494 -0.3595546  0.9068456  )
        20           C   tau(  20) = (  0.5281576 -0.2210983  0.7106950  )
        21           H   tau(  21) = (  0.6764108 -0.1036463  0.8412844  )
        22           C   tau(  22) = (  0.5989943 -0.0745115  0.6793957  )
        23           C   tau(  23) = (  0.5716548  0.1039319  0.4308080  )
        24           Cl  tau(  24) = (  0.6619124  0.2944822  0.4243020  )

     number of k points=    16
                       cart. coord. in units 2pi/alat
        k(    1) = (   0.0169354   0.0214335   0.0406785), wk =   0.1250000
        k(    2) = (   0.0169354   0.0214335   0.1078115), wk =   0.1250000
        k(    3) = (   0.0169354   0.0214335  -0.0935875), wk =   0.1250000
        k(    4) = (   0.0169354   0.0214335  -0.0264545), wk =   0.1250000
        k(    5) = (   0.0169354   0.0643004   0.0406785), wk =   0.1250000
        k(    6) = (   0.0169354   0.0643004   0.1078115), wk =   0.1250000
        k(    7) = (   0.0169354   0.0643004  -0.0935875), wk =   0.1250000
        k(    8) = (   0.0169354   0.0643004  -0.0264545), wk =   0.1250000
        k(    9) = (  -0.0169354   0.0214335  -0.0406785), wk =   0.1250000
        k(   10) = (  -0.0169354   0.0214335  -0.1078115), wk =   0.1250000
        k(   11) = (  -0.0169354   0.0214335   0.0935875), wk =   0.1250000
        k(   12) = (  -0.0169354   0.0214335   0.0264545), wk =   0.1250000
        k(   13) = (  -0.0169354   0.0643004  -0.0406785), wk =   0.1250000
        k(   14) = (  -0.0169354   0.0643004  -0.1078115), wk =   0.1250000
        k(   15) = (  -0.0169354   0.0643004   0.0935875), wk =   0.1250000
        k(   16) = (  -0.0169354   0.0643004   0.0264545), wk =   0.1250000

                       cryst. coord.
        k(    1) = (   0.2500000   0.1250000   0.1250000), wk =   0.1250000
        k(    2) = (   0.2500000   0.1250000   0.3750000), wk =   0.1250000
        k(    3) = (   0.2500000   0.1250000  -0.3750000), wk =   0.1250000
        k(    4) = (   0.2500000   0.1250000  -0.1250000), wk =   0.1250000
        k(    5) = (   0.2500000   0.3750000   0.1250000), wk =   0.1250000
        k(    6) = (   0.2500000   0.3750000   0.3750000), wk =   0.1250000
        k(    7) = (   0.2500000   0.3750000  -0.3750000), wk =   0.1250000
        k(    8) = (   0.2500000   0.3750000  -0.1250000), wk =   0.1250000
        k(    9) = (  -0.2500000   0.1250000  -0.1250000), wk =   0.1250000
        k(   10) = (  -0.2500000   0.1250000  -0.3750000), wk =   0.1250000
        k(   11) = (  -0.2500000   0.1250000   0.3750000), wk =   0.1250000
        k(   12) = (  -0.2500000   0.1250000   0.1250000), wk =   0.1250000
        k(   13) = (  -0.2500000   0.3750000  -0.1250000), wk =   0.1250000
        k(   14) = (  -0.2500000   0.3750000  -0.3750000), wk =   0.1250000
        k(   15) = (  -0.2500000   0.3750000   0.3750000), wk =   0.1250000
        k(   16) = (  -0.2500000   0.3750000   0.1250000), wk =   0.1250000

     Dense  grid:  1155489 G-vectors     FFT dimensions: ( 288, 120,  80)

     Smooth grid:   292295 G-vectors     FFT dimensions: ( 180,  72,  50)

     Estimated max dynamical RAM per process >     147.21MB

     Estimated total allocated dynamical RAM >    4710.62MB

     Initial potential from superposition of free atoms

     starting charge   83.99939, renormalised to   84.00000
     Starting wfc are   72 randomized atomic wfcs
     Checking if some PAW data can be deallocated... 
       node    0, deallocated PAW data for type:  1
       node    0, deallocated PAW data for type:  3
       node    1, deallocated PAW data for type:  1
       node    1, deallocated PAW data for type:  3
       node    2, deallocated PAW data for type:  2
       node    2, deallocated PAW data for type:  3
       node    3, deallocated PAW data for type:  2
       node    3, deallocated PAW data for type:  3
       node    4, deallocated PAW data for type:  2
       node    4, deallocated PAW data for type:  3
       node    5, deallocated PAW data for type:  2
       node    5, deallocated PAW data for type:  3
       node    6, deallocated PAW data for type:  1
       node    6, deallocated PAW data for type:  2
       node    7, deallocated PAW data for type:  1
       node    7, deallocated PAW data for type:  2
       node    8, deallocated PAW data for type:  2
       node    8, deallocated PAW data for type:  3
       node    9, deallocated PAW data for type:  2
       node    9, deallocated PAW data for type:  3
       node   10, deallocated PAW data for type:  1
       node   10, deallocated PAW data for type:  2
       node   11, deallocated PAW data for type:  1
       node   11, deallocated PAW data for type:  2
       node   12, deallocated PAW data for type:  1
       node   12, deallocated PAW data for type:  2
       node   13, deallocated PAW data for type:  1
       node   13, deallocated PAW data for type:  2
       node   14, deallocated PAW data for type:  2
       node   14, deallocated PAW data for type:  3
       node   15, deallocated PAW data for type:  2
       node   15, deallocated PAW data for type:  3
       node   16, deallocated PAW data for type:  1
       node   16, deallocated PAW data for type:  2
       node   17, deallocated PAW data for type:  2
       node   17, deallocated PAW data for type:  3
       node   18, deallocated PAW data for type:  2
       node   18, deallocated PAW data for type:  3
       node   19, deallocated PAW data for type:  1
       node   19, deallocated PAW data for type:  3
       node   20, deallocated PAW data for type:  1
       node   20, deallocated PAW data for type:  2
       node   21, deallocated PAW data for type:  2
       node   21, deallocated PAW data for type:  3
       node   22, deallocated PAW data for type:  1
       node   22, deallocated PAW data for type:  2
       node   23, deallocated PAW data for type:  2
       node   23, deallocated PAW data for type:  3
       node   24, deallocated PAW data for type:  2
       node   24, deallocated PAW data for type:  3
       node   25, deallocated PAW data for type:  1
       node   25, deallocated PAW data for type:  3
       node   26, deallocated PAW data for type:  1
       node   26, deallocated PAW data for type:  2
       node   27, deallocated PAW data for type:  2
       node   27, deallocated PAW data for type:  3
       node   28, deallocated PAW data for type:  1
       node   28, deallocated PAW data for type:  2
       node   29, deallocated PAW data for type:  2
       node   29, deallocated PAW data for type:  3
       node   30, deallocated PAW data for type:  2
       node   30, deallocated PAW data for type:  3
       node   31, deallocated PAW data for type:  1
       node   31, deallocated PAW data for type:  3

     total cpu time spent up to now is        5.3 secs

     per-process dynamical memory:    20.7 Mb

     Self-consistent Calculation

     iteration #  1     ecut=   100.00 Ry     beta= 0.70
     Davidson diagonalization with overlap
     ethr =  1.00E-04,  avg # of iterations =  5.0

     total cpu time spent up to now is       12.1 secs

     total energy              =    -547.11272144 Ry
     Harris-Foulkes estimate   =    -548.98039078 Ry
     estimated scf accuracy    <       2.73485997 Ry

     iteration #  2     ecut=   100.00 Ry     beta= 0.70
     Davidson diagonalization with overlap
     ethr =  3.26E-03,  avg # of iterations =  3.0

     total cpu time spent up to now is       16.9 secs

     total energy              =    -547.50630574 Ry
     Harris-Foulkes estimate   =    -548.60147308 Ry
     estimated scf accuracy    <       1.98068840 Ry

     iteration #  3     ecut=   100.00 Ry     beta= 0.70
     Davidson diagonalization with overlap
     ethr =  2.36E-03,  avg # of iterations =  3.0

     total cpu time spent up to now is       21.3 secs

     total energy              =    -547.99886374 Ry
     Harris-Foulkes estimate   =    -548.04407556 Ry
     estimated scf accuracy    <       0.09048298 Ry

     iteration #  4     ecut=   100.00 Ry     beta= 0.70
     Davidson diagonalization with overlap
     ethr =  1.08E-04,  avg # of iterations =  3.4

     total cpu time spent up to now is       26.1 secs

     total energy              =    -548.02718752 Ry
     Harris-Foulkes estimate   =    -548.03841366 Ry
     estimated scf accuracy    <       0.02229964 Ry

     iteration #  5     ecut=   100.00 Ry     beta= 0.70
     Davidson diagonalization with overlap
     ethr =  2.65E-05,  avg # of iterations =  3.0

     total cpu time spent up to now is       30.5 secs

     total energy              =    -548.03180068 Ry
     Harris-Foulkes estimate   =    -548.03234669 Ry
     estimated scf accuracy    <       0.00111534 Ry

     iteration #  6     ecut=   100.00 Ry     beta= 0.70
     Davidson diagonalization with overlap
     ethr =  1.33E-06,  avg # of iterations =  4.0

     total cpu time spent up to now is       35.4 secs

     total energy              =    -548.03211479 Ry
     Harris-Foulkes estimate   =    -548.03228598 Ry
     estimated scf accuracy    <       0.00035203 Ry

     iteration #  7     ecut=   100.00 Ry     beta= 0.70
     Davidson diagonalization with overlap
     ethr =  4.19E-07,  avg # of iterations =  4.0

     total cpu time spent up to now is       40.1 secs

     total energy              =    -548.03219567 Ry
     Harris-Foulkes estimate   =    -548.03221864 Ry
     estimated scf accuracy    <       0.00005209 Ry

     iteration #  8     ecut=   100.00 Ry     beta= 0.70
     Davidson diagonalization with overlap
     ethr =  6.20E-08,  avg # of iterations =  4.0

     total cpu time spent up to now is       44.7 secs

     total energy              =    -548.03220468 Ry
     Harris-Foulkes estimate   =    -548.03221582 Ry
     estimated scf accuracy    <       0.00002756 Ry

     iteration #  9     ecut=   100.00 Ry     beta= 0.70
     Davidson diagonalization with overlap
     ethr =  3.28E-08,  avg # of iterations =  4.0

     total cpu time spent up to now is       49.0 secs

     total energy              =    -548.03221038 Ry
     Harris-Foulkes estimate   =    -548.03221175 Ry
     estimated scf accuracy    <       0.00000364 Ry

     iteration # 10     ecut=   100.00 Ry     beta= 0.70
     Davidson diagonalization with overlap
     ethr =  4.34E-09,  avg # of iterations =  4.0

     total cpu time spent up to now is       53.5 secs

     total energy              =    -548.03221107 Ry
     Harris-Foulkes estimate   =    -548.03221129 Ry
     estimated scf accuracy    <       0.00000050 Ry

     iteration # 11     ecut=   100.00 Ry     beta= 0.70
     Davidson diagonalization with overlap
     ethr =  5.91E-10,  avg # of iterations =  4.0

     total cpu time spent up to now is       58.0 secs

     End of self-consistent calculation

          k = 0.0169 0.0214 0.0407 ( 36525 PWs)   bands (ev):

   -16.4132 -16.0041 -15.2786 -15.1497 -13.8952 -13.8363 -12.4150 -12.2697
   -11.3429 -11.1993  -9.0618  -8.9125  -8.2499  -8.1281  -6.4270  -6.2308
    -5.3953  -5.2567  -5.0115  -4.7817  -4.2464  -4.1390  -4.0380  -3.8811
    -3.3530  -3.0537  -2.7177  -2.5787  -2.4527  -2.2579  -2.1766  -2.0999
    -1.2591  -1.1408  -0.9899  -0.9292  -0.8765  -0.7031  -0.0734  -0.0489
     0.5193   0.6979

     occupation numbers 
     1.0000   1.0000   1.0000   1.0000   1.0000   1.0000   1.0000   1.0000
     1.0000   1.0000   1.0000   1.0000   1.0000   1.0000   1.0000   1.0000
     1.0000   1.0000   1.0000   1.0000   1.0000   1.0000   1.0000   1.0000
     1.0000   1.0000   1.0000   1.0000   1.0000   1.0000   1.0000   1.0000
     1.0000   1.0000   1.0000   1.0000   1.0000   1.0000   1.0000   1.0000
     1.0000   1.0000

          k = 0.0169 0.0214 0.1078 ( 36561 PWs)   bands (ev):

   -16.3482 -15.8889 -15.2230 -15.0981 -13.8821 -13.8095 -12.3960 -12.3025
   -11.3524 -11.2146  -9.0285  -8.8831  -8.2170  -8.1454  -6.4353  -6.2731
    -5.4021  -5.2607  -4.9818  -4.9091  -4.2844  -4.2398  -4.1277  -4.0102
    -3.8592  -3.7023  -2.8563  -2.6669  -2.5702  -2.4186  -2.3449  -2.2633
    -1.3167  -1.1426  -1.0944  -1.0204  -0.8892  -0.7018  -0.3054  -0.0534
     0.5950   0.8330

     occupation numbers 
     1.0000   1.0000   1.0000   1.0000   1.0000   1.0000   1.0000   1.0000
     1.0000   1.0000   1.0000   1.0000   1.0000   1.0000   1.0000   1.0000
     1.0000   1.0000   1.0000   1.0000   1.0000   1.0000   1.0000   1.0000
     1.0000   1.0000   1.0000   1.0000   1.0000   1.0000   1.0000   1.0000
     1.0000   1.0000   1.0000   1.0000   1.0000   1.0000   1.0000   1.0000
     1.0000   1.0000

          k = 0.0169 0.0214-0.0936 ( 36547 PWs)   bands (ev):

   -16.3501 -15.8823 -15.2299 -15.0952 -13.8873 -13.8098 -12.3892 -12.3092
   -11.3529 -11.2079  -9.0535  -8.8493  -8.2398  -8.1056  -6.4342  -6.2971
    -5.4086  -5.2528  -5.0706  -4.8510  -4.2742  -4.1968  -4.1656  -4.0492
    -3.8099  -3.7354  -2.7696  -2.6676  -2.5575  -2.4661  -2.4282  -2.2946
    -1.2088  -1.1560  -1.1394  -0.9925  -0.8720  -0.6767  -0.3465  -0.0132
     0.6045   0.8183

     occupation numbers 
     1.0000   1.0000   1.0000   1.0000   1.0000   1.0000   1.0000   1.0000
     1.0000   1.0000   1.0000   1.0000   1.0000   1.0000   1.0000   1.0000
     1.0000   1.0000   1.0000   1.0000   1.0000   1.0000   1.0000   1.0000
     1.0000   1.0000   1.0000   1.0000   1.0000   1.0000   1.0000   1.0000
     1.0000   1.0000   1.0000   1.0000   1.0000   1.0000   1.0000   1.0000
     1.0000   1.0000

          k = 0.0169 0.0214-0.0265 ( 36551 PWs)   bands (ev):

   -16.4151 -15.9982 -15.2851 -15.1465 -13.9005 -13.8353 -12.4087 -12.2782
   -11.3447 -11.1895  -9.0870  -8.8810  -8.2868  -8.0672  -6.4587  -6.2170
    -5.4049  -5.2439  -5.1075  -4.7201  -4.3196  -4.1492  -3.9581  -3.8354
    -3.3355  -3.1100  -2.8140  -2.5299  -2.4069  -2.3066  -2.1821  -2.1127
    -1.2130  -1.0886  -1.0083  -0.9492  -0.8712  -0.6674  -0.0890  -0.0434
     0.5445   0.6814

     occupation numbers 
     1.0000   1.0000   1.0000   1.0000   1.0000   1.0000   1.0000   1.0000
     1.0000   1.0000   1.0000   1.0000   1.0000   1.0000   1.0000   1.0000
     1.0000   1.0000   1.0000   1.0000   1.0000   1.0000   1.0000   1.0000
     1.0000   1.0000   1.0000   1.0000   1.0000   1.0000   1.0000   1.0000
     1.0000   1.0000   1.0000   1.0000   1.0000   1.0000   1.0000   1.0000
     1.0000   1.0000

          k = 0.0169 0.0643 0.0407 ( 36518 PWs)   bands (ev):

   -16.3960 -15.9828 -15.2828 -15.1530 -13.9194 -13.8591 -12.4656 -12.2913
   -11.3587 -11.1951  -8.9690  -8.8636  -8.1787  -8.0817  -6.4051  -6.2705
    -5.3696  -5.2292  -5.0110  -4.9236  -4.3322  -4.2813  -4.1185  -3.8676
    -3.4102  -3.1437  -2.6677  -2.5890  -2.4046  -2.2930  -2.1238  -2.0952
    -1.1051  -0.9692  -0.9360  -0.8596  -0.8327  -0.7197  -0.0938   0.0138
     0.5906   0.7261

     occupation numbers 
     1.0000   1.0000   1.0000   1.0000   1.0000   1.0000   1.0000   1.0000
     1.0000   1.0000   1.0000   1.0000   1.0000   1.0000   1.0000   1.0000
     1.0000   1.0000   1.0000   1.0000   1.0000   1.0000   1.0000   1.0000
     1.0000   1.0000   1.0000   1.0000   1.0000   1.0000   1.0000   1.0000
     1.0000   1.0000   1.0000   1.0000   1.0000   1.0000   1.0000   1.0000
     1.0000   1.0000

          k = 0.0169 0.0643 0.1078 ( 36558 PWs)   bands (ev):

   -16.3360 -15.8802 -15.2217 -15.0958 -13.8782 -13.8333 -12.4286 -12.3032
   -11.3713 -11.2317  -8.9814  -8.9021  -8.1981  -8.1579  -6.4029  -6.2703
    -5.3827  -5.2642  -4.9539  -4.8122  -4.2733  -4.1965  -4.1098  -4.0526
    -3.9863  -3.8343  -2.7490  -2.6486  -2.5438  -2.4712  -2.3882  -2.2819
    -1.2725  -1.1198  -1.0676  -0.9788  -0.9096  -0.7960  -0.1581   0.0932
     0.6267   0.8155

     occupation numbers 
     1.0000   1.0000   1.0000   1.0000   1.0000   1.0000   1.0000   1.0000
     1.0000   1.0000   1.0000   1.0000   1.0000   1.0000   1.0000   1.0000
     1.0000   1.0000   1.0000   1.0000   1.0000   1.0000   1.0000   1.0000
     1.0000   1.0000   1.0000   1.0000   1.0000   1.0000   1.0000   1.0000
     1.0000   1.0000   1.0000   1.0000   1.0000   1.0000   1.0000   1.0000
     1.0000   1.0000

          k = 0.0169 0.0643-0.0936 ( 36547 PWs)   bands (ev):

   -16.3379 -15.8737 -15.2271 -15.0943 -13.8907 -13.8262 -12.4217 -12.3098
   -11.3744 -11.2238  -9.0038  -8.8661  -8.2171  -8.1289  -6.4036  -6.3038
    -5.3855  -5.2549  -4.8951  -4.8653  -4.3212  -4.1927  -4.1036  -4.0379
    -3.9479  -3.8719  -2.7603  -2.6501  -2.5812  -2.5325  -2.3298  -2.2758
    -1.2009  -1.1559  -1.0318  -1.0105  -0.8756  -0.7816  -0.1976   0.1310
     0.6358   0.8051

     occupation numbers 
     1.0000   1.0000   1.0000   1.0000   1.0000   1.0000   1.0000   1.0000
     1.0000   1.0000   1.0000   1.0000   1.0000   1.0000   1.0000   1.0000
     1.0000   1.0000   1.0000   1.0000   1.0000   1.0000   1.0000   1.0000
     1.0000   1.0000   1.0000   1.0000   1.0000   1.0000   1.0000   1.0000
     1.0000   1.0000   1.0000   1.0000   1.0000   1.0000   1.0000   1.0000
     1.0000   1.0000

          k = 0.0169 0.0643-0.0265 ( 36489 PWs)   bands (ev):

   -16.3978 -15.9771 -15.2877 -15.1511 -13.9290 -13.8546 -12.4587 -12.2976
   -11.3630 -11.1875  -8.9898  -8.8287  -8.2008  -8.0405  -6.4267  -6.3038
    -5.3645  -5.2289  -4.9906  -4.9110  -4.3355  -4.2007  -4.1766  -3.9621
    -3.3856  -3.1762  -2.6330  -2.4913  -2.4331  -2.3885  -2.1271  -2.1044
    -1.1002  -0.9546  -0.9172  -0.8666  -0.8092  -0.6788  -0.0703  -0.0197
     0.6011   0.7187

     occupation numbers 
     1.0000   1.0000   1.0000   1.0000   1.0000   1.0000   1.0000   1.0000
     1.0000   1.0000   1.0000   1.0000   1.0000   1.0000   1.0000   1.0000
     1.0000   1.0000   1.0000   1.0000   1.0000   1.0000   1.0000   1.0000
     1.0000   1.0000   1.0000   1.0000   1.0000   1.0000   1.0000   1.0000
     1.0000   1.0000   1.0000   1.0000   1.0000   1.0000   1.0000   1.0000
     1.0000   1.0000

          k =-0.0169 0.0214-0.0407 ( 36525 PWs)   bands (ev):

   -16.4149 -15.9990 -15.2813 -15.1497 -13.9026 -13.8337 -12.4087 -12.2763
   -11.3464 -11.1903  -9.0875  -8.8762  -8.2678  -8.0960  -6.4208  -6.2535
    -5.4054  -5.2436  -5.0477  -4.8053  -4.2375  -4.1224  -4.0001  -3.9149
    -3.3236  -3.1084  -2.7474  -2.5401  -2.4078  -2.3462  -2.1720  -2.0898
    -1.2545  -1.1290  -0.9597  -0.9272  -0.8609  -0.6836  -0.0876  -0.0441
     0.5255   0.6968

     occupation numbers 
     1.0000   1.0000   1.0000   1.0000   1.0000   1.0000   1.0000   1.0000
     1.0000   1.0000   1.0000   1.0000   1.0000   1.0000   1.0000   1.0000
     1.0000   1.0000   1.0000   1.0000   1.0000   1.0000   1.0000   1.0000
     1.0000   1.0000   1.0000   1.0000   1.0000   1.0000   1.0000   1.0000
     1.0000   1.0000   1.0000   1.0000   1.0000   1.0000   1.0000   1.0000
     1.0000   1.0000

          k =-0.0169 0.0214-0.1078 ( 36561 PWs)   bands (ev):

   -16.3501 -15.8826 -15.2275 -15.0974 -13.8902 -13.8068 -12.3888 -12.3095
   -11.3543 -11.2068  -9.0533  -8.8490  -8.2343  -8.1133  -6.4294  -6.2954
    -5.4086  -5.2535  -5.0223  -4.9314  -4.2828  -4.2095  -4.1491  -3.9821
    -3.8049  -3.7534  -2.8652  -2.6806  -2.5619  -2.4172  -2.3790  -2.2724
    -1.3144  -1.1333  -1.0842  -0.9897  -0.8740  -0.6733  -0.3489  -0.0166
     0.5982   0.8241

     occupation numbers 
     1.0000   1.0000   1.0000   1.0000   1.0000   1.0000   1.0000   1.0000
     1.0000   1.0000   1.0000   1.0000   1.0000   1.0000   1.0000   1.0000
     1.0000   1.0000   1.0000   1.0000   1.0000   1.0000   1.0000   1.0000
     1.0000   1.0000   1.0000   1.0000   1.0000   1.0000   1.0000   1.0000
     1.0000   1.0000   1.0000   1.0000   1.0000   1.0000   1.0000   1.0000
     1.0000   1.0000

          k =-0.0169 0.0214 0.0936 ( 36547 PWs)   bands (ev):

   -16.3483 -15.8884 -15.2268 -15.0947 -13.8763 -13.8156 -12.3959 -12.3031
   -11.3480 -11.2179  -9.0286  -8.8845  -8.2354  -8.1246  -6.4380  -6.2684
    -5.4029  -5.2553  -5.0732  -4.8056  -4.2934  -4.2257  -4.1580  -4.0513
    -3.8177  -3.6997  -2.7860  -2.6612  -2.6034  -2.4412  -2.3641  -2.2908
    -1.2273  -1.1660  -1.1275  -1.0123  -0.9046  -0.7032  -0.2998  -0.0550
     0.6016   0.8273

     occupation numbers 
     1.0000   1.0000   1.0000   1.0000   1.0000   1.0000   1.0000   1.0000
     1.0000   1.0000   1.0000   1.0000   1.0000   1.0000   1.0000   1.0000
     1.0000   1.0000   1.0000   1.0000   1.0000   1.0000   1.0000   1.0000
     1.0000   1.0000   1.0000   1.0000   1.0000   1.0000   1.0000   1.0000
     1.0000   1.0000   1.0000   1.0000   1.0000   1.0000   1.0000   1.0000
     1.0000   1.0000

          k =-0.0169 0.0214 0.0265 ( 36551 PWs)   bands (ev):

   -16.4134 -16.0032 -15.2828 -15.1461 -13.8889 -13.8423 -12.4158 -12.2700
   -11.3418 -11.1983  -9.0653  -8.9125  -8.2848  -8.0828  -6.4608  -6.1923
    -5.3952  -5.2592  -5.1353  -4.6426  -4.3186  -4.1068  -3.9883  -3.8586
    -3.3550  -3.0884  -2.8166  -2.5487  -2.4295  -2.2477  -2.1822  -2.0958
    -1.1976  -1.1298  -1.0299  -0.9556  -0.8830  -0.6884  -0.0740  -0.0507
     0.5405   0.6817

     occupation numbers 
     1.0000   1.0000   1.0000   1.0000   1.0000   1.0000   1.0000   1.0000
     1.0000   1.0000   1.0000   1.0000   1.0000   1.0000   1.0000   1.0000
     1.0000   1.0000   1.0000   1.0000   1.0000   1.0000   1.0000   1.0000
     1.0000   1.0000   1.0000   1.0000   1.0000   1.0000   1.0000   1.0000
     1.0000   1.0000   1.0000   1.0000   1.0000   1.0000   1.0000   1.0000
     1.0000   1.0000

          k =-0.0169 0.0643-0.0407 ( 36518 PWs)   bands (ev):

   -16.3977 -15.9774 -15.2860 -15.1529 -13.9269 -13.8562 -12.4598 -12.2981
   -11.3621 -11.1858  -8.9929  -8.8285  -8.2019  -8.0442  -6.4014  -6.2919
    -5.3642  -5.2304  -5.0714  -4.9247  -4.3700  -4.2297  -4.0270  -3.9341
    -3.3831  -3.1840  -2.7090  -2.5555  -2.3980  -2.3658  -2.1150  -2.0745
    -1.1008  -0.9555  -0.8971  -0.8658  -0.8095  -0.7020  -0.0730  -0.0200
     0.5963   0.7266

     occupation numbers 
     1.0000   1.0000   1.0000   1.0000   1.0000   1.0000   1.0000   1.0000
     1.0000   1.0000   1.0000   1.0000   1.0000   1.0000   1.0000   1.0000
     1.0000   1.0000   1.0000   1.0000   1.0000   1.0000   1.0000   1.0000
     1.0000   1.0000   1.0000   1.0000   1.0000   1.0000   1.0000   1.0000
     1.0000   1.0000   1.0000   1.0000   1.0000   1.0000   1.0000   1.0000
     1.0000   1.0000

          k =-0.0169 0.0643-0.1078 ( 36558 PWs)   bands (ev):

   -16.3379 -15.8738 -15.2263 -15.0952 -13.8885 -13.8282 -12.4218 -12.3102
   -11.3735 -11.2237  -9.0050  -8.8669  -8.2183  -8.1280  -6.3989  -6.2949
    -5.3845  -5.2460  -4.9495  -4.8693  -4.2957  -4.1969  -4.1058  -3.9946
    -3.9651  -3.8821  -2.7335  -2.6604  -2.5694  -2.4437  -2.4094  -2.3173
    -1.2394  -1.1726  -1.0073  -0.9501  -0.8975  -0.7778  -0.1981   0.1299
     0.6270   0.8091

     occupation numbers 
     1.0000   1.0000   1.0000   1.0000   1.0000   1.0000   1.0000   1.0000
     1.0000   1.0000   1.0000   1.0000   1.0000   1.0000   1.0000   1.0000
     1.0000   1.0000   1.0000   1.0000   1.0000   1.0000   1.0000   1.0000
     1.0000   1.0000   1.0000   1.0000   1.0000   1.0000   1.0000   1.0000
     1.0000   1.0000   1.0000   1.0000   1.0000   1.0000   1.0000   1.0000
     1.0000   1.0000

          k =-0.0169 0.0643 0.0936 ( 36547 PWs)   bands (ev):

   -16.3361 -15.8800 -15.2237 -15.0939 -13.8775 -13.8342 -12.4281 -12.3037
   -11.3694 -11.2337  -8.9801  -8.9021  -8.2170  -8.1389  -6.4080  -6.2690
    -5.3836  -5.2696  -4.9727  -4.7515  -4.3392  -4.2122  -4.1179  -4.0304
    -3.9323  -3.8301  -2.7585  -2.6890  -2.6274  -2.4664  -2.3463  -2.2123
    -1.1958  -1.1729  -1.0868  -1.0023  -0.8839  -0.8125  -0.1586   0.0935
     0.6300   0.8155

     occupation numbers 
     1.0000   1.0000   1.0000   1.0000   1.0000   1.0000   1.0000   1.0000
     1.0000   1.0000   1.0000   1.0000   1.0000   1.0000   1.0000   1.0000
     1.0000   1.0000   1.0000   1.0000   1.0000   1.0000   1.0000   1.0000
     1.0000   1.0000   1.0000   1.0000   1.0000   1.0000   1.0000   1.0000
     1.0000   1.0000   1.0000   1.0000   1.0000   1.0000   1.0000   1.0000
     1.0000   1.0000

          k =-0.0169 0.0643 0.0265 ( 36489 PWs)   bands (ev):

   -16.3960 -15.9825 -15.2847 -15.1511 -13.9188 -13.8604 -12.4656 -12.2892
   -11.3606 -11.1962  -8.9708  -8.8589  -8.1897  -8.0646  -6.4250  -6.2818
    -5.3705  -5.2309  -5.0427  -4.8171  -4.3408  -4.2227  -4.0729  -4.0444
    -3.4081  -3.1491  -2.6795  -2.4902  -2.4086  -2.3168  -2.1325  -2.1116
    -1.0927  -1.0145  -0.9171  -0.8667  -0.8273  -0.6983  -0.0944   0.0128
     0.5961   0.7191

     occupation numbers 
     1.0000   1.0000   1.0000   1.0000   1.0000   1.0000   1.0000   1.0000
     1.0000   1.0000   1.0000   1.0000   1.0000   1.0000   1.0000   1.0000
     1.0000   1.0000   1.0000   1.0000   1.0000   1.0000   1.0000   1.0000
     1.0000   1.0000   1.0000   1.0000   1.0000   1.0000   1.0000   1.0000
     1.0000   1.0000   1.0000   1.0000   1.0000   1.0000   1.0000   1.0000
     1.0000   1.0000

     highest occupied level (ev):     0.8330

!    total energy              =    -548.03221119 Ry
     Harris-Foulkes estimate   =    -548.03221121 Ry
     estimated scf accuracy    <       0.00000003 Ry

     total all-electron energy =     -4615.875699 Ry

     The total energy is the sum of the following terms:

     one-electron contribution =    -150.85589258 Ry
     hartree contribution      =     106.77998278 Ry
     xc contribution           =    -104.22355230 Ry
     ewald contribution        =    -143.94873445 Ry
     one-center paw contrib.   =    -255.78401465 Ry
      -> PAW hartree energy AE =      18.75599381 Ry
      -> PAW hartree energy PS =     -18.65192625 Ry
      -> PAW xc energy AE      =     -55.57969843 Ry
      -> PAW xc energy PS      =      10.03537553 Ry
      -> total E_H with PAW    =     106.88405034 Ry
      -> total E_XC with PAW   =    -149.76787520 Ry

     convergence has been achieved in  11 iterations
 writing file ./scratch/scf-2396.save/charge-density
 writing file ./scratch/scf-2396.save/charge-density
 writing file ./scratch/scf-2396.save/charge-density
 writing file ./scratch/scf-2396.save/charge-density
 writing file ./scratch/scf-2396.save/charge-density
 writing file ./scratch/scf-2396.save/charge-density
 writing file ./scratch/scf-2396.save/charge-density
 writing file ./scratch/scf-2396.save/charge-density
 writing file ./scratch/scf-2396.save/charge-density
 writing file ./scratch/scf-2396.save/charge-density
 writing file ./scratch/scf-2396.save/charge-density
 writing file ./scratch/scf-2396.save/charge-density
 writing file ./scratch/scf-2396.save/charge-density
 writing file ./scratch/scf-2396.save/charge-density
 writing file ./scratch/scf-2396.save/charge-density
 writing file ./scratch/scf-2396.save/charge-density
 writing file ./scratch/scf-2396.save/charge-density
 writing file ./scratch/scf-2396.save/charge-density
 writing file ./scratch/scf-2396.save/charge-density
 writing file ./scratch/scf-2396.save/charge-density
 writing file ./scratch/scf-2396.save/charge-density
 writing file ./scratch/scf-2396.save/charge-density
 writing file ./scratch/scf-2396.save/charge-density
 writing file ./scratch/scf-2396.save/charge-density
 writing file ./scratch/scf-2396.save/charge-density
 writing file ./scratch/scf-2396.save/charge-density
 writing file ./scratch/scf-2396.save/charge-density
 writing file ./scratch/scf-2396.save/charge-density
 writing file ./scratch/scf-2396.save/charge-density
 writing file ./scratch/scf-2396.save/charge-density
 writing file ./scratch/scf-2396.save/charge-density
 writing file ./scratch/scf-2396.save/charge-density

     Forces acting on atoms (cartesian axes, Ry/au):

     atom    1 type  2   force =    -0.07920148    0.01765591   -0.01147865
     atom    2 type  1   force =     0.05235004   -0.00659329    0.02047145
     atom    3 type  1   force =     0.00164420    0.01555151   -0.04076223
     atom    4 type  3   force =    -0.00398549   -0.00553874    0.00591782
     atom    5 type  1   force =    -0.01247832   -0.00593682    0.04914623
     atom    6 type  3   force =     0.00602443    0.00420298   -0.00391943
     atom    7 type  3   force =    -0.00051988    0.00353541    0.00238804
     atom    8 type  1   force =    -0.00019843   -0.01200239   -0.00569587
     atom    9 type  3   force =     0.00208723   -0.00020666   -0.00132782
     atom   10 type  1   force =     0.00037356    0.01461592    0.01010402
     atom   11 type  1   force =    -0.00963265   -0.00885808   -0.02465069
     atom   12 type  2   force =     0.02262502    0.00254117    0.01451621
     atom   13 type  3   force =    -0.00173713   -0.00133369   -0.00327927
     atom   14 type  1   force =     0.02751526   -0.03113484   -0.00882867
     atom   15 type  3   force =    -0.00042982   -0.00053946    0.00126945
     atom   16 type  1   force =     0.02514584   -0.03327487    0.00076714
     atom   17 type  1   force =     0.04573307   -0.01398383   -0.02312977
     atom   18 type  2   force =    -0.06157724    0.05764343    0.00946938
     atom   19 type  3   force =    -0.00032196   -0.00139264   -0.00234575
     atom   20 type  1   force =    -0.01205246   -0.00051271    0.00055310
     atom   21 type  3   force =    -0.00155007    0.00006105    0.00342500
     atom   22 type  1   force =     0.00933003   -0.00886536   -0.00760709
     atom   23 type  1   force =    -0.01247931    0.01366396    0.01846216
     atom   24 type  2   force =     0.00333558    0.00070204   -0.00346476
     The non-local contrib.  to forces
     atom    1 type  2   force =    -0.35379548    0.16333096   -0.00682747
     atom    2 type  1   force =     0.44064174   -0.31734342    0.01150398
     atom    3 type  1   force =    -0.05108797   -0.02197380   -0.09302920
     atom    4 type  3   force =    -0.06823072   -0.02602682   -0.03073117
     atom    5 type  1   force =    -0.07110352   -0.06226303    0.04016931
     atom    6 type  3   force =    -0.00086949   -0.06773339   -0.03920457
     atom    7 type  3   force =     0.00166469   -0.05812420    0.05321258
     atom    8 type  1   force =     0.04488498   -0.05612021    0.02890848
     atom    9 type  3   force =     0.06461678   -0.01310138    0.04320167
     atom   10 type  1   force =     0.03818056   -0.00222409    0.06831386
     atom   11 type  1   force =    -0.38434632   -0.30825743   -0.01091186
     atom   12 type  2   force =     0.32957344    0.23012291    0.01748002
     atom   13 type  3   force =     0.00194527    0.06807687    0.03903420
     atom   14 type  1   force =     0.09093754    0.00661943    0.04244831
     atom   15 type  3   force =     0.06548851    0.02296170    0.03753930
     atom   16 type  1   force =     0.07072550   -0.03011313    0.03760533
     atom   17 type  1   force =    -0.34913096    0.29365693   -0.03656864
     atom   18 type  2   force =     0.31975634   -0.21347112    0.01139360
     atom   19 type  3   force =    -0.00165453    0.05801126   -0.05295386
     atom   20 type  1   force =    -0.05094690    0.04574050   -0.04295742
     atom   21 type  3   force =    -0.06426818    0.01245611   -0.04365850
     atom   22 type  1   force =    -0.01889003    0.00868493   -0.06934905
     atom   23 type  1   force =     0.37720825    0.33547113    0.01519016
     atom   24 type  2   force =    -0.29871425   -0.25604635   -0.00320049
     The ionic contribution  to forces
     atom    1 type  2   force =     4.42408054   -3.51524731    0.14315484
     atom    2 type  1   force =     2.65079803   -2.48111665    0.11076379
     atom    3 type  1   force =     3.97223999    1.79065579    2.85828055
     atom    4 type  3   force =     1.95949953    0.95691910    0.94646941
     atom    5 type  1   force =     1.46529693    4.56284422    1.62154483
     atom    6 type  3   force =     0.27583587    2.04113180    1.25200490
     atom    7 type  3   force =    -0.31246826    1.86030613   -1.52288072
     atom    8 type  1   force =    -1.28719120    4.19110017   -2.62084962
     atom    9 type  3   force =    -2.12614290    0.53195297   -1.32631603
     atom   10 type  1   force =    -4.29465793    1.44677565   -2.93620433
     atom   11 type  1   force =    -2.48123602   -1.88392391    0.02853770
     atom   12 type  2   force =    -5.55434346   -3.75698490   -0.68015564
     atom   13 type  3   force =    -0.17430980   -1.98398612   -1.22357027
     atom   14 type  1   force =    -0.69394321   -4.29926130   -2.18197156
     atom   15 type  3   force =    -1.97861313   -0.83832158   -1.22757775
     atom   16 type  1   force =    -4.07822382   -2.34725176   -2.52049874
     atom   17 type  1   force =    -1.77116776    1.31027690    0.32290815
     atom   18 type  2   force =    -5.82720224    4.20990536   -0.25416959
     atom   19 type  3   force =     0.29291954   -1.84630005    1.49431241
     atom   20 type  1   force =     1.08293050   -4.22000453    2.62768708
     atom   21 type  3   force =     2.04323558   -0.54855181    1.36483707
     atom   22 type  1   force =     4.19040346   -1.48552719    2.90287041
     atom   23 type  1   force =     2.44838846    1.62386948   -0.00149218
     atom   24 type  2   force =     5.77387130    4.68073952    0.82231529
     The local contribution  to forces
     atom    1 type  2   force =    -4.16725027    3.37710287   -0.14835787
     atom    2 type  1   force =    -3.02707042    2.78266436   -0.10202996
     atom    3 type  1   force =    -3.91871992   -1.75308042   -2.80543990
     atom    4 type  3   force =    -1.89524318   -0.93642654   -0.90981507
     atom    5 type  1   force =    -1.40724759   -4.50531179   -1.61189463
     atom    6 type  3   force =    -0.26895154   -1.96919028   -1.21672318
     atom    7 type  3   force =     0.31026960   -1.79864804    1.47205120
     atom    8 type  1   force =     1.24236662   -4.14599844    2.58537470
     atom    9 type  3   force =     2.06362263   -0.51906293    1.28179147
     atom   10 type  1   force =     4.25593887   -1.42960274    2.87756781
     atom   11 type  1   force =     2.84574103    2.17536507   -0.04175287
     atom   12 type  2   force =     5.26141478    3.53902492    0.67829014
     atom   13 type  3   force =     0.17061890    1.91459007    1.18126255
     atom   14 type  1   force =     0.63163453    4.25992674    2.13036752
     atom   15 type  3   force =     1.91271901    0.81482183    1.19131842
     atom   16 type  1   force =     4.03190158    2.34231598    2.48290038
     atom   17 type  1   force =     2.15773614   -1.61095924   -0.30908564
     atom   18 type  2   force =     5.45604947   -3.94524683    0.25295282
     atom   19 type  3   force =    -0.29159031    1.78689582   -1.44371476
     atom   20 type  1   force =    -1.04470607    4.17256979   -2.58355443
     atom   21 type  3   force =    -1.98050235    0.53614503   -1.31774438
     atom   22 type  1   force =    -4.16099981    1.46761409   -2.84080139
     atom   23 type  1   force =    -2.82806052   -1.93758499    0.00433551
     atom   24 type  2   force =    -5.48372776   -4.43433024   -0.82280515
     The core correction contribution to forces
     atom    1 type  2   force =     0.01786714   -0.00763623    0.00057947
     atom    2 type  1   force =    -0.01212522    0.00915402    0.00018555
     atom    3 type  1   force =    -0.00080444   -0.00002776   -0.00056698
     atom    4 type  3   force =     0.00000000    0.00000000    0.00000000
     atom    5 type  1   force =     0.00048519   -0.00119587   -0.00070443
     atom    6 type  3   force =     0.00000000    0.00000000    0.00000000
     atom    7 type  3   force =     0.00000000    0.00000000    0.00000000
     atom    8 type  1   force =    -0.00037771   -0.00097584    0.00081965
     atom    9 type  3   force =     0.00000000    0.00000000    0.00000000
     atom   10 type  1   force =     0.00084968   -0.00033463    0.00039252
     atom   11 type  1   force =     0.01017291    0.00795102   -0.00055848
     atom   12 type  2   force =    -0.01398488   -0.00959520   -0.00112747
     atom   13 type  3   force =     0.00000000    0.00000000    0.00000000
     atom   14 type  1   force =    -0.00121839    0.00157189    0.00029188
     atom   15 type  3   force =     0.00000000    0.00000000    0.00000000
     atom   16 type  1   force =     0.00075706    0.00174941    0.00076079
     atom   17 type  1   force =     0.00824112   -0.00699566   -0.00041872
     atom   18 type  2   force =    -0.01002007    0.00634030   -0.00071120
     atom   19 type  3   force =     0.00000000    0.00000000    0.00000000
     atom   20 type  1   force =     0.00062595    0.00110800   -0.00062500
     atom   21 type  3   force =     0.00000000    0.00000000    0.00000000
     atom   22 type  1   force =    -0.00118644    0.00028664   -0.00029546
     atom   23 type  1   force =    -0.01002792   -0.00806451    0.00041218
     atom   24 type  2   force =     0.01200912    0.01038930    0.00028927
     The Hubbard contrib.    to forces
     atom    1 type  2   force =     0.00000000    0.00000000    0.00000000
     atom    2 type  1   force =     0.00000000    0.00000000    0.00000000
     atom    3 type  1   force =     0.00000000    0.00000000    0.00000000
     atom    4 type  3   force =     0.00000000    0.00000000    0.00000000
     atom    5 type  1   force =     0.00000000    0.00000000    0.00000000
     atom    6 type  3   force =     0.00000000    0.00000000    0.00000000
     atom    7 type  3   force =     0.00000000    0.00000000    0.00000000
     atom    8 type  1   force =     0.00000000    0.00000000    0.00000000
     atom    9 type  3   force =     0.00000000    0.00000000    0.00000000
     atom   10 type  1   force =     0.00000000    0.00000000    0.00000000
     atom   11 type  1   force =     0.00000000    0.00000000    0.00000000
     atom   12 type  2   force =     0.00000000    0.00000000    0.00000000
     atom   13 type  3   force =     0.00000000    0.00000000    0.00000000
     atom   14 type  1   force =     0.00000000    0.00000000    0.00000000
     atom   15 type  3   force =     0.00000000    0.00000000    0.00000000
     atom   16 type  1   force =     0.00000000    0.00000000    0.00000000
     atom   17 type  1   force =     0.00000000    0.00000000    0.00000000
     atom   18 type  2   force =     0.00000000    0.00000000    0.00000000
     atom   19 type  3   force =     0.00000000    0.00000000    0.00000000
     atom   20 type  1   force =     0.00000000    0.00000000    0.00000000
     atom   21 type  3   force =     0.00000000    0.00000000    0.00000000
     atom   22 type  1   force =     0.00000000    0.00000000    0.00000000
     atom   23 type  1   force =     0.00000000    0.00000000    0.00000000
     atom   24 type  2   force =     0.00000000    0.00000000    0.00000000
     The SCF correction term to forces
     atom    1 type  2   force =    -0.00010243    0.00010255   -0.00002812
     atom    2 type  1   force =     0.00010689    0.00004534    0.00004759
     atom    3 type  1   force =     0.00001752   -0.00002537   -0.00000720
     atom    4 type  3   force =    -0.00001014   -0.00000755   -0.00000585
     atom    5 type  1   force =     0.00009166   -0.00001342    0.00003066
     atom    6 type  3   force =     0.00001056   -0.00000821    0.00000292
     atom    7 type  3   force =     0.00001508   -0.00000154    0.00000448
     atom    8 type  1   force =     0.00011987   -0.00001113    0.00005043
     atom    9 type  3   force =    -0.00000830    0.00000161   -0.00000542
     atom   10 type  1   force =     0.00006336   -0.00000133    0.00003366
     atom   11 type  1   force =     0.00003673    0.00000410    0.00003433
     atom   12 type  2   force =    -0.00003389   -0.00002963    0.00002866
     atom   13 type  3   force =     0.00000948   -0.00001759   -0.00000624
     atom   14 type  1   force =     0.00010577    0.00000532    0.00003469
     atom   15 type  3   force =    -0.00002323   -0.00000448   -0.00001101
     atom   16 type  1   force =    -0.00001349    0.00002155   -0.00000112
     atom   17 type  1   force =     0.00005551    0.00003416    0.00003458
     atom   18 type  2   force =    -0.00015976    0.00011266    0.00000326
     atom   19 type  3   force =     0.00000432   -0.00000274    0.00000996
     atom   20 type  1   force =     0.00004504    0.00007048    0.00000238
     atom   21 type  3   force =    -0.00001413    0.00000864   -0.00000968
     atom   22 type  1   force =     0.00000383    0.00007310   -0.00003209
     atom   23 type  1   force =     0.00001339   -0.00003022    0.00001600
     atom   24 type  2   force =    -0.00010184   -0.00005326   -0.00006417

     Total force =     0.176901     Total SCF correction =     0.000408

     Writing output data file scf-2396.save
 writing file ./scratch/scf-2396.save/charge-density
 writing file ./scratch/scf-2396.save/charge-density
 writing file ./scratch/scf-2396.save/charge-density
 writing file ./scratch/scf-2396.save/charge-density
 writing file ./scratch/scf-2396.save/charge-density
 writing file ./scratch/scf-2396.save/charge-density
 writing file ./scratch/scf-2396.save/charge-density
 writing file ./scratch/scf-2396.save/charge-density
 writing file ./scratch/scf-2396.save/charge-density
 writing file ./scratch/scf-2396.save/charge-density
 writing file ./scratch/scf-2396.save/charge-density
 writing file ./scratch/scf-2396.save/charge-density
 writing file ./scratch/scf-2396.save/charge-density
 writing file ./scratch/scf-2396.save/charge-density
 writing file ./scratch/scf-2396.save/charge-density
 writing file ./scratch/scf-2396.save/charge-density
 writing file ./scratch/scf-2396.save/charge-density
 writing file ./scratch/scf-2396.save/charge-density
 writing file ./scratch/scf-2396.save/charge-density
 writing file ./scratch/scf-2396.save/charge-density
 writing file ./scratch/scf-2396.save/charge-density
 writing file ./scratch/scf-2396.save/charge-density
 writing file ./scratch/scf-2396.save/charge-density
 writing file ./scratch/scf-2396.save/charge-density
 writing file ./scratch/scf-2396.save/charge-density
 writing file ./scratch/scf-2396.save/charge-density
 writing file ./scratch/scf-2396.save/charge-density
 writing file ./scratch/scf-2396.save/charge-density
 writing file ./scratch/scf-2396.save/charge-density
 writing file ./scratch/scf-2396.save/charge-density
 writing file ./scratch/scf-2396.save/charge-density
 writing file ./scratch/scf-2396.save/charge-density
 
     init_run     :      4.52s CPU      4.72s WALL (       1 calls)
     electrons    :     50.00s CPU     52.84s WALL (       1 calls)
     forces       :      2.33s CPU      2.48s WALL (       1 calls)

     Called by init_run:
     wfcinit      :      1.62s CPU      1.64s WALL (       1 calls)
     wfcinit:atom :      0.02s CPU      0.02s WALL (      16 calls)
     wfcinit:wfcr :      1.52s CPU      1.51s WALL (      16 calls)
     potinit      :      1.00s CPU      1.01s WALL (       1 calls)

     Called by electrons:
     c_bands      :     39.04s CPU     39.31s WALL (      11 calls)
     sum_band     :      6.90s CPU      8.07s WALL (      11 calls)
     v_of_rho     :      0.92s CPU      0.97s WALL (      12 calls)
     v_h          :      0.05s CPU      0.06s WALL (      12 calls)
     v_xc         :      0.94s CPU      0.98s WALL (      13 calls)
     newd         :      1.50s CPU      2.86s WALL (      12 calls)
     PAW_pot      :      1.64s CPU      1.70s WALL (      12 calls)
     mix_rho      :      0.14s CPU      0.14s WALL (      11 calls)

     Called by c_bands:
     init_us_2    :      0.76s CPU      0.88s WALL (     384 calls)
     cegterg      :     36.70s CPU     36.92s WALL (     176 calls)

     Called by sum_band:
     sum_band:bec :      0.01s CPU      0.02s WALL (     176 calls)
     addusdens    :      1.56s CPU      2.69s WALL (      11 calls)

     Called by *egterg:
     h_psi        :     27.38s CPU     27.61s WALL (     855 calls)
     s_psi        :      2.17s CPU      2.02s WALL (     855 calls)
     g_psi        :      0.12s CPU      0.16s WALL (     663 calls)
     cdiaghg      :      3.40s CPU      3.40s WALL (     839 calls)
     cegterg:over :      1.62s CPU      1.62s WALL (     663 calls)
     cegterg:upda :      1.32s CPU      1.26s WALL (     663 calls)
     cegterg:last :      0.44s CPU      0.43s WALL (     192 calls)

     Called by h_psi:
     h_psi:pot    :     27.11s CPU     27.34s WALL (     855 calls)
     h_psi:calbec :      2.25s CPU      2.25s WALL (     855 calls)
     vloc_psi     :     22.94s CPU     23.10s WALL (     855 calls)
     add_vuspsi   :      1.92s CPU      1.99s WALL (     855 calls)

     General routines
     calbec       :      3.03s CPU      3.00s WALL (    1095 calls)
     fft          :      0.80s CPU      0.90s WALL (     199 calls)
     ffts         :      0.03s CPU      0.03s WALL (      23 calls)
     fftw         :     21.36s CPU     21.77s WALL (   55568 calls)
     interpolate  :      0.14s CPU      0.15s WALL (      23 calls)
     davcio       :      0.00s CPU      0.01s WALL (      16 calls)
 
     Parallel routines
     fft_scatter  :      7.83s CPU      7.96s WALL (   55790 calls)

     PAW routines
     PAW_pot      :      1.64s CPU      1.70s WALL (      12 calls)
 
     PWSCF        :  0m57.55s CPU     1m 1.15s WALL

 
   This run was terminated on:  13: 6:37  20May2017            

=------------------------------------------------------------------------------=
   JOB DONE.
=------------------------------------------------------------------------------=
