
     Program PWSCF v.6.1 starts on 20May2017 at 10:48:15 

     This program is part of the open-source Quantum ESPRESSO suite
     for quantum simulation of materials; please cite
         "P. Giannozzi et al., J. Phys.:Condens. Matter 21 395502 (2009);
          URL http://www.quantum-espresso.org", 
     in publications or presentations arising from this work. More details at
     http://www.quantum-espresso.org/quote

     Parallel version (MPI & OpenMP), running on      32 processor cores
     Number of MPI processes:                32
     Threads/MPI process:                     1
     R & G space division:  proc/nbgrp/npool/nimage =      32
     Waiting for input...
     Reading input from standard input
Warning: card &IONS ignored
Warning: card     ION_TEMPERATURE   = 'INITIAL' ignored
Warning: card     TEMPW             = 586.D0 ignored
Warning: card     TOLP              = 100.D0 ignored
Warning: card     DELTA_T           = 1.D0 ignored
Warning: card     NRAISE            = 1 ignored
Warning: card / ignored
Warning: card &CELL ignored
Warning: card     CELL_DYNAMICS     = 'BFGS' ignored
Warning: card / ignored

     Current dimensions of program PWSCF are:
     Max number of different atomic species (ntypx) = 10
     Max number of k-points (npk) =  40000
     Max angular momentum in pseudopotentials (lmaxx) =  3
               file C.pbe-n-kjpaw_psl.1.0.0.UPF: wavefunction(s)  2S 2P renormalized
               file Cl.pbe-n-kjpaw_psl.1.0.0.UPF: wavefunction(s)  3S 3P renormalized
               file H.pbe-kjpaw_psl.1.0.0.UPF: wavefunction(s)  1S renormalized

     Subspace diagonalization in iterative solution of the eigenvalue problem:
     a serial algorithm will be used

 
     Parallelization info
     --------------------
     sticks:   dense  smooth     PW     G-vecs:    dense   smooth      PW
     Min         764     305     83                36108     9133    1292
     Max         765     306     84                36110     9135    1293
     Sum       24467    9791   2657              1155489   292295   41363
 


     bravais-lattice index     =            0
     lattice parameter (alat)  =       1.8897  a.u.
     unit-cell volume          =    2163.5316 (a.u.)^3
     number of atoms/cell      =           24
     number of atomic types    =            3
     number of electrons       =        84.00
     number of Kohn-Sham states=           42
     kinetic-energy cutoff     =     100.0000  Ry
     charge density cutoff     =    1000.0000  Ry
     convergence threshold     =      1.0E-07
     mixing beta               =       0.7000
     number of iterations used =            8  plain     mixing
     Exchange-correlation      =  SLA  PW   PBX  PBC ( 1  4  3  4 0 0)

     celldm(1)=   1.889726  celldm(2)=   0.000000  celldm(3)=   0.000000
     celldm(4)=   0.000000  celldm(5)=   0.000000  celldm(6)=   0.000000

     crystal axes: (cart. coord. in units of alat)
               a(1) = (  14.762000   0.000000   0.000000 )  
               a(2) = (   0.000000   5.832000   0.000000 )  
               a(3) = (  -1.563876   0.000000   3.723951 )  

     reciprocal axes: (cart. coord. in units 2 pi/alat)
               b(1) = (  0.067741  0.000000  0.028448 )  
               b(2) = (  0.000000  0.171468  0.000000 )  
               b(3) = (  0.000000  0.000000  0.268532 )  


     PseudoPot. # 1 for  C read from file:
     /global/cscratch1/sd/almno10/.data/PSEUDOPOTENTIALS/C.pbe-n-kjpaw_psl.1.0.0.UPF
     MD5 check sum: 2ba8448e293caca687844dde9a1b88a8
     Pseudo is Projector augmented-wave + core cor, Zval =  4.0
     Generated using "atomic" code by A. Dal Corso  v.5.3.0 svn rev. 11974
     Shape of augmentation charge: PSQ
     Using radial grid of 1073 points,  4 beta functions with: 
                l(1) =   0
                l(2) =   0
                l(3) =   1
                l(4) =   1
     Q(r) pseudized with 0 coefficients 


     PseudoPot. # 2 for Cl read from file:
     /global/cscratch1/sd/almno10/.data/PSEUDOPOTENTIALS/Cl.pbe-n-kjpaw_psl.1.0.0.UPF
     MD5 check sum: dca63699d6b897c5771335df08a09219
     Pseudo is Projector augmented-wave + core cor, Zval =  7.0
     Generated using "atomic" code by A. Dal Corso  v.5.3.0 svn rev. 11974
     Shape of augmentation charge: PSQ
     Using radial grid of 1157 points,  6 beta functions with: 
                l(1) =   0
                l(2) =   0
                l(3) =   1
                l(4) =   1
                l(5) =   2
                l(6) =   2
     Q(r) pseudized with 0 coefficients 


     PseudoPot. # 3 for  H read from file:
     /global/cscratch1/sd/almno10/.data/PSEUDOPOTENTIALS/H.pbe-kjpaw_psl.1.0.0.UPF
     MD5 check sum: bc0feb48a24907a0b97fa6ee2d589a29
     Pseudo is Projector augmented-wave, Zval =  1.0
     Generated using "atomic" code by A. Dal Corso  v.5.3.0 svn rev. 11974
     Shape of augmentation charge: PSQ
     Using radial grid of  929 points,  2 beta functions with: 
                l(1) =   0
                l(2) =   0
     Q(r) pseudized with 0 coefficients 


     atomic species   valence    mass     pseudopotential
        C              4.00    12.01100      C( 1.00)
        Cl             7.00    35.45270     Cl( 1.00)
        H              1.00     1.00790      H( 1.00)

     No symmetry found


                                    s                        frac. trans.

      isym =  1     identity                                     

 cryst.   s( 1) = (     1          0          0      )
                  (     0          1          0      )
                  (     0          0          1      )

 cart.    s( 1) = (  1.0000000  0.0000000 -0.0000000 )
                  (  0.0000000  1.0000000  0.0000000 )
                  (  0.0000000  0.0000000  1.0000000 )


   Cartesian axes

     site n.     atom                  positions (alat units)
         1           Cl  tau(   1) = (  16.4131310   1.0351908   1.8467884  )
         2           C   tau(   2) = (  14.9175178   2.1129404   1.8411007  )
         3           C   tau(   3) = (  15.0056997   3.3165271   2.5399916  )
         4           H   tau(   4) = (  15.9095470   3.5254117   3.1105980  )
         5           C   tau(   5) = (  13.9134149   4.1791998   2.6235707  )
         6           H   tau(   6) = (  14.0002791   5.1118241   3.1787704  )
         7           H   tau(   7) = (   6.3566375   1.9793082   0.5017204  )
         8           C   tau(   8) = (   6.5070321   1.0787706   1.0930555  )
         9           H   tau(   9) = (   4.4320134   0.4979396   1.0090388  )
        10           C   tau(  10) = (   5.4221125   0.2551074   1.3922662  )
        11           C   tau(  11) = (   5.5913875  -0.9082886   2.1424241  )
        12           Cl  tau(  12) = (   4.1475520  -1.8053092   2.4507048  )
        13           H   tau(  13) = (  13.6825802   0.8325484   0.5861474  )
        14           C   tau(  14) = (  13.7613514   1.7644059   1.1423129  )
        15           H   tau(  15) = (  11.7704444   2.4126679   0.6299424  )
        16           C   tau(  16) = (  12.6845622   2.6515087   1.1679438  )
        17           C   tau(  17) = (  12.7780384   3.8629729   1.8779035  )
        18           Cl  tau(  18) = (  11.5210659   4.9325876   1.6103773  )
        19           H   tau(  19) = (   7.0019737  -2.1961038   3.1960135  )
        20           C   tau(  20) = (   6.8451079  -1.2811963   2.6270434  )
        21           H   tau(  21) = (   8.9215906  -0.7120655   2.6856010  )
        22           C   tau(  22) = (   7.9279434  -0.4592640   2.3226442  )
        23           C   tau(  23) = (   7.7531932   0.7204738   1.6022704  )
        24           Cl  tau(  24) = (   9.2078298   1.7442920   1.5302112  )

   Crystallographic axes

     site n.     atom                  positions (cryst. coord.)
         1           Cl  tau(   1) = (  1.1643877  0.1775019  0.4959217  )
         2           C   tau(   2) = (  1.0629108  0.3623012  0.4943944  )
         3           C   tau(   3) = (  1.0887665  0.5686775  0.6820690  )
         4           H   tau(   4) = (  1.1662271  0.6044945  0.8352950  )
         5           C   tau(   5) = (  1.0171511  0.7165980  0.7045126  )
         6           H   tau(   6) = (  1.0388298  0.8765130  0.8536015  )
         7           H   tau(   7) = (  0.4448811  0.3393875  0.1347280  )
         8           C   tau(   8) = (  0.4718914  0.1849744  0.2935204  )
         9           H   tau(   9) = (  0.3289365  0.0853806  0.2709592  )
        10           C   tau(  10) = (  0.4069093  0.0437427  0.3738680  )
        11           C   tau(  11) = (  0.4397168 -0.1557422  0.5753094  )
        12           Cl  tau(  12) = (  0.3506792 -0.3095523  0.6580926  )
        13           H   tau(  13) = (  0.9435533  0.1427552  0.1573993  )
        14           C   tau(  14) = (  0.9647112  0.3025387  0.3067475  )
        15           H   tau(  15) = (  0.8152682  0.4136948  0.1691597  )
        16           C   tau(  16) = (  0.8924970  0.4546483  0.3136302  )
        17           C   tau(  17) = (  0.9190262  0.6623753  0.5042771  )
        18           Cl  tau(  18) = (  0.8262664  0.8457798  0.4324378  )
        19           H   tau(  19) = (  0.5652446 -0.3765610  0.8582318  )
        20           C   tau(  20) = (  0.5384322 -0.2196839  0.7054451  )
        21           H   tau(  21) = (  0.6807621 -0.1220963  0.7211697  )
        22           C   tau(  22) = (  0.6031255 -0.0787490  0.6237042  )
        23           C   tau(  23) = (  0.5707944  0.1235380  0.4302608  )
        24           Cl  tau(  24) = (  0.6672838  0.2990899  0.4109106  )

     number of k points=    16
                       cart. coord. in units 2pi/alat
        k(    1) = (   0.0169354   0.0214335   0.0406785), wk =   0.1250000
        k(    2) = (   0.0169354   0.0214335   0.1078115), wk =   0.1250000
        k(    3) = (   0.0169354   0.0214335  -0.0935875), wk =   0.1250000
        k(    4) = (   0.0169354   0.0214335  -0.0264545), wk =   0.1250000
        k(    5) = (   0.0169354   0.0643004   0.0406785), wk =   0.1250000
        k(    6) = (   0.0169354   0.0643004   0.1078115), wk =   0.1250000
        k(    7) = (   0.0169354   0.0643004  -0.0935875), wk =   0.1250000
        k(    8) = (   0.0169354   0.0643004  -0.0264545), wk =   0.1250000
        k(    9) = (  -0.0169354   0.0214335  -0.0406785), wk =   0.1250000
        k(   10) = (  -0.0169354   0.0214335  -0.1078115), wk =   0.1250000
        k(   11) = (  -0.0169354   0.0214335   0.0935875), wk =   0.1250000
        k(   12) = (  -0.0169354   0.0214335   0.0264545), wk =   0.1250000
        k(   13) = (  -0.0169354   0.0643004  -0.0406785), wk =   0.1250000
        k(   14) = (  -0.0169354   0.0643004  -0.1078115), wk =   0.1250000
        k(   15) = (  -0.0169354   0.0643004   0.0935875), wk =   0.1250000
        k(   16) = (  -0.0169354   0.0643004   0.0264545), wk =   0.1250000

                       cryst. coord.
        k(    1) = (   0.2500000   0.1250000   0.1250000), wk =   0.1250000
        k(    2) = (   0.2500000   0.1250000   0.3750000), wk =   0.1250000
        k(    3) = (   0.2500000   0.1250000  -0.3750000), wk =   0.1250000
        k(    4) = (   0.2500000   0.1250000  -0.1250000), wk =   0.1250000
        k(    5) = (   0.2500000   0.3750000   0.1250000), wk =   0.1250000
        k(    6) = (   0.2500000   0.3750000   0.3750000), wk =   0.1250000
        k(    7) = (   0.2500000   0.3750000  -0.3750000), wk =   0.1250000
        k(    8) = (   0.2500000   0.3750000  -0.1250000), wk =   0.1250000
        k(    9) = (  -0.2500000   0.1250000  -0.1250000), wk =   0.1250000
        k(   10) = (  -0.2500000   0.1250000  -0.3750000), wk =   0.1250000
        k(   11) = (  -0.2500000   0.1250000   0.3750000), wk =   0.1250000
        k(   12) = (  -0.2500000   0.1250000   0.1250000), wk =   0.1250000
        k(   13) = (  -0.2500000   0.3750000  -0.1250000), wk =   0.1250000
        k(   14) = (  -0.2500000   0.3750000  -0.3750000), wk =   0.1250000
        k(   15) = (  -0.2500000   0.3750000   0.3750000), wk =   0.1250000
        k(   16) = (  -0.2500000   0.3750000   0.1250000), wk =   0.1250000

     Dense  grid:  1155489 G-vectors     FFT dimensions: ( 288, 120,  80)

     Smooth grid:   292295 G-vectors     FFT dimensions: ( 180,  72,  50)

     Estimated max dynamical RAM per process >     147.21MB

     Estimated total allocated dynamical RAM >    4710.62MB

     Initial potential from superposition of free atoms

     starting charge   83.99939, renormalised to   84.00000
     Starting wfc are   72 randomized atomic wfcs
     Checking if some PAW data can be deallocated... 
       node    0, deallocated PAW data for type:  1
       node    0, deallocated PAW data for type:  3
       node    1, deallocated PAW data for type:  1
       node    1, deallocated PAW data for type:  3
       node    2, deallocated PAW data for type:  2
       node    2, deallocated PAW data for type:  3
       node    3, deallocated PAW data for type:  2
       node    3, deallocated PAW data for type:  3
       node    4, deallocated PAW data for type:  2
       node    4, deallocated PAW data for type:  3
       node    5, deallocated PAW data for type:  2
       node    5, deallocated PAW data for type:  3
       node    6, deallocated PAW data for type:  1
       node    6, deallocated PAW data for type:  2
       node    7, deallocated PAW data for type:  1
       node    7, deallocated PAW data for type:  2
       node    8, deallocated PAW data for type:  2
       node    8, deallocated PAW data for type:  3
       node    9, deallocated PAW data for type:  2
       node    9, deallocated PAW data for type:  3
       node   10, deallocated PAW data for type:  1
       node   10, deallocated PAW data for type:  2
       node   11, deallocated PAW data for type:  1
       node   11, deallocated PAW data for type:  2
       node   12, deallocated PAW data for type:  1
       node   12, deallocated PAW data for type:  2
       node   13, deallocated PAW data for type:  1
       node   13, deallocated PAW data for type:  2
       node   14, deallocated PAW data for type:  2
       node   14, deallocated PAW data for type:  3
       node   15, deallocated PAW data for type:  2
       node   15, deallocated PAW data for type:  3
       node   16, deallocated PAW data for type:  1
       node   16, deallocated PAW data for type:  2
       node   17, deallocated PAW data for type:  2
       node   17, deallocated PAW data for type:  3
       node   18, deallocated PAW data for type:  2
       node   18, deallocated PAW data for type:  3
       node   19, deallocated PAW data for type:  1
       node   19, deallocated PAW data for type:  3
       node   20, deallocated PAW data for type:  1
       node   20, deallocated PAW data for type:  2
       node   21, deallocated PAW data for type:  2
       node   21, deallocated PAW data for type:  3
       node   22, deallocated PAW data for type:  1
       node   22, deallocated PAW data for type:  2
       node   23, deallocated PAW data for type:  2
       node   23, deallocated PAW data for type:  3
       node   24, deallocated PAW data for type:  2
       node   24, deallocated PAW data for type:  3
       node   25, deallocated PAW data for type:  1
       node   25, deallocated PAW data for type:  3
       node   26, deallocated PAW data for type:  1
       node   26, deallocated PAW data for type:  2
       node   27, deallocated PAW data for type:  2
       node   27, deallocated PAW data for type:  3
       node   28, deallocated PAW data for type:  1
       node   28, deallocated PAW data for type:  2
       node   29, deallocated PAW data for type:  2
       node   29, deallocated PAW data for type:  3
       node   30, deallocated PAW data for type:  2
       node   30, deallocated PAW data for type:  3
       node   31, deallocated PAW data for type:  1
       node   31, deallocated PAW data for type:  3

     total cpu time spent up to now is        5.4 secs

     per-process dynamical memory:    20.7 Mb

     Self-consistent Calculation

     iteration #  1     ecut=   100.00 Ry     beta= 0.70
     Davidson diagonalization with overlap
     ethr =  1.00E-04,  avg # of iterations =  5.0

     total cpu time spent up to now is       12.1 secs

     total energy              =    -547.12413552 Ry
     Harris-Foulkes estimate   =    -548.98642611 Ry
     estimated scf accuracy    <       2.72498077 Ry

     iteration #  2     ecut=   100.00 Ry     beta= 0.70
     Davidson diagonalization with overlap
     ethr =  3.24E-03,  avg # of iterations =  3.0

     total cpu time spent up to now is       17.0 secs

     total energy              =    -547.52259608 Ry
     Harris-Foulkes estimate   =    -548.60509397 Ry
     estimated scf accuracy    <       1.95740975 Ry

     iteration #  3     ecut=   100.00 Ry     beta= 0.70
     Davidson diagonalization with overlap
     ethr =  2.33E-03,  avg # of iterations =  2.9

     total cpu time spent up to now is       21.4 secs

     total energy              =    -548.00816275 Ry
     Harris-Foulkes estimate   =    -548.05148054 Ry
     estimated scf accuracy    <       0.08659531 Ry

     iteration #  4     ecut=   100.00 Ry     beta= 0.70
     Davidson diagonalization with overlap
     ethr =  1.03E-04,  avg # of iterations =  4.0

     total cpu time spent up to now is       26.2 secs

     total energy              =    -548.03620722 Ry
     Harris-Foulkes estimate   =    -548.04740256 Ry
     estimated scf accuracy    <       0.02230575 Ry

     iteration #  5     ecut=   100.00 Ry     beta= 0.70
     Davidson diagonalization with overlap
     ethr =  2.66E-05,  avg # of iterations =  3.0

     total cpu time spent up to now is       30.7 secs

     total energy              =    -548.04082287 Ry
     Harris-Foulkes estimate   =    -548.04127747 Ry
     estimated scf accuracy    <       0.00096755 Ry

     iteration #  6     ecut=   100.00 Ry     beta= 0.70
     Davidson diagonalization with overlap
     ethr =  1.15E-06,  avg # of iterations =  4.0

     total cpu time spent up to now is       35.5 secs

     total energy              =    -548.04110241 Ry
     Harris-Foulkes estimate   =    -548.04121198 Ry
     estimated scf accuracy    <       0.00021870 Ry

     iteration #  7     ecut=   100.00 Ry     beta= 0.70
     Davidson diagonalization with overlap
     ethr =  2.60E-07,  avg # of iterations =  4.0

     total cpu time spent up to now is       40.1 secs

     total energy              =    -548.04115760 Ry
     Harris-Foulkes estimate   =    -548.04117336 Ry
     estimated scf accuracy    <       0.00003714 Ry

     iteration #  8     ecut=   100.00 Ry     beta= 0.70
     Davidson diagonalization with overlap
     ethr =  4.42E-08,  avg # of iterations =  4.0

     total cpu time spent up to now is       44.8 secs

     total energy              =    -548.04116502 Ry
     Harris-Foulkes estimate   =    -548.04116945 Ry
     estimated scf accuracy    <       0.00000937 Ry

     iteration #  9     ecut=   100.00 Ry     beta= 0.70
     Davidson diagonalization with overlap
     ethr =  1.12E-08,  avg # of iterations =  4.0

     total cpu time spent up to now is       49.4 secs

     total energy              =    -548.04116703 Ry
     Harris-Foulkes estimate   =    -548.04116888 Ry
     estimated scf accuracy    <       0.00000513 Ry

     iteration # 10     ecut=   100.00 Ry     beta= 0.70
     Davidson diagonalization with overlap
     ethr =  6.11E-09,  avg # of iterations =  4.0

     total cpu time spent up to now is       53.7 secs

     total energy              =    -548.04116793 Ry
     Harris-Foulkes estimate   =    -548.04116802 Ry
     estimated scf accuracy    <       0.00000020 Ry

     iteration # 11     ecut=   100.00 Ry     beta= 0.70
     Davidson diagonalization with overlap
     ethr =  2.42E-10,  avg # of iterations =  4.0

     total cpu time spent up to now is       58.5 secs

     End of self-consistent calculation

          k = 0.0169 0.0214 0.0407 ( 36525 PWs)   bands (ev):

   -16.2994 -16.0325 -15.3084 -15.1984 -13.8838 -13.8563 -12.3775 -12.3024
   -11.2601 -11.1814  -8.9900  -8.9150  -8.2634  -8.1446  -6.3705  -6.1999
    -5.3473  -5.2783  -5.0829  -4.7546  -4.2392  -4.1832  -4.0376  -3.8166
    -3.2935  -3.0924  -2.7117  -2.5453  -2.4128  -2.2585  -2.1743  -2.1316
    -1.2658  -1.1760  -1.0344  -0.9703  -0.8806  -0.7849  -0.0202   0.0970
     0.4973   0.7235

     occupation numbers 
     1.0000   1.0000   1.0000   1.0000   1.0000   1.0000   1.0000   1.0000
     1.0000   1.0000   1.0000   1.0000   1.0000   1.0000   1.0000   1.0000
     1.0000   1.0000   1.0000   1.0000   1.0000   1.0000   1.0000   1.0000
     1.0000   1.0000   1.0000   1.0000   1.0000   1.0000   1.0000   1.0000
     1.0000   1.0000   1.0000   1.0000   1.0000   1.0000   1.0000   1.0000
     1.0000   1.0000

          k = 0.0169 0.0214 0.1078 ( 36561 PWs)   bands (ev):

   -16.2404 -15.9121 -15.2645 -15.1409 -13.8983 -13.8305 -12.3657 -12.2613
   -11.2550 -11.2313  -8.9547  -8.9007  -8.2076  -8.1252  -6.3465  -6.2909
    -5.3445  -5.2857  -5.1009  -4.8917  -4.3212  -4.1992  -4.1195  -3.9455
    -3.7935  -3.7371  -2.7651  -2.7162  -2.5736  -2.4690  -2.4049  -2.2484
    -1.3026  -1.1678  -1.0876  -1.0037  -0.8678  -0.7886  -0.3001  -0.1968
     0.6368   0.9429

     occupation numbers 
     1.0000   1.0000   1.0000   1.0000   1.0000   1.0000   1.0000   1.0000
     1.0000   1.0000   1.0000   1.0000   1.0000   1.0000   1.0000   1.0000
     1.0000   1.0000   1.0000   1.0000   1.0000   1.0000   1.0000   1.0000
     1.0000   1.0000   1.0000   1.0000   1.0000   1.0000   1.0000   1.0000
     1.0000   1.0000   1.0000   1.0000   1.0000   1.0000   1.0000   1.0000
     1.0000   1.0000

          k = 0.0169 0.0214-0.0936 ( 36547 PWs)   bands (ev):

   -16.2425 -15.9040 -15.2719 -15.1398 -13.9066 -13.8277 -12.3596 -12.2668
   -11.2491 -11.2271  -8.9845  -8.8637  -8.2361  -8.0772  -6.3815  -6.3073
    -5.3548  -5.2795  -5.1217  -4.8939  -4.2823  -4.1528  -4.1184  -3.9885
    -3.7911  -3.7413  -2.7496  -2.6721  -2.6149  -2.4826  -2.3894  -2.3507
    -1.2653  -1.1973  -1.0803  -0.9881  -0.8603  -0.7538  -0.2472  -0.2098
     0.6413   0.9430

     occupation numbers 
     1.0000   1.0000   1.0000   1.0000   1.0000   1.0000   1.0000   1.0000
     1.0000   1.0000   1.0000   1.0000   1.0000   1.0000   1.0000   1.0000
     1.0000   1.0000   1.0000   1.0000   1.0000   1.0000   1.0000   1.0000
     1.0000   1.0000   1.0000   1.0000   1.0000   1.0000   1.0000   1.0000
     1.0000   1.0000   1.0000   1.0000   1.0000   1.0000   1.0000   1.0000
     1.0000   1.0000

          k = 0.0169 0.0214-0.0265 ( 36551 PWs)   bands (ev):

   -16.3015 -16.0258 -15.3149 -15.1968 -13.8894 -13.8562 -12.3715 -12.3078
   -11.2630 -11.1680  -9.0193  -8.8821  -8.2871  -8.0976  -6.3990  -6.2213
    -5.3629  -5.2605  -5.1199  -4.7411  -4.2274  -4.1805  -3.9886  -3.8220
    -3.2847  -3.1153  -2.7674  -2.5438  -2.3507  -2.3157  -2.2053  -2.1541
    -1.2239  -1.1099  -1.0443  -1.0097  -0.8829  -0.7477  -0.0458   0.1540
     0.4980   0.7276

     occupation numbers 
     1.0000   1.0000   1.0000   1.0000   1.0000   1.0000   1.0000   1.0000
     1.0000   1.0000   1.0000   1.0000   1.0000   1.0000   1.0000   1.0000
     1.0000   1.0000   1.0000   1.0000   1.0000   1.0000   1.0000   1.0000
     1.0000   1.0000   1.0000   1.0000   1.0000   1.0000   1.0000   1.0000
     1.0000   1.0000   1.0000   1.0000   1.0000   1.0000   1.0000   1.0000
     1.0000   1.0000

          k = 0.0169 0.0643 0.0407 ( 36518 PWs)   bands (ev):

   -16.2736 -16.0081 -15.3152 -15.2045 -13.9156 -13.8942 -12.4173 -12.3366
   -11.2663 -11.1808  -8.8949  -8.8401  -8.1648  -8.0877  -6.3851  -6.2749
    -5.3087  -5.2263  -5.0851  -4.8992  -4.3914  -4.2670  -4.0438  -3.8740
    -3.3548  -3.1500  -2.6795  -2.5636  -2.4698  -2.2972  -2.1270  -2.1083
    -1.0834  -0.9826  -0.9637  -0.8845  -0.8366  -0.7729  -0.0065   0.1235
     0.5685   0.7610

     occupation numbers 
     1.0000   1.0000   1.0000   1.0000   1.0000   1.0000   1.0000   1.0000
     1.0000   1.0000   1.0000   1.0000   1.0000   1.0000   1.0000   1.0000
     1.0000   1.0000   1.0000   1.0000   1.0000   1.0000   1.0000   1.0000
     1.0000   1.0000   1.0000   1.0000   1.0000   1.0000   1.0000   1.0000
     1.0000   1.0000   1.0000   1.0000   1.0000   1.0000   1.0000   1.0000
     1.0000   1.0000

          k = 0.0169 0.0643 0.1078 ( 36558 PWs)   bands (ev):

   -16.2210 -15.9030 -15.2600 -15.1452 -13.9026 -13.8568 -12.3878 -12.2795
   -11.2756 -11.2505  -8.9166  -8.8983  -8.1708  -8.1326  -6.3677  -6.2418
    -5.3219  -5.2722  -4.9910  -4.8086  -4.3270  -4.2715  -4.0736  -3.9676
    -3.9340  -3.8534  -2.7711  -2.6751  -2.5703  -2.5064  -2.3877  -2.2190
    -1.2705  -1.1000  -1.0585  -1.0268  -0.9143  -0.8401  -0.1359  -0.0973
     0.6515   0.9718

     occupation numbers 
     1.0000   1.0000   1.0000   1.0000   1.0000   1.0000   1.0000   1.0000
     1.0000   1.0000   1.0000   1.0000   1.0000   1.0000   1.0000   1.0000
     1.0000   1.0000   1.0000   1.0000   1.0000   1.0000   1.0000   1.0000
     1.0000   1.0000   1.0000   1.0000   1.0000   1.0000   1.0000   1.0000
     1.0000   1.0000   1.0000   1.0000   1.0000   1.0000   1.0000   1.0000
     1.0000   1.0000

          k = 0.0169 0.0643-0.0936 ( 36547 PWs)   bands (ev):

   -16.2231 -15.8949 -15.2665 -15.1448 -13.9134 -13.8519 -12.3814 -12.2842
   -11.2707 -11.2472  -8.9456  -8.8586  -8.1903  -8.0986  -6.3699  -6.3048
    -5.3290  -5.2597  -4.9331  -4.8508  -4.3178  -4.2351  -4.0870  -4.0244
    -3.9064  -3.8429  -2.8290  -2.6616  -2.5680  -2.5403  -2.3412  -2.2583
    -1.2385  -1.1365  -1.0589  -0.9820  -0.8974  -0.8372  -0.1340  -0.0664
     0.6585   0.9733

     occupation numbers 
     1.0000   1.0000   1.0000   1.0000   1.0000   1.0000   1.0000   1.0000
     1.0000   1.0000   1.0000   1.0000   1.0000   1.0000   1.0000   1.0000
     1.0000   1.0000   1.0000   1.0000   1.0000   1.0000   1.0000   1.0000
     1.0000   1.0000   1.0000   1.0000   1.0000   1.0000   1.0000   1.0000
     1.0000   1.0000   1.0000   1.0000   1.0000   1.0000   1.0000   1.0000
     1.0000   1.0000

          k = 0.0169 0.0643-0.0265 ( 36489 PWs)   bands (ev):

   -16.2757 -16.0014 -15.3205 -15.2039 -13.9237 -13.8920 -12.4108 -12.3412
   -11.2705 -11.1688  -8.9211  -8.8063  -8.1735  -8.0568  -6.3997  -6.3311
    -5.3047  -5.2371  -5.0316  -4.9242  -4.3631  -4.2134  -4.0692  -3.9445
    -3.3352  -3.1739  -2.6666  -2.5394  -2.4520  -2.3807  -2.1306  -2.1129
    -1.0767  -0.9941  -0.9542  -0.8696  -0.8301  -0.7363  -0.0278   0.1877
     0.5671   0.7607

     occupation numbers 
     1.0000   1.0000   1.0000   1.0000   1.0000   1.0000   1.0000   1.0000
     1.0000   1.0000   1.0000   1.0000   1.0000   1.0000   1.0000   1.0000
     1.0000   1.0000   1.0000   1.0000   1.0000   1.0000   1.0000   1.0000
     1.0000   1.0000   1.0000   1.0000   1.0000   1.0000   1.0000   1.0000
     1.0000   1.0000   1.0000   1.0000   1.0000   1.0000   1.0000   1.0000
     1.0000   1.0000

          k =-0.0169 0.0214-0.0407 ( 36525 PWs)   bands (ev):

   -16.3012 -16.0266 -15.3112 -15.2000 -13.8898 -13.8559 -12.3716 -12.3065
   -11.2637 -11.1690  -9.0202  -8.8773  -8.2662  -8.1261  -6.3761  -6.2468
    -5.3629  -5.2568  -5.0566  -4.8035  -4.2019  -4.1733  -4.0185  -3.8604
    -3.2639  -3.1180  -2.7113  -2.5655  -2.3760  -2.3109  -2.2004  -2.1335
    -1.2550  -1.1611  -1.0239  -0.9587  -0.8678  -0.7735  -0.0428   0.1553
     0.4992   0.7231

     occupation numbers 
     1.0000   1.0000   1.0000   1.0000   1.0000   1.0000   1.0000   1.0000
     1.0000   1.0000   1.0000   1.0000   1.0000   1.0000   1.0000   1.0000
     1.0000   1.0000   1.0000   1.0000   1.0000   1.0000   1.0000   1.0000
     1.0000   1.0000   1.0000   1.0000   1.0000   1.0000   1.0000   1.0000
     1.0000   1.0000   1.0000   1.0000   1.0000   1.0000   1.0000   1.0000
     1.0000   1.0000

          k =-0.0169 0.0214-0.1078 ( 36561 PWs)   bands (ev):

   -16.2424 -15.9044 -15.2700 -15.1417 -13.9068 -13.8274 -12.3597 -12.2666
   -11.2502 -11.2261  -8.9851  -8.8622  -8.2302  -8.0860  -6.3533  -6.3320
    -5.3566  -5.2780  -5.0922  -4.9295  -4.3020  -4.1624  -4.1120  -3.9399
    -3.8245  -3.7219  -2.7839  -2.6875  -2.5880  -2.4908  -2.3965  -2.3049
    -1.3111  -1.1828  -1.1004  -0.9466  -0.8543  -0.7580  -0.2597  -0.2034
     0.6427   0.9411

     occupation numbers 
     1.0000   1.0000   1.0000   1.0000   1.0000   1.0000   1.0000   1.0000
     1.0000   1.0000   1.0000   1.0000   1.0000   1.0000   1.0000   1.0000
     1.0000   1.0000   1.0000   1.0000   1.0000   1.0000   1.0000   1.0000
     1.0000   1.0000   1.0000   1.0000   1.0000   1.0000   1.0000   1.0000
     1.0000   1.0000   1.0000   1.0000   1.0000   1.0000   1.0000   1.0000
     1.0000   1.0000

          k =-0.0169 0.0214 0.0936 ( 36547 PWs)   bands (ev):

   -16.2405 -15.9118 -15.2653 -15.1404 -13.8932 -13.8354 -12.3659 -12.2616
   -11.2537 -11.2317  -8.9555  -8.9012  -8.2249  -8.1051  -6.3820  -6.2541
    -5.3452  -5.2774  -5.1388  -4.8602  -4.3224  -4.2079  -4.1033  -3.9754
    -3.7986  -3.7158  -2.7557  -2.6466  -2.5814  -2.4809  -2.4160  -2.3184
    -1.2512  -1.1757  -1.1022  -0.9795  -0.9163  -0.7725  -0.2964  -0.1957
     0.6354   0.9445

     occupation numbers 
     1.0000   1.0000   1.0000   1.0000   1.0000   1.0000   1.0000   1.0000
     1.0000   1.0000   1.0000   1.0000   1.0000   1.0000   1.0000   1.0000
     1.0000   1.0000   1.0000   1.0000   1.0000   1.0000   1.0000   1.0000
     1.0000   1.0000   1.0000   1.0000   1.0000   1.0000   1.0000   1.0000
     1.0000   1.0000   1.0000   1.0000   1.0000   1.0000   1.0000   1.0000
     1.0000   1.0000

          k =-0.0169 0.0214 0.0265 ( 36551 PWs)   bands (ev):

   -16.2996 -16.0321 -15.3093 -15.1980 -13.8765 -13.8631 -12.3782 -12.3022
   -11.2635 -11.1771  -8.9923  -8.9141  -8.2837  -8.1187  -6.4047  -6.1662
    -5.3516  -5.2718  -5.1219  -4.7112  -4.2499  -4.2191  -3.9785  -3.8226
    -3.2847  -3.0999  -2.7588  -2.5472  -2.3755  -2.2504  -2.1772  -2.1603
    -1.2387  -1.1326  -1.0707  -0.9881  -0.8964  -0.7697  -0.0183   0.0961
     0.4992   0.7224

     occupation numbers 
     1.0000   1.0000   1.0000   1.0000   1.0000   1.0000   1.0000   1.0000
     1.0000   1.0000   1.0000   1.0000   1.0000   1.0000   1.0000   1.0000
     1.0000   1.0000   1.0000   1.0000   1.0000   1.0000   1.0000   1.0000
     1.0000   1.0000   1.0000   1.0000   1.0000   1.0000   1.0000   1.0000
     1.0000   1.0000   1.0000   1.0000   1.0000   1.0000   1.0000   1.0000
     1.0000   1.0000

          k =-0.0169 0.0643-0.0407 ( 36518 PWs)   bands (ev):

   -16.2756 -16.0017 -15.3186 -15.2058 -13.9200 -13.8954 -12.4116 -12.3412
   -11.2705 -11.1676  -8.9233  -8.8047  -8.1686  -8.0661  -6.3891  -6.3235
    -5.3060  -5.2351  -5.0263  -4.9660  -4.3546  -4.2774  -3.9927  -3.9287
    -3.3256  -3.1758  -2.6444  -2.6171  -2.4331  -2.3846  -2.1431  -2.0840
    -1.0731  -1.0256  -0.8892  -0.8695  -0.8114  -0.7916  -0.0282   0.1851
     0.5739   0.7569

     occupation numbers 
     1.0000   1.0000   1.0000   1.0000   1.0000   1.0000   1.0000   1.0000
     1.0000   1.0000   1.0000   1.0000   1.0000   1.0000   1.0000   1.0000
     1.0000   1.0000   1.0000   1.0000   1.0000   1.0000   1.0000   1.0000
     1.0000   1.0000   1.0000   1.0000   1.0000   1.0000   1.0000   1.0000
     1.0000   1.0000   1.0000   1.0000   1.0000   1.0000   1.0000   1.0000
     1.0000   1.0000

          k =-0.0169 0.0643-0.1078 ( 36558 PWs)   bands (ev):

   -16.2231 -15.8950 -15.2655 -15.1460 -13.9105 -13.8546 -12.3817 -12.2844
   -11.2679 -11.2490  -8.9467  -8.8586  -8.1910  -8.0996  -6.3671  -6.2951
    -5.3290  -5.2534  -4.9389  -4.8848  -4.3175  -4.2590  -4.0451  -3.9691
    -3.9438  -3.8632  -2.7592  -2.6878  -2.5691  -2.5007  -2.3689  -2.3175
    -1.2504  -1.1235  -1.0491  -0.9975  -0.9030  -0.8127  -0.1307  -0.0656
     0.6558   0.9698

     occupation numbers 
     1.0000   1.0000   1.0000   1.0000   1.0000   1.0000   1.0000   1.0000
     1.0000   1.0000   1.0000   1.0000   1.0000   1.0000   1.0000   1.0000
     1.0000   1.0000   1.0000   1.0000   1.0000   1.0000   1.0000   1.0000
     1.0000   1.0000   1.0000   1.0000   1.0000   1.0000   1.0000   1.0000
     1.0000   1.0000   1.0000   1.0000   1.0000   1.0000   1.0000   1.0000
     1.0000   1.0000

          k =-0.0169 0.0643 0.0936 ( 36547 PWs)   bands (ev):

   -16.2210 -15.9029 -15.2595 -15.1457 -13.8997 -13.8595 -12.3877 -12.2794
   -11.2772 -11.2491  -8.9176  -8.8968  -8.1816  -8.1200  -6.3889  -6.2274
    -5.3253  -5.2704  -4.9957  -4.7704  -4.3368  -4.2887  -4.0685  -4.0178
    -3.9192  -3.8165  -2.7551  -2.7180  -2.5904  -2.5056  -2.3743  -2.1865
    -1.2463  -1.1228  -1.0955  -1.0131  -0.8843  -0.8559  -0.1398  -0.0955
     0.6548   0.9726

     occupation numbers 
     1.0000   1.0000   1.0000   1.0000   1.0000   1.0000   1.0000   1.0000
     1.0000   1.0000   1.0000   1.0000   1.0000   1.0000   1.0000   1.0000
     1.0000   1.0000   1.0000   1.0000   1.0000   1.0000   1.0000   1.0000
     1.0000   1.0000   1.0000   1.0000   1.0000   1.0000   1.0000   1.0000
     1.0000   1.0000   1.0000   1.0000   1.0000   1.0000   1.0000   1.0000
     1.0000   1.0000

          k =-0.0169 0.0643 0.0265 ( 36489 PWs)   bands (ev):

   -16.2736 -16.0082 -15.3142 -15.2054 -13.9143 -13.8958 -12.4175 -12.3351
   -11.2698 -11.1796  -8.8965  -8.8357  -8.1587  -8.0912  -6.4133  -6.2688
    -5.3099  -5.2238  -5.0609  -4.8749  -4.3564  -4.2693  -4.0506  -3.9680
    -3.3493  -3.1514  -2.6152  -2.5723  -2.4453  -2.3359  -2.1411  -2.1010
    -1.0999  -1.0035  -0.9411  -0.8767  -0.8301  -0.7749  -0.0053   0.1268
     0.5703   0.7556

     occupation numbers 
     1.0000   1.0000   1.0000   1.0000   1.0000   1.0000   1.0000   1.0000
     1.0000   1.0000   1.0000   1.0000   1.0000   1.0000   1.0000   1.0000
     1.0000   1.0000   1.0000   1.0000   1.0000   1.0000   1.0000   1.0000
     1.0000   1.0000   1.0000   1.0000   1.0000   1.0000   1.0000   1.0000
     1.0000   1.0000   1.0000   1.0000   1.0000   1.0000   1.0000   1.0000
     1.0000   1.0000

     highest occupied level (ev):     0.9733

!    total energy              =    -548.04116799 Ry
     Harris-Foulkes estimate   =    -548.04116801 Ry
     estimated scf accuracy    <       0.00000003 Ry

     total all-electron energy =     -4615.884656 Ry

     The total energy is the sum of the following terms:

     one-electron contribution =    -153.12000690 Ry
     hartree contribution      =     107.92046928 Ry
     xc contribution           =    -104.20626843 Ry
     ewald contribution        =    -142.85332866 Ry
     one-center paw contrib.   =    -255.78203328 Ry
      -> PAW hartree energy AE =      18.85178072 Ry
      -> PAW hartree energy PS =     -18.74764488 Ry
      -> PAW xc energy AE      =     -55.59719563 Ry
      -> PAW xc energy PS      =      10.05267097 Ry
      -> total E_H with PAW    =     108.02460511 Ry
      -> total E_XC with PAW   =    -149.75079309 Ry

     convergence has been achieved in  11 iterations
 writing file ./scratch/scf-261.save/charge-density
 writing file ./scratch/scf-261.save/charge-density
 writing file ./scratch/scf-261.save/charge-density
 writing file ./scratch/scf-261.save/charge-density
 writing file ./scratch/scf-261.save/charge-density
 writing file ./scratch/scf-261.save/charge-density
 writing file ./scratch/scf-261.save/charge-density
 writing file ./scratch/scf-261.save/charge-density
 writing file ./scratch/scf-261.save/charge-density
 writing file ./scratch/scf-261.save/charge-density
 writing file ./scratch/scf-261.save/charge-density
 writing file ./scratch/scf-261.save/charge-density
 writing file ./scratch/scf-261.save/charge-density
 writing file ./scratch/scf-261.save/charge-density
 writing file ./scratch/scf-261.save/charge-density
 writing file ./scratch/scf-261.save/charge-density
 writing file ./scratch/scf-261.save/charge-density
 writing file ./scratch/scf-261.save/charge-density
 writing file ./scratch/scf-261.save/charge-density
 writing file ./scratch/scf-261.save/charge-density
 writing file ./scratch/scf-261.save/charge-density
 writing file ./scratch/scf-261.save/charge-density
 writing file ./scratch/scf-261.save/charge-density
 writing file ./scratch/scf-261.save/charge-density
 writing file ./scratch/scf-261.save/charge-density
 writing file ./scratch/scf-261.save/charge-density
 writing file ./scratch/scf-261.save/charge-density
 writing file ./scratch/scf-261.save/charge-density
 writing file ./scratch/scf-261.save/charge-density
 writing file ./scratch/scf-261.save/charge-density
 writing file ./scratch/scf-261.save/charge-density
 writing file ./scratch/scf-261.save/charge-density

     Forces acting on atoms (cartesian axes, Ry/au):

     atom    1 type  2   force =    -0.05562436    0.03241262   -0.00347004
     atom    2 type  1   force =     0.03764710   -0.01273621   -0.00211421
     atom    3 type  1   force =     0.00738087   -0.01829083    0.02358902
     atom    4 type  3   force =     0.00033285    0.00495250   -0.00193710
     atom    5 type  1   force =     0.00545757    0.00051731   -0.01908119
     atom    6 type  3   force =    -0.00187340   -0.00046824   -0.00008010
     atom    7 type  3   force =     0.00210236    0.00207382    0.00103281
     atom    8 type  1   force =     0.00754257    0.00783181    0.00668770
     atom    9 type  3   force =     0.00140264    0.00335604   -0.00017431
     atom   10 type  1   force =     0.00428002    0.00080119   -0.00926544
     atom   11 type  1   force =     0.00103138    0.01843472   -0.00280823
     atom   12 type  2   force =    -0.00518055   -0.02183393    0.00239355
     atom   13 type  3   force =     0.00178103    0.00019767    0.00015971
     atom   14 type  1   force =     0.00721806   -0.00438092    0.00628444
     atom   15 type  3   force =     0.00114121    0.00038423   -0.00442929
     atom   16 type  1   force =     0.02006440   -0.00072094    0.01096432
     atom   17 type  1   force =     0.03489436   -0.05613085   -0.01846261
     atom   18 type  2   force =    -0.05249611    0.05334613    0.01098197
     atom   19 type  3   force =    -0.00342361    0.00097157    0.00129903
     atom   20 type  1   force =    -0.00472071   -0.00413489   -0.01381572
     atom   21 type  3   force =    -0.00144179   -0.00228604    0.00171651
     atom   22 type  1   force =     0.00054447   -0.00056005    0.00736046
     atom   23 type  1   force =     0.02014254   -0.00069066    0.01612465
     atom   24 type  2   force =    -0.02820291   -0.00304606   -0.01295595
     The non-local contrib.  to forces
     atom    1 type  2   force =    -0.32355255    0.22586643   -0.00819513
     atom    2 type  1   force =     0.43110035   -0.30917808   -0.01793005
     atom    3 type  1   force =    -0.03260537   -0.06288233   -0.01033075
     atom    4 type  3   force =    -0.06493877   -0.01476063   -0.04145965
     atom    5 type  1   force =    -0.03084433   -0.04541099   -0.06312911
     atom    6 type  3   force =    -0.00709528   -0.06713948   -0.04032090
     atom    7 type  3   force =     0.01135497   -0.06518143    0.04319876
     atom    8 type  1   force =     0.06659877   -0.04312886    0.04857601
     atom    9 type  3   force =     0.07130887   -0.01754155    0.02795870
     atom   10 type  1   force =     0.05382319   -0.02540290    0.01475407
     atom   11 type  1   force =    -0.40526230   -0.25411870    0.10031860
     atom   12 type  2   force =     0.33987984    0.18886037   -0.06639453
     atom   13 type  3   force =     0.00629204    0.06722421    0.04036011
     atom   14 type  1   force =     0.06027526    0.02979416    0.04969894
     atom   15 type  3   force =     0.06620265    0.01785480    0.03912853
     atom   16 type  1   force =     0.05758098    0.01865274    0.05090593
     atom   17 type  1   force =    -0.34379011    0.26166065   -0.06113434
     atom   18 type  2   force =     0.29060702   -0.24812441    0.08853941
     atom   19 type  3   force =    -0.01193823    0.06608181   -0.04115822
     atom   20 type  1   force =    -0.05263620    0.03995439   -0.05788282
     atom   21 type  3   force =    -0.07217027    0.01847490   -0.02635821
     atom   22 type  1   force =    -0.04981172    0.03211282   -0.02820450
     atom   23 type  1   force =     0.42307003    0.30181955   -0.04777274
     atom   24 type  2   force =    -0.33019191   -0.21478370   -0.00659214
     The ionic contribution  to forces
     atom    1 type  2   force =     5.65372664   -3.31035080    0.75121667
     atom    2 type  1   force =     3.26385556   -2.10440047    0.55786908
     atom    3 type  1   force =     4.98374086    1.81994166    2.59073365
     atom    4 type  3   force =     2.15683873    0.62588940    1.38146596
     atom    5 type  1   force =     1.72026923    3.85270337    3.12116447
     atom    6 type  3   force =     0.53571541    1.92102482    1.35792858
     atom    7 type  3   force =    -0.72453362    1.90143739   -1.32900386
     atom    8 type  1   force =    -2.09972243    4.30276614   -2.73558600
     atom    9 type  3   force =    -2.41575814    0.75416527   -1.03717028
     atom   10 type  1   force =    -5.29863452    2.11388908   -2.26224085
     atom   11 type  1   force =    -2.73791225   -1.91713520   -0.28144833
     atom   12 type  2   force =    -7.61535280   -4.32217973   -0.62010972
     atom   13 type  3   force =    -0.12777418   -1.89850670   -1.21597306
     atom   14 type  1   force =    -0.27527334   -4.03871475   -2.08958470
     atom   15 type  3   force =    -1.89898333   -0.64637092   -1.23573983
     atom   16 type  1   force =    -3.48940262   -1.78000097   -2.24311423
     atom   17 type  1   force =    -1.29711495    1.25863642    0.46542947
     atom   18 type  2   force =    -4.77534587    4.23723298   -0.81548941
     atom   19 type  3   force =     0.42273160   -1.94875114    1.16297443
     atom   20 type  1   force =     0.94167902   -4.24846016    2.19189882
     atom   21 type  3   force =     2.13058224   -0.74448397    0.84910146
     atom   22 type  1   force =     4.07320738   -1.96459530    1.64518757
     atom   23 type  1   force =     1.83281934    2.06662803   -0.54034002
     atom   24 type  2   force =     5.04064208    4.06963554    0.33083013
     The local contribution  to forces
     atom    1 type  2   force =    -5.40140981    3.12763714   -0.74700528
     atom    2 type  1   force =    -3.64573758    2.39200054   -0.54246599
     atom    3 type  1   force =    -4.94256537   -1.77546663   -2.55635521
     atom    4 type  3   force =    -2.09156241   -0.60617653   -1.34194063
     atom    5 type  1   force =    -1.68450965   -3.80582645   -3.07646278
     atom    6 type  3   force =    -0.53050675   -1.85435165   -1.31769452
     atom    7 type  3   force =     0.71526816   -1.83418108    1.28683406
     atom    8 type  1   force =     2.04125048   -4.25070810    2.69305623
     atom    9 type  3   force =     2.34587189   -0.73327303    1.00904377
     atom   10 type  1   force =     5.24812455   -2.08726226    2.23774864
     atom   11 type  1   force =     3.13422062    2.18284313    0.18087463
     atom   12 type  2   force =     7.28369602    4.11844122    0.68635804
     atom   13 type  3   force =     0.12325642    1.83148559    1.17577221
     atom   14 type  1   force =     0.22292655    4.00315468    2.04580029
     atom   15 type  3   force =     1.83394400    0.62890533    1.19219435
     atom   16 type  1   force =     3.45117771    1.76045199    2.20312762
     atom   17 type  1   force =     1.66761623   -1.57028913   -0.42354346
     atom   18 type  2   force =     4.44158928   -3.94370957    0.74164304
     atom   19 type  3   force =    -0.41421089    1.88364087   -1.12051600
     atom   20 type  1   force =    -0.89431951    4.20311742   -2.14736708
     atom   21 type  3   force =    -2.05983390    0.72371644   -0.82101774
     atom   22 type  1   force =    -4.02181549    1.93149097   -1.60945772
     atom   23 type  1   force =    -2.22482471   -2.36096097    0.60240131
     atom   24 type  2   force =    -4.75306131   -3.86692240   -0.33783763
     The core correction contribution to forces
     atom    1 type  2   force =     0.01551037   -0.01072622    0.00049312
     atom    2 type  1   force =    -0.01163840    0.00881606    0.00037692
     atom    3 type  1   force =    -0.00124510    0.00008342   -0.00049696
     atom    4 type  3   force =     0.00000000    0.00000000    0.00000000
     atom    5 type  1   force =     0.00045264   -0.00094214   -0.00068837
     atom    6 type  3   force =     0.00000000    0.00000000    0.00000000
     atom    7 type  3   force =     0.00000000    0.00000000    0.00000000
     atom    8 type  1   force =    -0.00072771   -0.00109682    0.00060794
     atom    9 type  3   force =     0.00000000    0.00000000    0.00000000
     atom   10 type  1   force =     0.00090819   -0.00042410    0.00045374
     atom   11 type  1   force =     0.00993895    0.00686890   -0.00259407
     atom   12 type  2   force =    -0.01339560   -0.00694642    0.00251204
     atom   13 type  3   force =     0.00000000    0.00000000    0.00000000
     atom   14 type  1   force =    -0.00076944    0.00142467    0.00036891
     atom   15 type  3   force =     0.00000000    0.00000000    0.00000000
     atom   16 type  1   force =     0.00069477    0.00017727    0.00004348
     atom   17 type  1   force =     0.00815331   -0.00618546    0.00075066
     atom   18 type  2   force =    -0.00927737    0.00791496   -0.00369993
     atom   19 type  3   force =     0.00000000    0.00000000    0.00000000
     atom   20 type  1   force =     0.00054819    0.00121567   -0.00045847
     atom   21 type  3   force =     0.00000000    0.00000000    0.00000000
     atom   22 type  1   force =    -0.00097132    0.00035797   -0.00011392
     atom   23 type  1   force =    -0.01090459   -0.00818469    0.00185149
     atom   24 type  2   force =     0.01465397    0.00909409    0.00072784
     The Hubbard contrib.    to forces
     atom    1 type  2   force =     0.00000000    0.00000000    0.00000000
     atom    2 type  1   force =     0.00000000    0.00000000    0.00000000
     atom    3 type  1   force =     0.00000000    0.00000000    0.00000000
     atom    4 type  3   force =     0.00000000    0.00000000    0.00000000
     atom    5 type  1   force =     0.00000000    0.00000000    0.00000000
     atom    6 type  3   force =     0.00000000    0.00000000    0.00000000
     atom    7 type  3   force =     0.00000000    0.00000000    0.00000000
     atom    8 type  1   force =     0.00000000    0.00000000    0.00000000
     atom    9 type  3   force =     0.00000000    0.00000000    0.00000000
     atom   10 type  1   force =     0.00000000    0.00000000    0.00000000
     atom   11 type  1   force =     0.00000000    0.00000000    0.00000000
     atom   12 type  2   force =     0.00000000    0.00000000    0.00000000
     atom   13 type  3   force =     0.00000000    0.00000000    0.00000000
     atom   14 type  1   force =     0.00000000    0.00000000    0.00000000
     atom   15 type  3   force =     0.00000000    0.00000000    0.00000000
     atom   16 type  1   force =     0.00000000    0.00000000    0.00000000
     atom   17 type  1   force =     0.00000000    0.00000000    0.00000000
     atom   18 type  2   force =     0.00000000    0.00000000    0.00000000
     atom   19 type  3   force =     0.00000000    0.00000000    0.00000000
     atom   20 type  1   force =     0.00000000    0.00000000    0.00000000
     atom   21 type  3   force =     0.00000000    0.00000000    0.00000000
     atom   22 type  1   force =     0.00000000    0.00000000    0.00000000
     atom   23 type  1   force =     0.00000000    0.00000000    0.00000000
     atom   24 type  2   force =     0.00000000    0.00000000    0.00000000
     The SCF correction term to forces
     atom    1 type  2   force =     0.00010215   -0.00001407    0.00002056
     atom    2 type  1   force =     0.00006834    0.00002559    0.00003579
     atom    3 type  1   force =     0.00005701    0.00003292    0.00003826
     atom    4 type  3   force =    -0.00000353    0.00000012   -0.00000282
     atom    5 type  1   force =     0.00009084   -0.00000662    0.00003455
     atom    6 type  3   force =     0.00001438   -0.00000207    0.00000670
     atom    7 type  3   force =     0.00001401   -0.00000120    0.00000380
     atom    8 type  1   force =     0.00014462   -0.00000070    0.00003349
     atom    9 type  3   force =    -0.00001882    0.00000522   -0.00000653
     atom   10 type  1   force =     0.00005977    0.00000123    0.00001891
     atom   11 type  1   force =     0.00004751   -0.00002355    0.00004091
     atom   12 type  2   force =    -0.00000685   -0.00000951    0.00002768
     atom   13 type  3   force =     0.00000791   -0.00000558    0.00000042
     atom   14 type  1   force =     0.00006018   -0.00003982    0.00000096
     atom   15 type  3   force =    -0.00002096   -0.00000512   -0.00001238
     atom   16 type  1   force =     0.00001472   -0.00000210    0.00000148
     atom   17 type  1   force =     0.00003103    0.00004654    0.00003502
     atom   18 type  2   force =    -0.00006800    0.00003203   -0.00001118
     atom   19 type  3   force =    -0.00000493   -0.00000012   -0.00000122
     atom   20 type  1   force =     0.00000896    0.00003764   -0.00000621
     atom   21 type  3   force =    -0.00001869    0.00000644   -0.00000905
     atom   22 type  1   force =    -0.00006322    0.00007336   -0.00005100
     atom   23 type  1   force =    -0.00001637    0.00000728   -0.00001544
     atom   24 type  2   force =    -0.00024459   -0.00006971   -0.00008420

     Total force =     0.145944     Total SCF correction =     0.000410

     Writing output data file scf-261.save
 writing file ./scratch/scf-261.save/charge-density
 writing file ./scratch/scf-261.save/charge-density
 writing file ./scratch/scf-261.save/charge-density
 writing file ./scratch/scf-261.save/charge-density
 writing file ./scratch/scf-261.save/charge-density
 writing file ./scratch/scf-261.save/charge-density
 writing file ./scratch/scf-261.save/charge-density
 writing file ./scratch/scf-261.save/charge-density
 writing file ./scratch/scf-261.save/charge-density
 writing file ./scratch/scf-261.save/charge-density
 writing file ./scratch/scf-261.save/charge-density
 writing file ./scratch/scf-261.save/charge-density
 writing file ./scratch/scf-261.save/charge-density
 writing file ./scratch/scf-261.save/charge-density
 writing file ./scratch/scf-261.save/charge-density
 writing file ./scratch/scf-261.save/charge-density
 writing file ./scratch/scf-261.save/charge-density
 writing file ./scratch/scf-261.save/charge-density
 writing file ./scratch/scf-261.save/charge-density
 writing file ./scratch/scf-261.save/charge-density
 writing file ./scratch/scf-261.save/charge-density
 writing file ./scratch/scf-261.save/charge-density
 writing file ./scratch/scf-261.save/charge-density
 writing file ./scratch/scf-261.save/charge-density
 writing file ./scratch/scf-261.save/charge-density
 writing file ./scratch/scf-261.save/charge-density
 writing file ./scratch/scf-261.save/charge-density
 writing file ./scratch/scf-261.save/charge-density
 writing file ./scratch/scf-261.save/charge-density
 writing file ./scratch/scf-261.save/charge-density
 writing file ./scratch/scf-261.save/charge-density
 writing file ./scratch/scf-261.save/charge-density
 
     init_run     :      4.49s CPU      4.74s WALL (       1 calls)
     electrons    :     50.28s CPU     53.25s WALL (       1 calls)
     forces       :      2.32s CPU      2.48s WALL (       1 calls)

     Called by init_run:
     wfcinit      :      1.59s CPU      1.63s WALL (       1 calls)
     wfcinit:atom :      0.03s CPU      0.02s WALL (      16 calls)
     wfcinit:wfcr :      1.49s CPU      1.51s WALL (      16 calls)
     potinit      :      1.00s CPU      1.02s WALL (       1 calls)

     Called by electrons:
     c_bands      :     39.27s CPU     39.65s WALL (      11 calls)
     sum_band     :      6.96s CPU      8.15s WALL (      11 calls)
     v_of_rho     :      0.91s CPU      0.97s WALL (      12 calls)
     v_h          :      0.06s CPU      0.06s WALL (      12 calls)
     v_xc         :      0.92s CPU      0.99s WALL (      13 calls)
     newd         :      1.48s CPU      2.85s WALL (      12 calls)
     PAW_pot      :      1.64s CPU      1.69s WALL (      12 calls)
     mix_rho      :      0.15s CPU      0.14s WALL (      11 calls)

     Called by c_bands:
     init_us_2    :      0.79s CPU      0.86s WALL (     384 calls)
     cegterg      :     36.98s CPU     37.27s WALL (     176 calls)

     Called by sum_band:
     sum_band:bec :      0.01s CPU      0.02s WALL (     176 calls)
     addusdens    :      1.52s CPU      2.67s WALL (      11 calls)

     Called by *egterg:
     h_psi        :     27.76s CPU     27.89s WALL (     863 calls)
     s_psi        :      2.10s CPU      2.04s WALL (     863 calls)
     g_psi        :      0.12s CPU      0.16s WALL (     671 calls)
     cdiaghg      :      3.40s CPU      3.44s WALL (     847 calls)
     cegterg:over :      1.61s CPU      1.64s WALL (     671 calls)
     cegterg:upda :      1.19s CPU      1.28s WALL (     671 calls)
     cegterg:last :      0.47s CPU      0.44s WALL (     192 calls)

     Called by h_psi:
     h_psi:pot    :     27.45s CPU     27.60s WALL (     863 calls)
     h_psi:calbec :      2.26s CPU      2.27s WALL (     863 calls)
     vloc_psi     :     23.14s CPU     23.33s WALL (     863 calls)
     add_vuspsi   :      2.04s CPU      2.00s WALL (     863 calls)

     General routines
     calbec       :      3.05s CPU      3.02s WALL (    1103 calls)
     fft          :      0.81s CPU      0.91s WALL (     199 calls)
     ffts         :      0.03s CPU      0.03s WALL (      23 calls)
     fftw         :     21.66s CPU     21.81s WALL (   55744 calls)
     interpolate  :      0.14s CPU      0.15s WALL (      23 calls)
     davcio       :      0.00s CPU      0.01s WALL (      16 calls)
 
     Parallel routines
     fft_scatter  :      7.82s CPU      7.99s WALL (   55966 calls)

     PAW routines
     PAW_pot      :      1.64s CPU      1.69s WALL (      12 calls)
 
     PWSCF        :  0m57.75s CPU     1m 1.65s WALL

 
   This run was terminated on:  10:49:17  20May2017            

=------------------------------------------------------------------------------=
   JOB DONE.
=------------------------------------------------------------------------------=
