
     Program PWSCF v.6.1 starts on 20May2017 at 12:33:12 

     This program is part of the open-source Quantum ESPRESSO suite
     for quantum simulation of materials; please cite
         "P. Giannozzi et al., J. Phys.:Condens. Matter 21 395502 (2009);
          URL http://www.quantum-espresso.org", 
     in publications or presentations arising from this work. More details at
     http://www.quantum-espresso.org/quote

     Parallel version (MPI & OpenMP), running on      32 processor cores
     Number of MPI processes:                32
     Threads/MPI process:                     1
     R & G space division:  proc/nbgrp/npool/nimage =      32
     Waiting for input...
     Reading input from standard input
Warning: card &IONS ignored
Warning: card     ION_TEMPERATURE   = 'INITIAL' ignored
Warning: card     TEMPW             = 586.D0 ignored
Warning: card     TOLP              = 100.D0 ignored
Warning: card     DELTA_T           = 1.D0 ignored
Warning: card     NRAISE            = 1 ignored
Warning: card / ignored
Warning: card &CELL ignored
Warning: card     CELL_DYNAMICS     = 'BFGS' ignored
Warning: card / ignored

     Current dimensions of program PWSCF are:
     Max number of different atomic species (ntypx) = 10
     Max number of k-points (npk) =  40000
     Max angular momentum in pseudopotentials (lmaxx) =  3
               file C.pbe-n-kjpaw_psl.1.0.0.UPF: wavefunction(s)  2S 2P renormalized
               file Cl.pbe-n-kjpaw_psl.1.0.0.UPF: wavefunction(s)  3S 3P renormalized
               file H.pbe-kjpaw_psl.1.0.0.UPF: wavefunction(s)  1S renormalized

     Subspace diagonalization in iterative solution of the eigenvalue problem:
     a serial algorithm will be used

 
     Parallelization info
     --------------------
     sticks:   dense  smooth     PW     G-vecs:    dense   smooth      PW
     Min         764     305     83                36108     9133    1292
     Max         765     306     84                36110     9135    1293
     Sum       24467    9791   2657              1155489   292295   41363
 


     bravais-lattice index     =            0
     lattice parameter (alat)  =       1.8897  a.u.
     unit-cell volume          =    2163.5316 (a.u.)^3
     number of atoms/cell      =           24
     number of atomic types    =            3
     number of electrons       =        84.00
     number of Kohn-Sham states=           42
     kinetic-energy cutoff     =     100.0000  Ry
     charge density cutoff     =    1000.0000  Ry
     convergence threshold     =      1.0E-07
     mixing beta               =       0.7000
     number of iterations used =            8  plain     mixing
     Exchange-correlation      =  SLA  PW   PBX  PBC ( 1  4  3  4 0 0)

     celldm(1)=   1.889726  celldm(2)=   0.000000  celldm(3)=   0.000000
     celldm(4)=   0.000000  celldm(5)=   0.000000  celldm(6)=   0.000000

     crystal axes: (cart. coord. in units of alat)
               a(1) = (  14.762000   0.000000   0.000000 )  
               a(2) = (   0.000000   5.832000   0.000000 )  
               a(3) = (  -1.563876   0.000000   3.723951 )  

     reciprocal axes: (cart. coord. in units 2 pi/alat)
               b(1) = (  0.067741  0.000000  0.028448 )  
               b(2) = (  0.000000  0.171468  0.000000 )  
               b(3) = (  0.000000  0.000000  0.268532 )  


     PseudoPot. # 1 for  C read from file:
     /global/cscratch1/sd/almno10/.data/PSEUDOPOTENTIALS/C.pbe-n-kjpaw_psl.1.0.0.UPF
     MD5 check sum: 2ba8448e293caca687844dde9a1b88a8
     Pseudo is Projector augmented-wave + core cor, Zval =  4.0
     Generated using "atomic" code by A. Dal Corso  v.5.3.0 svn rev. 11974
     Shape of augmentation charge: PSQ
     Using radial grid of 1073 points,  4 beta functions with: 
                l(1) =   0
                l(2) =   0
                l(3) =   1
                l(4) =   1
     Q(r) pseudized with 0 coefficients 


     PseudoPot. # 2 for Cl read from file:
     /global/cscratch1/sd/almno10/.data/PSEUDOPOTENTIALS/Cl.pbe-n-kjpaw_psl.1.0.0.UPF
     MD5 check sum: dca63699d6b897c5771335df08a09219
     Pseudo is Projector augmented-wave + core cor, Zval =  7.0
     Generated using "atomic" code by A. Dal Corso  v.5.3.0 svn rev. 11974
     Shape of augmentation charge: PSQ
     Using radial grid of 1157 points,  6 beta functions with: 
                l(1) =   0
                l(2) =   0
                l(3) =   1
                l(4) =   1
                l(5) =   2
                l(6) =   2
     Q(r) pseudized with 0 coefficients 


     PseudoPot. # 3 for  H read from file:
     /global/cscratch1/sd/almno10/.data/PSEUDOPOTENTIALS/H.pbe-kjpaw_psl.1.0.0.UPF
     MD5 check sum: bc0feb48a24907a0b97fa6ee2d589a29
     Pseudo is Projector augmented-wave, Zval =  1.0
     Generated using "atomic" code by A. Dal Corso  v.5.3.0 svn rev. 11974
     Shape of augmentation charge: PSQ
     Using radial grid of  929 points,  2 beta functions with: 
                l(1) =   0
                l(2) =   0
     Q(r) pseudized with 0 coefficients 


     atomic species   valence    mass     pseudopotential
        C              4.00    12.01100      C( 1.00)
        Cl             7.00    35.45270     Cl( 1.00)
        H              1.00     1.00790      H( 1.00)

     No symmetry found


                                    s                        frac. trans.

      isym =  1     identity                                     

 cryst.   s( 1) = (     1          0          0      )
                  (     0          1          0      )
                  (     0          0          1      )

 cart.    s( 1) = (  1.0000000  0.0000000 -0.0000000 )
                  (  0.0000000  1.0000000  0.0000000 )
                  (  0.0000000  0.0000000  1.0000000 )


   Cartesian axes

     site n.     atom                  positions (alat units)
         1           Cl  tau(   1) = (  16.2968927   0.9485779   1.7671330  )
         2           C   tau(   2) = (  15.0153825   1.9869342   1.7131650  )
         3           C   tau(   3) = (  15.1996536   3.2264238   2.3242396  )
         4           H   tau(   4) = (  16.1594281   3.5069211   2.7543200  )
         5           C   tau(   5) = (  14.0824019   4.0353407   2.5257605  )
         6           H   tau(   6) = (  14.1952605   5.0057788   3.0056498  )
         7           H   tau(   7) = (   6.6729783   2.0842520   0.2894925  )
         8           C   tau(   8) = (   6.6737344   1.2482793   0.9859501  )
         9           H   tau(   9) = (   4.7009370   0.5823212   0.4246364  )
        10           C   tau(  10) = (   5.5845264   0.3783283   1.0279797  )
        11           C   tau(  11) = (   5.5609661  -0.7051927   1.9046884  )
        12           Cl  tau(  12) = (   4.2282650  -1.8150009   1.7514174  )
        13           H   tau(  13) = (  13.7161006   0.7332731   0.5411526  )
        14           C   tau(  14) = (  13.7888110   1.6319799   1.1509624  )
        15           H   tau(  15) = (  11.7648919   2.2600593   0.7544452  )
        16           C   tau(  16) = (  12.7212226   2.5300985   1.1954249  )
        17           C   tau(  17) = (  12.8525705   3.6706302   1.9790005  )
        18           Cl  tau(  18) = (  11.3405378   4.6865411   2.1072800  )
        19           H   tau(  19) = (   6.6585854  -1.8416318   3.4107410  )
        20           C   tau(  20) = (   6.6560697  -1.0052915   2.7137899  )
        21           H   tau(  21) = (   8.6300460  -0.3436413   3.2684836  )
        22           C   tau(  22) = (   7.7551976  -0.1509366   2.6510124  )
        23           C   tau(  23) = (   7.7782658   0.9324066   1.7742262  )
        24           Cl  tau(  24) = (   9.2216426   1.9068121   1.9694488  )

   Crystallographic axes

     site n.     atom                  positions (cryst. coord.)
         1           Cl  tau(   1) = (  1.1542475  0.1626505  0.4745317  )
         2           C   tau(   2) = (  1.0659008  0.3406952  0.4600396  )
         3           C   tau(   3) = (  1.0957675  0.5532277  0.6241326  )
         4           H   tau(   4) = (  1.1730190  0.6013239  0.7396230  )
         5           C   tau(   5) = (  1.0258161  0.6919308  0.6782474  )
         6           H   tau(   6) = (  1.0471132  0.8583297  0.8071131  )
         7           H   tau(   7) = (  0.4602731  0.3573820  0.0777380  )
         8           C   tau(   8) = (  0.4801372  0.2140397  0.2647591  )
         9           H   tau(   9) = (  0.3305286  0.0998493  0.1140285  )
        10           C   tau(  10) = (  0.4075482  0.0648711  0.2760454  )
        11           C   tau(  11) = (  0.4308929 -0.1209178  0.5114697  )
        12           Cl  tau(  12) = (  0.3362535 -0.3112141  0.4703116  )
        13           H   tau(  13) = (  0.9445440  0.1257327  0.1453168  )
        14           C   tau(  14) = (  0.9668174  0.2798319  0.3090702  )
        15           H   tau(  15) = (  0.8184339  0.3875273  0.2025927  )
        16           C   tau(  16) = (  0.8957622  0.4338303  0.3210098  )
        17           C   tau(  17) = (  0.9269512  0.6293948  0.5314249  )
        18           Cl  tau(  18) = (  0.8281731  0.8035907  0.5658720  )
        19           H   tau(  19) = (  0.5480916 -0.3157805  0.9158930  )
        20           C   tau(  20) = (  0.5280943 -0.1723751  0.7287393  )
        21           H   tau(  21) = (  0.6775943 -0.0589234  0.8776923  )
        22           C   tau(  22) = (  0.6007649 -0.0258808  0.7118816  )
        23           C   tau(  23) = (  0.5773847  0.1598777  0.4764365  )
        24           Cl  tau(  24) = (  0.6807149  0.3269568  0.5288600  )

     number of k points=    16
                       cart. coord. in units 2pi/alat
        k(    1) = (   0.0169354   0.0214335   0.0406785), wk =   0.1250000
        k(    2) = (   0.0169354   0.0214335   0.1078115), wk =   0.1250000
        k(    3) = (   0.0169354   0.0214335  -0.0935875), wk =   0.1250000
        k(    4) = (   0.0169354   0.0214335  -0.0264545), wk =   0.1250000
        k(    5) = (   0.0169354   0.0643004   0.0406785), wk =   0.1250000
        k(    6) = (   0.0169354   0.0643004   0.1078115), wk =   0.1250000
        k(    7) = (   0.0169354   0.0643004  -0.0935875), wk =   0.1250000
        k(    8) = (   0.0169354   0.0643004  -0.0264545), wk =   0.1250000
        k(    9) = (  -0.0169354   0.0214335  -0.0406785), wk =   0.1250000
        k(   10) = (  -0.0169354   0.0214335  -0.1078115), wk =   0.1250000
        k(   11) = (  -0.0169354   0.0214335   0.0935875), wk =   0.1250000
        k(   12) = (  -0.0169354   0.0214335   0.0264545), wk =   0.1250000
        k(   13) = (  -0.0169354   0.0643004  -0.0406785), wk =   0.1250000
        k(   14) = (  -0.0169354   0.0643004  -0.1078115), wk =   0.1250000
        k(   15) = (  -0.0169354   0.0643004   0.0935875), wk =   0.1250000
        k(   16) = (  -0.0169354   0.0643004   0.0264545), wk =   0.1250000

                       cryst. coord.
        k(    1) = (   0.2500000   0.1250000   0.1250000), wk =   0.1250000
        k(    2) = (   0.2500000   0.1250000   0.3750000), wk =   0.1250000
        k(    3) = (   0.2500000   0.1250000  -0.3750000), wk =   0.1250000
        k(    4) = (   0.2500000   0.1250000  -0.1250000), wk =   0.1250000
        k(    5) = (   0.2500000   0.3750000   0.1250000), wk =   0.1250000
        k(    6) = (   0.2500000   0.3750000   0.3750000), wk =   0.1250000
        k(    7) = (   0.2500000   0.3750000  -0.3750000), wk =   0.1250000
        k(    8) = (   0.2500000   0.3750000  -0.1250000), wk =   0.1250000
        k(    9) = (  -0.2500000   0.1250000  -0.1250000), wk =   0.1250000
        k(   10) = (  -0.2500000   0.1250000  -0.3750000), wk =   0.1250000
        k(   11) = (  -0.2500000   0.1250000   0.3750000), wk =   0.1250000
        k(   12) = (  -0.2500000   0.1250000   0.1250000), wk =   0.1250000
        k(   13) = (  -0.2500000   0.3750000  -0.1250000), wk =   0.1250000
        k(   14) = (  -0.2500000   0.3750000  -0.3750000), wk =   0.1250000
        k(   15) = (  -0.2500000   0.3750000   0.3750000), wk =   0.1250000
        k(   16) = (  -0.2500000   0.3750000   0.1250000), wk =   0.1250000

     Dense  grid:  1155489 G-vectors     FFT dimensions: ( 288, 120,  80)

     Smooth grid:   292295 G-vectors     FFT dimensions: ( 180,  72,  50)

     Estimated max dynamical RAM per process >     147.21MB

     Estimated total allocated dynamical RAM >    4710.62MB

     Initial potential from superposition of free atoms

     starting charge   83.99939, renormalised to   84.00000
     Starting wfc are   72 randomized atomic wfcs
     Checking if some PAW data can be deallocated... 
       node    0, deallocated PAW data for type:  1
       node    0, deallocated PAW data for type:  3
       node    1, deallocated PAW data for type:  1
       node    1, deallocated PAW data for type:  3
       node    2, deallocated PAW data for type:  2
       node    2, deallocated PAW data for type:  3
       node    3, deallocated PAW data for type:  2
       node    3, deallocated PAW data for type:  3
       node    4, deallocated PAW data for type:  2
       node    4, deallocated PAW data for type:  3
       node    5, deallocated PAW data for type:  2
       node    5, deallocated PAW data for type:  3
       node    6, deallocated PAW data for type:  1
       node    6, deallocated PAW data for type:  2
       node    7, deallocated PAW data for type:  1
       node    7, deallocated PAW data for type:  2
       node    8, deallocated PAW data for type:  2
       node    8, deallocated PAW data for type:  3
       node    9, deallocated PAW data for type:  2
       node    9, deallocated PAW data for type:  3
       node   10, deallocated PAW data for type:  1
       node   10, deallocated PAW data for type:  2
       node   11, deallocated PAW data for type:  1
       node   11, deallocated PAW data for type:  2
       node   12, deallocated PAW data for type:  1
       node   12, deallocated PAW data for type:  2
       node   13, deallocated PAW data for type:  1
       node   13, deallocated PAW data for type:  2
       node   14, deallocated PAW data for type:  2
       node   14, deallocated PAW data for type:  3
       node   15, deallocated PAW data for type:  2
       node   15, deallocated PAW data for type:  3
       node   16, deallocated PAW data for type:  1
       node   16, deallocated PAW data for type:  2
       node   17, deallocated PAW data for type:  2
       node   17, deallocated PAW data for type:  3
       node   18, deallocated PAW data for type:  2
       node   18, deallocated PAW data for type:  3
       node   19, deallocated PAW data for type:  1
       node   19, deallocated PAW data for type:  3
       node   20, deallocated PAW data for type:  1
       node   20, deallocated PAW data for type:  2
       node   21, deallocated PAW data for type:  2
       node   21, deallocated PAW data for type:  3
       node   22, deallocated PAW data for type:  1
       node   22, deallocated PAW data for type:  2
       node   23, deallocated PAW data for type:  2
       node   23, deallocated PAW data for type:  3
       node   24, deallocated PAW data for type:  2
       node   24, deallocated PAW data for type:  3
       node   25, deallocated PAW data for type:  1
       node   25, deallocated PAW data for type:  3
       node   26, deallocated PAW data for type:  1
       node   26, deallocated PAW data for type:  2
       node   27, deallocated PAW data for type:  2
       node   27, deallocated PAW data for type:  3
       node   28, deallocated PAW data for type:  1
       node   28, deallocated PAW data for type:  2
       node   29, deallocated PAW data for type:  2
       node   29, deallocated PAW data for type:  3
       node   30, deallocated PAW data for type:  2
       node   30, deallocated PAW data for type:  3
       node   31, deallocated PAW data for type:  1
       node   31, deallocated PAW data for type:  3

     total cpu time spent up to now is        5.2 secs

     per-process dynamical memory:    20.7 Mb

     Self-consistent Calculation

     iteration #  1     ecut=   100.00 Ry     beta= 0.70
     Davidson diagonalization with overlap
     ethr =  1.00E-04,  avg # of iterations =  5.0

     total cpu time spent up to now is       12.0 secs

     total energy              =    -547.10911977 Ry
     Harris-Foulkes estimate   =    -548.98915991 Ry
     estimated scf accuracy    <       2.74796500 Ry

     iteration #  2     ecut=   100.00 Ry     beta= 0.70
     Davidson diagonalization with overlap
     ethr =  3.27E-03,  avg # of iterations =  3.0

     total cpu time spent up to now is       16.9 secs

     total energy              =    -547.51176573 Ry
     Harris-Foulkes estimate   =    -548.60403385 Ry
     estimated scf accuracy    <       1.97371433 Ry

     iteration #  3     ecut=   100.00 Ry     beta= 0.70
     Davidson diagonalization with overlap
     ethr =  2.35E-03,  avg # of iterations =  2.9

     total cpu time spent up to now is       21.3 secs

     total energy              =    -548.00263551 Ry
     Harris-Foulkes estimate   =    -548.04503162 Ry
     estimated scf accuracy    <       0.08514539 Ry

     iteration #  4     ecut=   100.00 Ry     beta= 0.70
     Davidson diagonalization with overlap
     ethr =  1.01E-04,  avg # of iterations =  3.9

     total cpu time spent up to now is       26.1 secs

     total energy              =    -548.03027509 Ry
     Harris-Foulkes estimate   =    -548.04069986 Ry
     estimated scf accuracy    <       0.02045164 Ry

     iteration #  5     ecut=   100.00 Ry     beta= 0.70
     Davidson diagonalization with overlap
     ethr =  2.43E-05,  avg # of iterations =  3.0

     total cpu time spent up to now is       30.6 secs

     total energy              =    -548.03434832 Ry
     Harris-Foulkes estimate   =    -548.03531244 Ry
     estimated scf accuracy    <       0.00177888 Ry

     iteration #  6     ecut=   100.00 Ry     beta= 0.70
     Davidson diagonalization with overlap
     ethr =  2.12E-06,  avg # of iterations =  4.0

     total cpu time spent up to now is       35.3 secs

     total energy              =    -548.03464476 Ry
     Harris-Foulkes estimate   =    -548.03536372 Ry
     estimated scf accuracy    <       0.00187444 Ry

     iteration #  7     ecut=   100.00 Ry     beta= 0.70
     Davidson diagonalization with overlap
     ethr =  2.12E-06,  avg # of iterations =  4.0

     total cpu time spent up to now is       39.6 secs

     total energy              =    -548.03500701 Ry
     Harris-Foulkes estimate   =    -548.03503873 Ry
     estimated scf accuracy    <       0.00008719 Ry

     iteration #  8     ecut=   100.00 Ry     beta= 0.70
     Davidson diagonalization with overlap
     ethr =  1.04E-07,  avg # of iterations =  4.0

     total cpu time spent up to now is       44.2 secs

     total energy              =    -548.03502681 Ry
     Harris-Foulkes estimate   =    -548.03503214 Ry
     estimated scf accuracy    <       0.00001149 Ry

     iteration #  9     ecut=   100.00 Ry     beta= 0.70
     Davidson diagonalization with overlap
     ethr =  1.37E-08,  avg # of iterations =  4.0

     total cpu time spent up to now is       49.0 secs

     total energy              =    -548.03502955 Ry
     Harris-Foulkes estimate   =    -548.03503092 Ry
     estimated scf accuracy    <       0.00000317 Ry

     iteration # 10     ecut=   100.00 Ry     beta= 0.70
     Davidson diagonalization with overlap
     ethr =  3.77E-09,  avg # of iterations =  4.0

     total cpu time spent up to now is       53.6 secs

     total energy              =    -548.03503021 Ry
     Harris-Foulkes estimate   =    -548.03503032 Ry
     estimated scf accuracy    <       0.00000027 Ry

     iteration # 11     ecut=   100.00 Ry     beta= 0.70
     Davidson diagonalization with overlap
     ethr =  3.20E-10,  avg # of iterations =  4.0

     total cpu time spent up to now is       58.4 secs

     End of self-consistent calculation

          k = 0.0169 0.0214 0.0407 ( 36525 PWs)   bands (ev):

   -16.3761 -16.1076 -15.4202 -15.2257 -13.9756 -13.8300 -12.3656 -12.2801
   -11.2721 -11.1568  -9.0156  -8.9264  -8.2297  -8.1208  -6.3706  -6.2920
    -5.3688  -5.2934  -5.0267  -4.8493  -4.2229  -4.1260  -3.9804  -3.9195
    -3.2710  -3.1826  -2.7213  -2.6037  -2.4050  -2.3248  -2.2529  -2.1304
    -1.2619  -1.1848  -1.0011  -0.9188  -0.8690  -0.6664  -0.1739   0.1495
     0.6229   0.7618

     occupation numbers 
     1.0000   1.0000   1.0000   1.0000   1.0000   1.0000   1.0000   1.0000
     1.0000   1.0000   1.0000   1.0000   1.0000   1.0000   1.0000   1.0000
     1.0000   1.0000   1.0000   1.0000   1.0000   1.0000   1.0000   1.0000
     1.0000   1.0000   1.0000   1.0000   1.0000   1.0000   1.0000   1.0000
     1.0000   1.0000   1.0000   1.0000   1.0000   1.0000   1.0000   1.0000
     1.0000   1.0000

          k = 0.0169 0.0214 0.1078 ( 36561 PWs)   bands (ev):

   -16.3153 -16.0129 -15.3715 -15.1606 -13.9425 -13.8155 -12.3990 -12.2517
   -11.2664 -11.1668  -8.9896  -8.8962  -8.2376  -8.0832  -6.3839  -6.2994
    -5.3645  -5.3068  -5.0204  -4.9886  -4.3436  -4.1485  -4.0906  -4.0034
    -3.8008  -3.7598  -2.8339  -2.7600  -2.6339  -2.4109  -2.3735  -2.3139
    -1.3427  -1.1959  -1.1293  -1.0210  -0.8778  -0.6505  -0.1761  -0.1352
     0.6527   0.8407

     occupation numbers 
     1.0000   1.0000   1.0000   1.0000   1.0000   1.0000   1.0000   1.0000
     1.0000   1.0000   1.0000   1.0000   1.0000   1.0000   1.0000   1.0000
     1.0000   1.0000   1.0000   1.0000   1.0000   1.0000   1.0000   1.0000
     1.0000   1.0000   1.0000   1.0000   1.0000   1.0000   1.0000   1.0000
     1.0000   1.0000   1.0000   1.0000   1.0000   1.0000   1.0000   1.0000
     1.0000   1.0000

          k = 0.0169 0.0214-0.0936 ( 36547 PWs)   bands (ev):

   -16.3178 -16.0085 -15.3751 -15.1591 -13.9449 -13.8104 -12.4073 -12.2458
   -11.2600 -11.1786  -8.9525  -8.9243  -8.2175  -8.1089  -6.3665  -6.2845
    -5.3551  -5.3094  -5.1329  -4.8949  -4.3669  -4.1680  -4.0849  -4.0591
    -3.8000  -3.7371  -2.7431  -2.6836  -2.6424  -2.4784  -2.4447  -2.2945
    -1.2864  -1.1456  -1.1218  -1.0653  -0.9002  -0.6770  -0.2206  -0.1131
     0.6437   0.8473

     occupation numbers 
     1.0000   1.0000   1.0000   1.0000   1.0000   1.0000   1.0000   1.0000
     1.0000   1.0000   1.0000   1.0000   1.0000   1.0000   1.0000   1.0000
     1.0000   1.0000   1.0000   1.0000   1.0000   1.0000   1.0000   1.0000
     1.0000   1.0000   1.0000   1.0000   1.0000   1.0000   1.0000   1.0000
     1.0000   1.0000   1.0000   1.0000   1.0000   1.0000   1.0000   1.0000
     1.0000   1.0000

          k = 0.0169 0.0214-0.0265 ( 36551 PWs)   bands (ev):

   -16.3787 -16.1033 -15.4240 -15.2240 -13.9788 -13.8235 -12.3748 -12.2751
   -11.2701 -11.1623  -8.9806  -8.9542  -8.2578  -8.0889  -6.4200  -6.2101
    -5.3586  -5.3001  -5.1437  -4.7538  -4.3212  -4.1784  -3.8976  -3.8569
    -3.2563  -3.2220  -2.8060  -2.5514  -2.3484  -2.3183  -2.2527  -2.1485
    -1.2119  -1.1223  -1.0766  -0.9076  -0.8952  -0.6768  -0.1666   0.1023
     0.6323   0.7604

     occupation numbers 
     1.0000   1.0000   1.0000   1.0000   1.0000   1.0000   1.0000   1.0000
     1.0000   1.0000   1.0000   1.0000   1.0000   1.0000   1.0000   1.0000
     1.0000   1.0000   1.0000   1.0000   1.0000   1.0000   1.0000   1.0000
     1.0000   1.0000   1.0000   1.0000   1.0000   1.0000   1.0000   1.0000
     1.0000   1.0000   1.0000   1.0000   1.0000   1.0000   1.0000   1.0000
     1.0000   1.0000

          k = 0.0169 0.0643 0.0407 ( 36518 PWs)   bands (ev):

   -16.3548 -16.0858 -15.4227 -15.2330 -14.0000 -13.8656 -12.3912 -12.3254
   -11.2761 -11.1594  -8.9555  -8.8401  -8.1720  -8.0302  -6.3789  -6.3396
    -5.3343  -5.2666  -5.0100  -4.9822  -4.3770  -4.2034  -4.0507  -3.9302
    -3.3303  -3.2672  -2.6829  -2.5917  -2.4540  -2.3363  -2.1922  -2.1189
    -1.0942  -0.9870  -0.8705  -0.8532  -0.8355  -0.7065  -0.1806   0.1789
     0.7111   0.7675

     occupation numbers 
     1.0000   1.0000   1.0000   1.0000   1.0000   1.0000   1.0000   1.0000
     1.0000   1.0000   1.0000   1.0000   1.0000   1.0000   1.0000   1.0000
     1.0000   1.0000   1.0000   1.0000   1.0000   1.0000   1.0000   1.0000
     1.0000   1.0000   1.0000   1.0000   1.0000   1.0000   1.0000   1.0000
     1.0000   1.0000   1.0000   1.0000   1.0000   1.0000   1.0000   1.0000
     1.0000   1.0000

          k = 0.0169 0.0643 0.1078 ( 36558 PWs)   bands (ev):

   -16.3005 -16.0001 -15.3712 -15.1630 -13.9520 -13.8374 -12.4019 -12.2787
   -11.2755 -11.1900  -9.0007  -8.8592  -8.2282  -8.0566  -6.3927  -6.3072
    -5.3637  -5.2779  -4.9426  -4.8869  -4.2669  -4.1877  -4.0855  -4.0506
    -3.9297  -3.8988  -2.7649  -2.6861  -2.6074  -2.4816  -2.4098  -2.3502
    -1.2860  -1.1630  -1.0205  -0.9760  -0.9269  -0.7622  -0.0390  -0.0103
     0.6589   0.8509

     occupation numbers 
     1.0000   1.0000   1.0000   1.0000   1.0000   1.0000   1.0000   1.0000
     1.0000   1.0000   1.0000   1.0000   1.0000   1.0000   1.0000   1.0000
     1.0000   1.0000   1.0000   1.0000   1.0000   1.0000   1.0000   1.0000
     1.0000   1.0000   1.0000   1.0000   1.0000   1.0000   1.0000   1.0000
     1.0000   1.0000   1.0000   1.0000   1.0000   1.0000   1.0000   1.0000
     1.0000   1.0000

          k = 0.0169 0.0643-0.0936 ( 36547 PWs)   bands (ev):

   -16.3030 -15.9958 -15.3744 -15.1618 -13.9569 -13.8299 -12.4103 -12.2726
   -11.2719 -11.1997  -8.9632  -8.8850  -8.2057  -8.0885  -6.3796  -6.2981
    -5.3532  -5.2813  -4.9884  -4.8282  -4.3049  -4.2491  -4.1379  -4.0102
    -3.9321  -3.8434  -2.7412  -2.7043  -2.6617  -2.5467  -2.3553  -2.2481
    -1.2174  -1.1181  -1.0805  -1.0243  -0.9261  -0.7843  -0.0873   0.0120
     0.6560   0.8581

     occupation numbers 
     1.0000   1.0000   1.0000   1.0000   1.0000   1.0000   1.0000   1.0000
     1.0000   1.0000   1.0000   1.0000   1.0000   1.0000   1.0000   1.0000
     1.0000   1.0000   1.0000   1.0000   1.0000   1.0000   1.0000   1.0000
     1.0000   1.0000   1.0000   1.0000   1.0000   1.0000   1.0000   1.0000
     1.0000   1.0000   1.0000   1.0000   1.0000   1.0000   1.0000   1.0000
     1.0000   1.0000

          k = 0.0169 0.0643-0.0265 ( 36489 PWs)   bands (ev):

   -16.3572 -16.0818 -15.4258 -15.2314 -14.0048 -13.8586 -12.3992 -12.3184
   -11.2750 -11.1687  -8.9196  -8.8613  -8.1549  -8.0507  -6.4037  -6.3188
    -5.3303  -5.2536  -5.0682  -4.8809  -4.3798  -4.2238  -4.0845  -3.9988
    -3.3165  -3.2942  -2.6335  -2.4967  -2.4255  -2.3906  -2.2084  -2.1322
    -1.0402  -0.9663  -0.9424  -0.8576  -0.8210  -0.7104  -0.1774   0.1364
     0.7136   0.7670

     occupation numbers 
     1.0000   1.0000   1.0000   1.0000   1.0000   1.0000   1.0000   1.0000
     1.0000   1.0000   1.0000   1.0000   1.0000   1.0000   1.0000   1.0000
     1.0000   1.0000   1.0000   1.0000   1.0000   1.0000   1.0000   1.0000
     1.0000   1.0000   1.0000   1.0000   1.0000   1.0000   1.0000   1.0000
     1.0000   1.0000   1.0000   1.0000   1.0000   1.0000   1.0000   1.0000
     1.0000   1.0000

          k =-0.0169 0.0214-0.0407 ( 36525 PWs)   bands (ev):

   -16.3784 -16.1040 -15.4222 -15.2252 -13.9794 -13.8232 -12.3741 -12.2750
   -11.2680 -11.1656  -8.9796  -8.9530  -8.2191  -8.1364  -6.3682  -6.2578
    -5.3516  -5.3053  -5.0854  -4.8338  -4.3113  -4.0993  -3.9952  -3.8552
    -3.2554  -3.2245  -2.7511  -2.5180  -2.4190  -2.3087  -2.2404  -2.1382
    -1.2488  -1.1662  -1.0192  -0.9108  -0.8763  -0.6876  -0.1673   0.1023
     0.6262   0.7655

     occupation numbers 
     1.0000   1.0000   1.0000   1.0000   1.0000   1.0000   1.0000   1.0000
     1.0000   1.0000   1.0000   1.0000   1.0000   1.0000   1.0000   1.0000
     1.0000   1.0000   1.0000   1.0000   1.0000   1.0000   1.0000   1.0000
     1.0000   1.0000   1.0000   1.0000   1.0000   1.0000   1.0000   1.0000
     1.0000   1.0000   1.0000   1.0000   1.0000   1.0000   1.0000   1.0000
     1.0000   1.0000

          k =-0.0169 0.0214-0.1078 ( 36561 PWs)   bands (ev):

   -16.3177 -16.0088 -15.3742 -15.1597 -13.9471 -13.8082 -12.4074 -12.2454
   -11.2640 -11.1752  -8.9558  -8.9206  -8.2139  -8.1127  -6.3700  -6.2810
    -5.3539  -5.3135  -5.0974  -4.9424  -4.3781  -4.1532  -4.1239  -3.9725
    -3.8241  -3.7220  -2.8467  -2.7594  -2.5973  -2.4455  -2.3711  -2.2640
    -1.3294  -1.1691  -1.1290  -1.0155  -0.9104  -0.6715  -0.2225  -0.1148
     0.6458   0.8467

     occupation numbers 
     1.0000   1.0000   1.0000   1.0000   1.0000   1.0000   1.0000   1.0000
     1.0000   1.0000   1.0000   1.0000   1.0000   1.0000   1.0000   1.0000
     1.0000   1.0000   1.0000   1.0000   1.0000   1.0000   1.0000   1.0000
     1.0000   1.0000   1.0000   1.0000   1.0000   1.0000   1.0000   1.0000
     1.0000   1.0000   1.0000   1.0000   1.0000   1.0000   1.0000   1.0000
     1.0000   1.0000

          k =-0.0169 0.0214 0.0936 ( 36547 PWs)   bands (ev):

   -16.3154 -16.0126 -15.3725 -15.1598 -13.9398 -13.8183 -12.3990 -12.2517
   -11.2625 -11.1702  -8.9893  -8.8975  -8.2382  -8.0819  -6.3789  -6.3024
    -5.3623  -5.3072  -5.1004  -4.8993  -4.3057  -4.1943  -4.1256  -4.0072
    -3.7878  -3.7504  -2.7664  -2.7027  -2.6774  -2.4739  -2.4110  -2.3036
    -1.2933  -1.1912  -1.1378  -1.0503  -0.8735  -0.6555  -0.1654  -0.1408
     0.6501   0.8431

     occupation numbers 
     1.0000   1.0000   1.0000   1.0000   1.0000   1.0000   1.0000   1.0000
     1.0000   1.0000   1.0000   1.0000   1.0000   1.0000   1.0000   1.0000
     1.0000   1.0000   1.0000   1.0000   1.0000   1.0000   1.0000   1.0000
     1.0000   1.0000   1.0000   1.0000   1.0000   1.0000   1.0000   1.0000
     1.0000   1.0000   1.0000   1.0000   1.0000   1.0000   1.0000   1.0000
     1.0000   1.0000

          k =-0.0169 0.0214 0.0265 ( 36551 PWs)   bands (ev):

   -16.3765 -16.1067 -15.4218 -15.2248 -13.9733 -13.8317 -12.3656 -12.2818
   -11.2713 -11.1549  -9.0150  -8.9323  -8.2644  -8.0749  -6.4343  -6.2191
    -5.3689  -5.2913  -5.1592  -4.7211  -4.2981  -4.1092  -3.9201  -3.8773
    -3.2731  -3.2056  -2.8247  -2.5664  -2.3570  -2.3212  -2.2888  -2.1331
    -1.2164  -1.1642  -1.0376  -0.9159  -0.8976  -0.6475  -0.1759   0.1471
     0.6282   0.7602

     occupation numbers 
     1.0000   1.0000   1.0000   1.0000   1.0000   1.0000   1.0000   1.0000
     1.0000   1.0000   1.0000   1.0000   1.0000   1.0000   1.0000   1.0000
     1.0000   1.0000   1.0000   1.0000   1.0000   1.0000   1.0000   1.0000
     1.0000   1.0000   1.0000   1.0000   1.0000   1.0000   1.0000   1.0000
     1.0000   1.0000   1.0000   1.0000   1.0000   1.0000   1.0000   1.0000
     1.0000   1.0000

          k =-0.0169 0.0643-0.0407 ( 36518 PWs)   bands (ev):

   -16.3571 -16.0820 -15.4250 -15.2323 -14.0038 -13.8591 -12.3994 -12.3203
   -11.2719 -11.1685  -8.9196  -8.8665  -8.1484  -8.0607  -6.3762  -6.3065
    -5.3286  -5.2538  -5.1181  -4.9236  -4.4495  -4.1767  -4.0254  -3.9257
    -3.3174  -3.2970  -2.7234  -2.5327  -2.4093  -2.3481  -2.2172  -2.1010
    -1.0412  -0.9669  -0.9368  -0.8451  -0.8255  -0.7257  -0.1782   0.1319
     0.7099   0.7754

     occupation numbers 
     1.0000   1.0000   1.0000   1.0000   1.0000   1.0000   1.0000   1.0000
     1.0000   1.0000   1.0000   1.0000   1.0000   1.0000   1.0000   1.0000
     1.0000   1.0000   1.0000   1.0000   1.0000   1.0000   1.0000   1.0000
     1.0000   1.0000   1.0000   1.0000   1.0000   1.0000   1.0000   1.0000
     1.0000   1.0000   1.0000   1.0000   1.0000   1.0000   1.0000   1.0000
     1.0000   1.0000

          k =-0.0169 0.0643-0.1078 ( 36558 PWs)   bands (ev):

   -16.3030 -15.9958 -15.3741 -15.1620 -13.9569 -13.8298 -12.4104 -12.2725
   -11.2727 -11.1986  -8.9644  -8.8853  -8.2049  -8.0883  -6.3835  -6.2887
    -5.3481  -5.2791  -4.9982  -4.8527  -4.3082  -4.2233  -4.1054  -4.0172
    -3.9516  -3.8624  -2.7570  -2.6773  -2.5917  -2.5172  -2.4354  -2.2674
    -1.2648  -1.1496  -1.0350  -0.9835  -0.9343  -0.7775  -0.0873   0.0116
     0.6532   0.8557

     occupation numbers 
     1.0000   1.0000   1.0000   1.0000   1.0000   1.0000   1.0000   1.0000
     1.0000   1.0000   1.0000   1.0000   1.0000   1.0000   1.0000   1.0000
     1.0000   1.0000   1.0000   1.0000   1.0000   1.0000   1.0000   1.0000
     1.0000   1.0000   1.0000   1.0000   1.0000   1.0000   1.0000   1.0000
     1.0000   1.0000   1.0000   1.0000   1.0000   1.0000   1.0000   1.0000
     1.0000   1.0000

          k =-0.0169 0.0643 0.0936 ( 36547 PWs)   bands (ev):

   -16.3006 -16.0000 -15.3716 -15.1627 -13.9515 -13.8380 -12.4020 -12.2785
   -11.2744 -11.1913  -9.0005  -8.8583  -8.2281  -8.0574  -6.3864  -6.3168
    -5.3658  -5.2850  -4.9513  -4.8455  -4.2611  -4.2447  -4.1221  -4.0100
    -3.9328  -3.8451  -2.7852  -2.7289  -2.6416  -2.5426  -2.3242  -2.2945
    -1.2313  -1.1648  -1.0568  -1.0114  -0.9140  -0.7696  -0.0371  -0.0115
     0.6616   0.8542

     occupation numbers 
     1.0000   1.0000   1.0000   1.0000   1.0000   1.0000   1.0000   1.0000
     1.0000   1.0000   1.0000   1.0000   1.0000   1.0000   1.0000   1.0000
     1.0000   1.0000   1.0000   1.0000   1.0000   1.0000   1.0000   1.0000
     1.0000   1.0000   1.0000   1.0000   1.0000   1.0000   1.0000   1.0000
     1.0000   1.0000   1.0000   1.0000   1.0000   1.0000   1.0000   1.0000
     1.0000   1.0000

          k =-0.0169 0.0643 0.0265 ( 36489 PWs)   bands (ev):

   -16.3549 -16.0855 -15.4233 -15.2326 -13.9992 -13.8666 -12.3902 -12.3253
   -11.2762 -11.1611  -8.9530  -8.8416  -8.1754  -8.0199  -6.4256  -6.3205
    -5.3327  -5.2680  -5.0389  -4.8874  -4.3766  -4.1504  -4.0898  -4.0146
    -3.3387  -3.2707  -2.6865  -2.4852  -2.4402  -2.3696  -2.2278  -2.1338
    -1.0711  -1.0164  -0.9092  -0.8474  -0.8095  -0.6859  -0.1816   0.1791
     0.7047   0.7722

     occupation numbers 
     1.0000   1.0000   1.0000   1.0000   1.0000   1.0000   1.0000   1.0000
     1.0000   1.0000   1.0000   1.0000   1.0000   1.0000   1.0000   1.0000
     1.0000   1.0000   1.0000   1.0000   1.0000   1.0000   1.0000   1.0000
     1.0000   1.0000   1.0000   1.0000   1.0000   1.0000   1.0000   1.0000
     1.0000   1.0000   1.0000   1.0000   1.0000   1.0000   1.0000   1.0000
     1.0000   1.0000

     highest occupied level (ev):     0.8581

!    total energy              =    -548.03503027 Ry
     Harris-Foulkes estimate   =    -548.03503030 Ry
     estimated scf accuracy    <       0.00000004 Ry

     total all-electron energy =     -4615.878518 Ry

     The total energy is the sum of the following terms:

     one-electron contribution =    -152.75498141 Ry
     hartree contribution      =     107.74196116 Ry
     xc contribution           =    -104.26740242 Ry
     ewald contribution        =    -142.96951869 Ry
     one-center paw contrib.   =    -255.78508890 Ry
      -> PAW hartree energy AE =      19.84297102 Ry
      -> PAW hartree energy PS =     -19.73737604 Ry
      -> PAW xc energy AE      =     -55.78213651 Ry
      -> PAW xc energy PS      =      10.23178354 Ry
      -> total E_H with PAW    =     107.84755614 Ry
      -> total E_XC with PAW   =    -149.81775539 Ry

     convergence has been achieved in  11 iterations
 writing file ./scratch/scf-348.save/charge-density
 writing file ./scratch/scf-348.save/charge-density
 writing file ./scratch/scf-348.save/charge-density
 writing file ./scratch/scf-348.save/charge-density
 writing file ./scratch/scf-348.save/charge-density
 writing file ./scratch/scf-348.save/charge-density
 writing file ./scratch/scf-348.save/charge-density
 writing file ./scratch/scf-348.save/charge-density
 writing file ./scratch/scf-348.save/charge-density
 writing file ./scratch/scf-348.save/charge-density
 writing file ./scratch/scf-348.save/charge-density
 writing file ./scratch/scf-348.save/charge-density
 writing file ./scratch/scf-348.save/charge-density
 writing file ./scratch/scf-348.save/charge-density
 writing file ./scratch/scf-348.save/charge-density
 writing file ./scratch/scf-348.save/charge-density
 writing file ./scratch/scf-348.save/charge-density
 writing file ./scratch/scf-348.save/charge-density
 writing file ./scratch/scf-348.save/charge-density
 writing file ./scratch/scf-348.save/charge-density
 writing file ./scratch/scf-348.save/charge-density
 writing file ./scratch/scf-348.save/charge-density
 writing file ./scratch/scf-348.save/charge-density
 writing file ./scratch/scf-348.save/charge-density
 writing file ./scratch/scf-348.save/charge-density
 writing file ./scratch/scf-348.save/charge-density
 writing file ./scratch/scf-348.save/charge-density
 writing file ./scratch/scf-348.save/charge-density
 writing file ./scratch/scf-348.save/charge-density
 writing file ./scratch/scf-348.save/charge-density
 writing file ./scratch/scf-348.save/charge-density
 writing file ./scratch/scf-348.save/charge-density

     Forces acting on atoms (cartesian axes, Ry/au):

     atom    1 type  2   force =     0.07715077   -0.07136478   -0.01229924
     atom    2 type  1   force =    -0.05125231    0.05537523    0.01055224
     atom    3 type  1   force =    -0.03129768    0.00208860    0.01996342
     atom    4 type  3   force =     0.00063388    0.00026564   -0.00279758
     atom    5 type  1   force =    -0.01037195    0.03102499   -0.01151399
     atom    6 type  3   force =    -0.00070034   -0.00272275    0.00769380
     atom    7 type  3   force =    -0.00014072    0.00316344    0.00301421
     atom    8 type  1   force =     0.01336476   -0.00525134   -0.00494877
     atom    9 type  3   force =     0.00298095   -0.00019580   -0.00469847
     atom   10 type  1   force =    -0.01307848    0.01365710    0.00886271
     atom   11 type  1   force =     0.01225152   -0.01162027   -0.02455035
     atom   12 type  2   force =    -0.00716744   -0.00316026    0.01187601
     atom   13 type  3   force =    -0.00433724   -0.00638520    0.00695642
     atom   14 type  1   force =     0.00609891    0.01056277   -0.02694233
     atom   15 type  3   force =     0.00206944    0.00276513   -0.00416808
     atom   16 type  1   force =     0.00021655   -0.02005124    0.02856324
     atom   17 type  1   force =    -0.03531550    0.01703943   -0.01795749
     atom   18 type  2   force =     0.05349181   -0.01692026    0.00403058
     atom   19 type  3   force =    -0.00110050   -0.00224174   -0.00337207
     atom   20 type  1   force =    -0.00055556    0.00958144    0.00004928
     atom   21 type  3   force =    -0.00192488   -0.00188499    0.00348667
     atom   22 type  1   force =    -0.00348333   -0.01894003   -0.00188943
     atom   23 type  1   force =     0.00575821    0.00167991    0.03669867
     atom   24 type  2   force =    -0.01329088    0.01353497   -0.02660945
     The non-local contrib.  to forces
     atom    1 type  2   force =    -0.29554747    0.23663922   -0.02817365
     atom    2 type  1   force =     0.34017546   -0.27350617    0.01096834
     atom    3 type  1   force =    -0.07563829   -0.02282061    0.00961985
     atom    4 type  3   force =    -0.06905286   -0.02068521   -0.03139419
     atom    5 type  1   force =    -0.07633630   -0.01299622   -0.04667936
     atom    6 type  3   force =    -0.00850235   -0.07012195   -0.03418973
     atom    7 type  3   force =     0.00058356   -0.06002213    0.05073036
     atom    8 type  1   force =     0.06374125   -0.05417353    0.02881210
     atom    9 type  3   force =     0.06382931   -0.01491185    0.04319772
     atom   10 type  1   force =     0.01594079   -0.00000973    0.07322189
     atom   11 type  1   force =    -0.36785064   -0.33167141   -0.06170273
     atom   12 type  2   force =     0.29563205    0.25608192    0.05225971
     atom   13 type  3   force =     0.00558116    0.06433884    0.04483299
     atom   14 type  1   force =     0.05900778    0.06469528    0.00115146
     atom   15 type  3   force =     0.06979960    0.02004620    0.03211450
     atom   16 type  1   force =     0.04562171    0.00494799    0.08888761
     atom   17 type  1   force =    -0.41952608    0.33058012    0.03204601
     atom   18 type  2   force =     0.33614171   -0.20387843   -0.01940855
     atom   19 type  3   force =    -0.00095445    0.05987063   -0.05069553
     atom   20 type  1   force =    -0.05172366    0.04645685   -0.02880180
     atom   21 type  3   force =    -0.06354953    0.01419506   -0.04497379
     atom   22 type  1   force =    -0.03953895   -0.00375715   -0.06101496
     atom   23 type  1   force =     0.38631430    0.30186223    0.06584786
     atom   24 type  2   force =    -0.33278302   -0.21048338   -0.07438930
     The ionic contribution  to forces
     atom    1 type  2   force =     7.39558866   -4.60071974    1.01179773
     atom    2 type  1   force =     2.27433709   -1.35303901    0.16361646
     atom    3 type  1   force =     5.13573315    2.25216247    2.01206417
     atom    4 type  3   force =     2.28772999    0.75145228    1.05935566
     atom    5 type  1   force =     1.59852983    3.97764408    2.75993643
     atom    6 type  3   force =     0.52337382    1.97287159    1.19640337
     atom    7 type  3   force =    -0.32601430    1.88189448   -1.50817483
     atom    8 type  1   force =    -1.41682224    4.38447942   -2.72593212
     atom    9 type  3   force =    -2.08405592    0.66035415   -1.37741318
     atom   10 type  1   force =    -4.42077211    1.64050389   -3.14789753
     atom   11 type  1   force =    -2.91810785   -1.50353936   -0.04093529
     atom   12 type  2   force =    -6.01646436   -4.54585384   -1.17788730
     atom   13 type  3   force =    -0.29336989   -1.91671627   -1.29710004
     atom   14 type  1   force =    -1.11521528   -4.28768434   -1.77543552
     atom   15 type  3   force =    -2.03449266   -0.69287265   -0.98924857
     atom   16 type  1   force =    -3.87847684   -1.49376236   -2.54626017
     atom   17 type  1   force =    -2.19006298    2.06868498    0.49618668
     atom   18 type  2   force =    -4.88771284    3.57227753   -0.16474227
     atom   19 type  3   force =     0.13357336   -1.90588478    1.43518039
     atom   20 type  1   force =     0.51024231   -4.25479251    2.48595867
     atom   21 type  3   force =     1.88947654   -0.64413987    1.37833045
     atom   22 type  1   force =     3.46708839   -1.71583200    2.71386377
     atom   23 type  1   force =     1.86856392    1.84693674   -0.47772314
     atom   24 type  2   force =     4.49733022    3.90557512    0.51605618
     The local contribution  to forces
     atom    1 type  2   force =    -7.03145898    4.29949479   -0.99735130
     atom    2 type  1   force =    -2.65811644    1.67553105   -0.16426014
     atom    3 type  1   force =    -5.09047306   -2.22642180   -2.00125843
     atom    4 type  3   force =    -2.21806820   -0.73050296   -1.03076890
     atom    5 type  1   force =    -1.53353752   -3.93237778   -2.72394948
     atom    6 type  3   force =    -0.51556766   -1.90548791   -1.15452388
     atom    7 type  3   force =     0.32528855   -1.81870207    1.46045675
     atom    8 type  1   force =     1.36724009   -4.33432449    2.69145230
     atom    9 type  3   force =     2.02319145   -0.64563007    1.32950801
     atom   10 type  1   force =     4.39061819   -1.62632626    3.08315268
     atom   11 type  1   force =     3.28835116    1.81559695    0.07756063
     atom   12 type  2   force =     5.72516562    4.29685852    1.13992211
     atom   13 type  3   force =     0.28346884    1.84598556    1.25923134
     atom   14 type  1   force =     1.06270847    4.23246369    1.74692725
     atom   15 type  3   force =     1.96675033    0.67558788    0.95296181
     atom   16 type  1   force =     3.83226565    1.46846217    2.48565170
     atom   17 type  1   force =     2.56302561   -2.37318526   -0.54438279
     atom   18 type  2   force =     4.62115965   -3.39457242    0.18751876
     atom   19 type  3   force =    -0.13371067    1.84376957   -1.38785408
     atom   20 type  1   force =    -0.45973905    4.21665087   -2.45613057
     atom   21 type  3   force =    -1.82785196    0.62806142   -1.32987026
     atom   22 type  1   force =    -3.43019914    1.70004653   -2.65432378
     atom   23 type  1   force =    -2.23894047   -2.13934949    0.44896361
     atom   24 type  2   force =    -4.19164790   -3.68982050   -0.47210536
     The core correction contribution to forces
     atom    1 type  2   force =     0.00852007   -0.00674465    0.00143065
     atom    2 type  1   force =    -0.00762017    0.00645785    0.00026262
     atom    3 type  1   force =    -0.00091715   -0.00077644   -0.00044478
     atom    4 type  3   force =     0.00000000    0.00000000    0.00000000
     atom    5 type  1   force =     0.00102555   -0.00126625   -0.00081798
     atom    6 type  3   force =     0.00000000    0.00000000    0.00000000
     atom    7 type  3   force =     0.00000000    0.00000000    0.00000000
     atom    8 type  1   force =    -0.00078834   -0.00117978    0.00070797
     atom    9 type  3   force =     0.00000000    0.00000000    0.00000000
     atom   10 type  1   force =     0.00107598   -0.00044383    0.00032330
     atom   11 type  1   force =     0.00984437    0.00798441    0.00051846
     atom   12 type  2   force =    -0.01170948   -0.01032430   -0.00250173
     atom   13 type  3   force =     0.00000000    0.00000000    0.00000000
     atom   14 type  1   force =    -0.00029697    0.00104136    0.00044030
     atom   15 type  3   force =     0.00000000    0.00000000    0.00000000
     atom   16 type  1   force =     0.00087816    0.00034292    0.00034410
     atom   17 type  1   force =     0.01135373   -0.00894468   -0.00172120
     atom   18 type  2   force =    -0.01589983    0.00924450    0.00071471
     atom   19 type  3   force =     0.00000000    0.00000000    0.00000000
     atom   20 type  1   force =     0.00073911    0.00122479   -0.00092413
     atom   21 type  3   force =     0.00000000    0.00000000    0.00000000
     atom   22 type  1   force =    -0.00079582    0.00059428   -0.00039110
     atom   23 type  1   force =    -0.01014339   -0.00773774   -0.00038112
     atom   24 type  2   force =     0.01378438    0.00828256    0.00382278
     The Hubbard contrib.    to forces
     atom    1 type  2   force =     0.00000000    0.00000000    0.00000000
     atom    2 type  1   force =     0.00000000    0.00000000    0.00000000
     atom    3 type  1   force =     0.00000000    0.00000000    0.00000000
     atom    4 type  3   force =     0.00000000    0.00000000    0.00000000
     atom    5 type  1   force =     0.00000000    0.00000000    0.00000000
     atom    6 type  3   force =     0.00000000    0.00000000    0.00000000
     atom    7 type  3   force =     0.00000000    0.00000000    0.00000000
     atom    8 type  1   force =     0.00000000    0.00000000    0.00000000
     atom    9 type  3   force =     0.00000000    0.00000000    0.00000000
     atom   10 type  1   force =     0.00000000    0.00000000    0.00000000
     atom   11 type  1   force =     0.00000000    0.00000000    0.00000000
     atom   12 type  2   force =     0.00000000    0.00000000    0.00000000
     atom   13 type  3   force =     0.00000000    0.00000000    0.00000000
     atom   14 type  1   force =     0.00000000    0.00000000    0.00000000
     atom   15 type  3   force =     0.00000000    0.00000000    0.00000000
     atom   16 type  1   force =     0.00000000    0.00000000    0.00000000
     atom   17 type  1   force =     0.00000000    0.00000000    0.00000000
     atom   18 type  2   force =     0.00000000    0.00000000    0.00000000
     atom   19 type  3   force =     0.00000000    0.00000000    0.00000000
     atom   20 type  1   force =     0.00000000    0.00000000    0.00000000
     atom   21 type  3   force =     0.00000000    0.00000000    0.00000000
     atom   22 type  1   force =     0.00000000    0.00000000    0.00000000
     atom   23 type  1   force =     0.00000000    0.00000000    0.00000000
     atom   24 type  2   force =     0.00000000    0.00000000    0.00000000
     The SCF correction term to forces
     atom    1 type  2   force =     0.00004978   -0.00003334   -0.00000215
     atom    2 type  1   force =    -0.00002697   -0.00006742   -0.00003452
     atom    3 type  1   force =    -0.00000105   -0.00005396   -0.00001687
     atom    4 type  3   force =     0.00002624    0.00000259    0.00001038
     atom    5 type  1   force =    -0.00005223    0.00002222   -0.00000308
     atom    6 type  3   force =    -0.00000287    0.00001658    0.00000455
     atom    7 type  3   force =     0.00000275   -0.00000578    0.00000245
     atom    8 type  1   force =    -0.00000472   -0.00005190    0.00001149
     atom    9 type  3   force =     0.00001739   -0.00000698    0.00000950
     atom   10 type  1   force =     0.00005995   -0.00006591    0.00006289
     atom   11 type  1   force =     0.00001577    0.00001021    0.00000911
     atom   12 type  2   force =     0.00021001    0.00007851    0.00008373
     atom   13 type  3   force =    -0.00001608    0.00000772   -0.00000735
     atom   14 type  1   force =    -0.00010381    0.00004784   -0.00002529
     atom   15 type  3   force =     0.00001346    0.00000476    0.00000470
     atom   16 type  1   force =    -0.00007084   -0.00004090   -0.00005948
     atom   17 type  1   force =    -0.00010450   -0.00009468   -0.00008567
     atom   18 type  2   force =    -0.00019560    0.00000963   -0.00005156
     atom   19 type  3   force =    -0.00000745    0.00000390   -0.00000233
     atom   20 type  1   force =    -0.00007299    0.00004250   -0.00005236
     atom   21 type  3   force =     0.00000136   -0.00000055    0.00000079
     atom   22 type  1   force =    -0.00003653    0.00000936   -0.00002284
     atom   23 type  1   force =    -0.00003486   -0.00003078   -0.00000802
     atom   24 type  2   force =     0.00002673   -0.00001777    0.00000678

     Total force =     0.177980     Total SCF correction =     0.000446

     Writing output data file scf-348.save
 writing file ./scratch/scf-348.save/charge-density
 writing file ./scratch/scf-348.save/charge-density
 writing file ./scratch/scf-348.save/charge-density
 writing file ./scratch/scf-348.save/charge-density
 writing file ./scratch/scf-348.save/charge-density
 writing file ./scratch/scf-348.save/charge-density
 writing file ./scratch/scf-348.save/charge-density
 writing file ./scratch/scf-348.save/charge-density
 writing file ./scratch/scf-348.save/charge-density
 writing file ./scratch/scf-348.save/charge-density
 writing file ./scratch/scf-348.save/charge-density
 writing file ./scratch/scf-348.save/charge-density
 writing file ./scratch/scf-348.save/charge-density
 writing file ./scratch/scf-348.save/charge-density
 writing file ./scratch/scf-348.save/charge-density
 writing file ./scratch/scf-348.save/charge-density
 writing file ./scratch/scf-348.save/charge-density
 writing file ./scratch/scf-348.save/charge-density
 writing file ./scratch/scf-348.save/charge-density
 writing file ./scratch/scf-348.save/charge-density
 writing file ./scratch/scf-348.save/charge-density
 writing file ./scratch/scf-348.save/charge-density
 writing file ./scratch/scf-348.save/charge-density
 writing file ./scratch/scf-348.save/charge-density
 writing file ./scratch/scf-348.save/charge-density
 writing file ./scratch/scf-348.save/charge-density
 writing file ./scratch/scf-348.save/charge-density
 writing file ./scratch/scf-348.save/charge-density
 writing file ./scratch/scf-348.save/charge-density
 writing file ./scratch/scf-348.save/charge-density
 writing file ./scratch/scf-348.save/charge-density
 writing file ./scratch/scf-348.save/charge-density
 
     init_run     :      4.35s CPU      4.61s WALL (       1 calls)
     electrons    :     50.51s CPU     53.28s WALL (       1 calls)
     forces       :      2.35s CPU      2.47s WALL (       1 calls)

     Called by init_run:
     wfcinit      :      1.61s CPU      1.63s WALL (       1 calls)
     wfcinit:atom :      0.02s CPU      0.02s WALL (      16 calls)
     wfcinit:wfcr :      1.51s CPU      1.51s WALL (      16 calls)
     potinit      :      0.88s CPU      0.91s WALL (       1 calls)

     Called by electrons:
     c_bands      :     39.42s CPU     39.67s WALL (      11 calls)
     sum_band     :      6.98s CPU      8.16s WALL (      11 calls)
     v_of_rho     :      0.90s CPU      0.96s WALL (      12 calls)
     v_h          :      0.06s CPU      0.06s WALL (      12 calls)
     v_xc         :      0.92s CPU      0.98s WALL (      13 calls)
     newd         :      1.56s CPU      2.86s WALL (      12 calls)
     PAW_pot      :      1.62s CPU      1.69s WALL (      12 calls)
     mix_rho      :      0.14s CPU      0.14s WALL (      11 calls)

     Called by c_bands:
     init_us_2    :      0.90s CPU      0.86s WALL (     384 calls)
     cegterg      :     37.12s CPU     37.29s WALL (     176 calls)

     Called by sum_band:
     sum_band:bec :      0.02s CPU      0.02s WALL (     176 calls)
     addusdens    :      1.53s CPU      2.68s WALL (      11 calls)

     Called by *egterg:
     h_psi        :     27.90s CPU     27.92s WALL (     862 calls)
     s_psi        :      2.02s CPU      2.04s WALL (     862 calls)
     g_psi        :      0.13s CPU      0.16s WALL (     670 calls)
     cdiaghg      :      3.40s CPU      3.42s WALL (     846 calls)
     cegterg:over :      1.62s CPU      1.65s WALL (     670 calls)
     cegterg:upda :      1.27s CPU      1.27s WALL (     670 calls)
     cegterg:last :      0.39s CPU      0.44s WALL (     192 calls)

     Called by h_psi:
     h_psi:pot    :     27.59s CPU     27.64s WALL (     862 calls)
     h_psi:calbec :      2.27s CPU      2.27s WALL (     862 calls)
     vloc_psi     :     23.29s CPU     23.37s WALL (     862 calls)
     add_vuspsi   :      2.02s CPU      1.99s WALL (     862 calls)

     General routines
     calbec       :      3.02s CPU      3.02s WALL (    1102 calls)
     fft          :      0.77s CPU      0.78s WALL (     199 calls)
     ffts         :      0.04s CPU      0.03s WALL (      23 calls)
     fftw         :     20.94s CPU     21.03s WALL (   55678 calls)
     interpolate  :      0.14s CPU      0.15s WALL (      23 calls)
     davcio       :      0.00s CPU      0.01s WALL (      16 calls)
 
     Parallel routines
     fft_scatter  :      6.91s CPU      7.12s WALL (   55900 calls)

     PAW routines
     PAW_pot      :      1.62s CPU      1.69s WALL (      12 calls)
 
     PWSCF        :  0m57.86s CPU     1m 1.49s WALL

 
   This run was terminated on:  12:34:13  20May2017            

=------------------------------------------------------------------------------=
   JOB DONE.
=------------------------------------------------------------------------------=
