
     Program PWSCF v.6.1 starts on 22May2017 at 13:10:35 

     This program is part of the open-source Quantum ESPRESSO suite
     for quantum simulation of materials; please cite
         "P. Giannozzi et al., J. Phys.:Condens. Matter 21 395502 (2009);
          URL http://www.quantum-espresso.org", 
     in publications or presentations arising from this work. More details at
     http://www.quantum-espresso.org/quote

     Parallel version (MPI & OpenMP), running on      32 processor cores
     Number of MPI processes:                32
     Threads/MPI process:                     1
     R & G space division:  proc/nbgrp/npool/nimage =      32
     Waiting for input...
     Reading input from standard input
Warning: card &IONS ignored
Warning: card     ION_TEMPERATURE   = 'INITIAL' ignored
Warning: card     TEMPW             = 586.D0 ignored
Warning: card     TOLP              = 100.D0 ignored
Warning: card     DELTA_T           = 1.D0 ignored
Warning: card     NRAISE            = 1 ignored
Warning: card / ignored
Warning: card &CELL ignored
Warning: card     CELL_DYNAMICS     = 'BFGS' ignored
Warning: card / ignored

     Current dimensions of program PWSCF are:
     Max number of different atomic species (ntypx) = 10
     Max number of k-points (npk) =  40000
     Max angular momentum in pseudopotentials (lmaxx) =  3
               file C.pbe-n-kjpaw_psl.1.0.0.UPF: wavefunction(s)  2S 2P renormalized
               file Cl.pbe-n-kjpaw_psl.1.0.0.UPF: wavefunction(s)  3S 3P renormalized
               file H.pbe-kjpaw_psl.1.0.0.UPF: wavefunction(s)  1S renormalized

     Subspace diagonalization in iterative solution of the eigenvalue problem:
     a serial algorithm will be used

 
     Parallelization info
     --------------------
     sticks:   dense  smooth     PW     G-vecs:    dense   smooth      PW
     Min         764     305     83                36108     9133    1292
     Max         765     306     84                36110     9135    1293
     Sum       24467    9791   2657              1155489   292295   41363
 


     bravais-lattice index     =            0
     lattice parameter (alat)  =       1.8897  a.u.
     unit-cell volume          =    2163.5316 (a.u.)^3
     number of atoms/cell      =           24
     number of atomic types    =            3
     number of electrons       =        84.00
     number of Kohn-Sham states=           42
     kinetic-energy cutoff     =     100.0000  Ry
     charge density cutoff     =    1000.0000  Ry
     convergence threshold     =      1.0E-07
     mixing beta               =       0.7000
     number of iterations used =            8  plain     mixing
     Exchange-correlation      =  SLA  PW   PBX  PBC ( 1  4  3  4 0 0)

     celldm(1)=   1.889726  celldm(2)=   0.000000  celldm(3)=   0.000000
     celldm(4)=   0.000000  celldm(5)=   0.000000  celldm(6)=   0.000000

     crystal axes: (cart. coord. in units of alat)
               a(1) = (  14.762000   0.000000   0.000000 )  
               a(2) = (   0.000000   5.832000   0.000000 )  
               a(3) = (  -1.563876   0.000000   3.723951 )  

     reciprocal axes: (cart. coord. in units 2 pi/alat)
               b(1) = (  0.067741  0.000000  0.028448 )  
               b(2) = (  0.000000  0.171468  0.000000 )  
               b(3) = (  0.000000  0.000000  0.268532 )  


     PseudoPot. # 1 for  C read from file:
     /global/cscratch1/sd/almno10/.data/PSEUDOPOTENTIALS/C.pbe-n-kjpaw_psl.1.0.0.UPF
     MD5 check sum: 2ba8448e293caca687844dde9a1b88a8
     Pseudo is Projector augmented-wave + core cor, Zval =  4.0
     Generated using "atomic" code by A. Dal Corso  v.5.3.0 svn rev. 11974
     Shape of augmentation charge: PSQ
     Using radial grid of 1073 points,  4 beta functions with: 
                l(1) =   0
                l(2) =   0
                l(3) =   1
                l(4) =   1
     Q(r) pseudized with 0 coefficients 


     PseudoPot. # 2 for Cl read from file:
     /global/cscratch1/sd/almno10/.data/PSEUDOPOTENTIALS/Cl.pbe-n-kjpaw_psl.1.0.0.UPF
     MD5 check sum: dca63699d6b897c5771335df08a09219
     Pseudo is Projector augmented-wave + core cor, Zval =  7.0
     Generated using "atomic" code by A. Dal Corso  v.5.3.0 svn rev. 11974
     Shape of augmentation charge: PSQ
     Using radial grid of 1157 points,  6 beta functions with: 
                l(1) =   0
                l(2) =   0
                l(3) =   1
                l(4) =   1
                l(5) =   2
                l(6) =   2
     Q(r) pseudized with 0 coefficients 


     PseudoPot. # 3 for  H read from file:
     /global/cscratch1/sd/almno10/.data/PSEUDOPOTENTIALS/H.pbe-kjpaw_psl.1.0.0.UPF
     MD5 check sum: bc0feb48a24907a0b97fa6ee2d589a29
     Pseudo is Projector augmented-wave, Zval =  1.0
     Generated using "atomic" code by A. Dal Corso  v.5.3.0 svn rev. 11974
     Shape of augmentation charge: PSQ
     Using radial grid of  929 points,  2 beta functions with: 
                l(1) =   0
                l(2) =   0
     Q(r) pseudized with 0 coefficients 


     atomic species   valence    mass     pseudopotential
        C              4.00    12.01100      C( 1.00)
        Cl             7.00    35.45270     Cl( 1.00)
        H              1.00     1.00790      H( 1.00)

     No symmetry found


                                    s                        frac. trans.

      isym =  1     identity                                     

 cryst.   s( 1) = (     1          0          0      )
                  (     0          1          0      )
                  (     0          0          1      )

 cart.    s( 1) = (  1.0000000  0.0000000 -0.0000000 )
                  (  0.0000000  1.0000000  0.0000000 )
                  (  0.0000000  0.0000000  1.0000000 )


   Cartesian axes

     site n.     atom                  positions (alat units)
         1           Cl  tau(   1) = (  16.2874468   1.1397264   1.8323044  )
         2           C   tau(   2) = (  15.0085996   2.2652675   1.8064362  )
         3           C   tau(   3) = (  15.0421327   3.4230209   2.5824651  )
         4           H   tau(   4) = (  15.9048833   3.6794364   3.1944933  )
         5           C   tau(   5) = (  13.8934456   4.2108927   2.6321090  )
         6           H   tau(   6) = (  13.8841012   5.1185038   3.2333031  )
         7           H   tau(   7) = (   6.4928724   1.8535675   0.4146287  )
         8           C   tau(   8) = (   6.6114631   0.9630483   1.0277364  )
         9           H   tau(   9) = (   4.7433738   0.0935356   0.3898412  )
        10           C   tau(  10) = (   5.6229186  -0.0220828   1.0210493  )
        11           C   tau(  11) = (   5.7652147  -1.1726015   1.7966878  )
        12           Cl  tau(  12) = (   4.3767901  -2.1604401   1.7822180  )
        13           H   tau(  13) = (  13.9253356   1.0734697   0.3834945  )
        14           C   tau(  14) = (  13.8879317   1.9367876   1.0450215  )
        15           H   tau(  15) = (  11.9190856   2.5370327   0.4058087  )
        16           C   tau(  16) = (  12.7897469   2.7949670   1.0052445  )
        17           C   tau(  17) = (  12.7804929   3.8881282   1.8571782  )
        18           Cl  tau(  18) = (  11.3135390   4.8722555   1.9560374  )
        19           H   tau(  19) = (   7.0067374  -2.2570587   3.2213568  )
        20           C   tau(  20) = (   6.8826316  -1.3639068   2.6102771  )
        21           H   tau(  21) = (   8.7491927  -0.4934548   3.2394803  )
        22           C   tau(  22) = (   7.8675419  -0.3787918   2.6135098  )
        23           C   tau(  23) = (   7.7236296   0.7733593   1.8446770  )
        24           Cl  tau(  24) = (   9.0358303   2.0424092   2.0589363  )

   Crystallographic axes

     site n.     atom                  positions (cryst. coord.)
         1           Cl  tau(   1) = (  1.1554616  0.1954263  0.4920323  )
         2           C   tau(   2) = (  1.0680947  0.3884203  0.4850859  )
         3           C   tau(   3) = (  1.0924428  0.5869377  0.6934744  )
         4           H   tau(   4) = (  1.1682978  0.6309047  0.8578236  )
         5           C   tau(   5) = (  1.0160413  0.7220323  0.7068054  )
         6           H   tau(   6) = (  1.0325111  0.8776584  0.8682452  )
         7           H   tau(   7) = (  0.4516323  0.3178271  0.1113411  )
         8           C   tau(   8) = (  0.4771075  0.1651317  0.2759801  )
         9           H   tau(   9) = (  0.3324135  0.0160383  0.1046848  )
        10           C   tau(  10) = (  0.4099518 -0.0037865  0.2741844  )
        11           C   tau(  11) = (  0.4416566 -0.2010634  0.4824681  )
        12           Cl  tau(  12) = (  0.3471910 -0.3704458  0.4785825  )
        13           H   tau(  13) = (  0.9542328  0.1840654  0.1029805  )
        14           C   tau(  14) = (  0.9705182  0.3320966  0.2806217  )
        15           H   tau(  15) = (  0.8189612  0.4350193  0.1089726  )
        16           C   tau(  16) = (  0.8949939  0.4792467  0.2699403  )
        17           C   tau(  17) = (  0.9186029  0.6666886  0.4987117  )
        18           Cl  tau(  18) = (  0.8220416  0.8354348  0.5252586  )
        19           H   tau(  19) = (  0.5662883 -0.3870128  0.8650373  )
        20           C   tau(  20) = (  0.5404972 -0.2338661  0.7009429  )
        21           H   tau(  21) = (  0.6848404 -0.0846116  0.8699040  )
        22           C   tau(  22) = (  0.6073084 -0.0649506  0.7018109  )
        23           C   tau(  23) = (  0.5756878  0.1326062  0.4953548  )
        24           Cl  tau(  24) = (  0.6706735  0.3502073  0.5528902  )

     number of k points=    16
                       cart. coord. in units 2pi/alat
        k(    1) = (   0.0169354   0.0214335   0.0406785), wk =   0.1250000
        k(    2) = (   0.0169354   0.0214335   0.1078115), wk =   0.1250000
        k(    3) = (   0.0169354   0.0214335  -0.0935875), wk =   0.1250000
        k(    4) = (   0.0169354   0.0214335  -0.0264545), wk =   0.1250000
        k(    5) = (   0.0169354   0.0643004   0.0406785), wk =   0.1250000
        k(    6) = (   0.0169354   0.0643004   0.1078115), wk =   0.1250000
        k(    7) = (   0.0169354   0.0643004  -0.0935875), wk =   0.1250000
        k(    8) = (   0.0169354   0.0643004  -0.0264545), wk =   0.1250000
        k(    9) = (  -0.0169354   0.0214335  -0.0406785), wk =   0.1250000
        k(   10) = (  -0.0169354   0.0214335  -0.1078115), wk =   0.1250000
        k(   11) = (  -0.0169354   0.0214335   0.0935875), wk =   0.1250000
        k(   12) = (  -0.0169354   0.0214335   0.0264545), wk =   0.1250000
        k(   13) = (  -0.0169354   0.0643004  -0.0406785), wk =   0.1250000
        k(   14) = (  -0.0169354   0.0643004  -0.1078115), wk =   0.1250000
        k(   15) = (  -0.0169354   0.0643004   0.0935875), wk =   0.1250000
        k(   16) = (  -0.0169354   0.0643004   0.0264545), wk =   0.1250000

                       cryst. coord.
        k(    1) = (   0.2500000   0.1250000   0.1250000), wk =   0.1250000
        k(    2) = (   0.2500000   0.1250000   0.3750000), wk =   0.1250000
        k(    3) = (   0.2500000   0.1250000  -0.3750000), wk =   0.1250000
        k(    4) = (   0.2500000   0.1250000  -0.1250000), wk =   0.1250000
        k(    5) = (   0.2500000   0.3750000   0.1250000), wk =   0.1250000
        k(    6) = (   0.2500000   0.3750000   0.3750000), wk =   0.1250000
        k(    7) = (   0.2500000   0.3750000  -0.3750000), wk =   0.1250000
        k(    8) = (   0.2500000   0.3750000  -0.1250000), wk =   0.1250000
        k(    9) = (  -0.2500000   0.1250000  -0.1250000), wk =   0.1250000
        k(   10) = (  -0.2500000   0.1250000  -0.3750000), wk =   0.1250000
        k(   11) = (  -0.2500000   0.1250000   0.3750000), wk =   0.1250000
        k(   12) = (  -0.2500000   0.1250000   0.1250000), wk =   0.1250000
        k(   13) = (  -0.2500000   0.3750000  -0.1250000), wk =   0.1250000
        k(   14) = (  -0.2500000   0.3750000  -0.3750000), wk =   0.1250000
        k(   15) = (  -0.2500000   0.3750000   0.3750000), wk =   0.1250000
        k(   16) = (  -0.2500000   0.3750000   0.1250000), wk =   0.1250000

     Dense  grid:  1155489 G-vectors     FFT dimensions: ( 288, 120,  80)

     Smooth grid:   292295 G-vectors     FFT dimensions: ( 180,  72,  50)

     Estimated max dynamical RAM per process >     147.21MB

     Estimated total allocated dynamical RAM >    4710.62MB

     Initial potential from superposition of free atoms

     starting charge   83.99939, renormalised to   84.00000
     Starting wfc are   72 randomized atomic wfcs
     Checking if some PAW data can be deallocated... 
       node    0, deallocated PAW data for type:  1
       node    0, deallocated PAW data for type:  3
       node    1, deallocated PAW data for type:  1
       node    1, deallocated PAW data for type:  3
       node    2, deallocated PAW data for type:  2
       node    2, deallocated PAW data for type:  3
       node    3, deallocated PAW data for type:  2
       node    3, deallocated PAW data for type:  3
       node    4, deallocated PAW data for type:  2
       node    4, deallocated PAW data for type:  3
       node    5, deallocated PAW data for type:  2
       node    5, deallocated PAW data for type:  3
       node    6, deallocated PAW data for type:  1
       node    6, deallocated PAW data for type:  2
       node    7, deallocated PAW data for type:  1
       node    7, deallocated PAW data for type:  2
       node    8, deallocated PAW data for type:  2
       node    8, deallocated PAW data for type:  3
       node    9, deallocated PAW data for type:  2
       node    9, deallocated PAW data for type:  3
       node   10, deallocated PAW data for type:  1
       node   10, deallocated PAW data for type:  2
       node   11, deallocated PAW data for type:  1
       node   11, deallocated PAW data for type:  2
       node   12, deallocated PAW data for type:  1
       node   12, deallocated PAW data for type:  2
       node   13, deallocated PAW data for type:  1
       node   13, deallocated PAW data for type:  2
       node   14, deallocated PAW data for type:  2
       node   14, deallocated PAW data for type:  3
       node   15, deallocated PAW data for type:  2
       node   15, deallocated PAW data for type:  3
       node   16, deallocated PAW data for type:  1
       node   16, deallocated PAW data for type:  2
       node   17, deallocated PAW data for type:  2
       node   17, deallocated PAW data for type:  3
       node   18, deallocated PAW data for type:  2
       node   18, deallocated PAW data for type:  3
       node   19, deallocated PAW data for type:  1
       node   19, deallocated PAW data for type:  3
       node   20, deallocated PAW data for type:  1
       node   20, deallocated PAW data for type:  2
       node   21, deallocated PAW data for type:  2
       node   21, deallocated PAW data for type:  3
       node   22, deallocated PAW data for type:  1
       node   22, deallocated PAW data for type:  2
       node   23, deallocated PAW data for type:  2
       node   23, deallocated PAW data for type:  3
       node   24, deallocated PAW data for type:  2
       node   24, deallocated PAW data for type:  3
       node   25, deallocated PAW data for type:  1
       node   25, deallocated PAW data for type:  3
       node   26, deallocated PAW data for type:  1
       node   26, deallocated PAW data for type:  2
       node   27, deallocated PAW data for type:  2
       node   27, deallocated PAW data for type:  3
       node   28, deallocated PAW data for type:  1
       node   28, deallocated PAW data for type:  2
       node   29, deallocated PAW data for type:  2
       node   29, deallocated PAW data for type:  3
       node   30, deallocated PAW data for type:  2
       node   30, deallocated PAW data for type:  3
       node   31, deallocated PAW data for type:  1
       node   31, deallocated PAW data for type:  3

     total cpu time spent up to now is        5.5 secs

     per-process dynamical memory:    20.7 Mb

     Self-consistent Calculation

     iteration #  1     ecut=   100.00 Ry     beta= 0.70
     Davidson diagonalization with overlap
     ethr =  1.00E-04,  avg # of iterations =  5.0

     total cpu time spent up to now is       12.2 secs

     total energy              =    -547.11444194 Ry
     Harris-Foulkes estimate   =    -548.99855782 Ry
     estimated scf accuracy    <       2.75113111 Ry

     iteration #  2     ecut=   100.00 Ry     beta= 0.70
     Davidson diagonalization with overlap
     ethr =  3.28E-03,  avg # of iterations =  3.0

     total cpu time spent up to now is       17.1 secs

     total energy              =    -547.51713930 Ry
     Harris-Foulkes estimate   =    -548.61878861 Ry
     estimated scf accuracy    <       1.99382988 Ry

     iteration #  3     ecut=   100.00 Ry     beta= 0.70
     Davidson diagonalization with overlap
     ethr =  2.37E-03,  avg # of iterations =  3.0

     total cpu time spent up to now is       21.5 secs

     total energy              =    -548.01261079 Ry
     Harris-Foulkes estimate   =    -548.05389038 Ry
     estimated scf accuracy    <       0.08302940 Ry

     iteration #  4     ecut=   100.00 Ry     beta= 0.70
     Davidson diagonalization with overlap
     ethr =  9.88E-05,  avg # of iterations =  4.0

     total cpu time spent up to now is       26.3 secs

     total energy              =    -548.03958038 Ry
     Harris-Foulkes estimate   =    -548.05041532 Ry
     estimated scf accuracy    <       0.02130640 Ry

     iteration #  5     ecut=   100.00 Ry     beta= 0.70
     Davidson diagonalization with overlap
     ethr =  2.54E-05,  avg # of iterations =  3.0

     total cpu time spent up to now is       30.7 secs

     total energy              =    -548.04369582 Ry
     Harris-Foulkes estimate   =    -548.04499460 Ry
     estimated scf accuracy    <       0.00239318 Ry

     iteration #  6     ecut=   100.00 Ry     beta= 0.70
     Davidson diagonalization with overlap
     ethr =  2.85E-06,  avg # of iterations =  4.0

     total cpu time spent up to now is       35.5 secs

     total energy              =    -548.04413579 Ry
     Harris-Foulkes estimate   =    -548.04500293 Ry
     estimated scf accuracy    <       0.00231402 Ry

     iteration #  7     ecut=   100.00 Ry     beta= 0.70
     Davidson diagonalization with overlap
     ethr =  2.75E-06,  avg # of iterations =  4.0

     total cpu time spent up to now is       39.7 secs

     total energy              =    -548.04456604 Ry
     Harris-Foulkes estimate   =    -548.04458819 Ry
     estimated scf accuracy    <       0.00006216 Ry

     iteration #  8     ecut=   100.00 Ry     beta= 0.70
     Davidson diagonalization with overlap
     ethr =  7.40E-08,  avg # of iterations =  4.0

     total cpu time spent up to now is       44.4 secs

     total energy              =    -548.04458429 Ry
     Harris-Foulkes estimate   =    -548.04458845 Ry
     estimated scf accuracy    <       0.00000922 Ry

     iteration #  9     ecut=   100.00 Ry     beta= 0.70
     Davidson diagonalization with overlap
     ethr =  1.10E-08,  avg # of iterations =  4.0

     total cpu time spent up to now is       49.1 secs

     total energy              =    -548.04458640 Ry
     Harris-Foulkes estimate   =    -548.04458735 Ry
     estimated scf accuracy    <       0.00000212 Ry

     iteration # 10     ecut=   100.00 Ry     beta= 0.70
     Davidson diagonalization with overlap
     ethr =  2.52E-09,  avg # of iterations =  4.0

     total cpu time spent up to now is       53.7 secs

     total energy              =    -548.04458686 Ry
     Harris-Foulkes estimate   =    -548.04458697 Ry
     estimated scf accuracy    <       0.00000024 Ry

     iteration # 11     ecut=   100.00 Ry     beta= 0.70
     Davidson diagonalization with overlap
     ethr =  2.90E-10,  avg # of iterations =  4.0

     total cpu time spent up to now is       58.4 secs

     End of self-consistent calculation

          k = 0.0169 0.0214 0.0407 ( 36525 PWs)   bands (ev):

   -16.1562 -16.1275 -15.4248 -15.1647 -13.9546 -13.8439 -12.3230 -12.3139
   -11.2869 -11.2226  -8.9675  -8.9483  -8.2214  -8.1443  -6.3475  -6.2595
    -5.3140  -5.3038  -5.0244  -4.8452  -4.2216  -4.1387  -4.0377  -3.9025
    -3.2279  -3.1719  -2.6927  -2.5708  -2.3873  -2.3027  -2.2291  -2.1138
    -1.2540  -1.1342  -1.0141  -0.9653  -0.9090  -0.7450  -0.0427  -0.0086
     0.6251   0.7664

     occupation numbers 
     1.0000   1.0000   1.0000   1.0000   1.0000   1.0000   1.0000   1.0000
     1.0000   1.0000   1.0000   1.0000   1.0000   1.0000   1.0000   1.0000
     1.0000   1.0000   1.0000   1.0000   1.0000   1.0000   1.0000   1.0000
     1.0000   1.0000   1.0000   1.0000   1.0000   1.0000   1.0000   1.0000
     1.0000   1.0000   1.0000   1.0000   1.0000   1.0000   1.0000   1.0000
     1.0000   1.0000

          k = 0.0169 0.0214 0.1078 ( 36561 PWs)   bands (ev):

   -16.0690 -16.0548 -15.3643 -15.1190 -13.9408 -13.8103 -12.3332 -12.3165
   -11.2712 -11.2225  -8.9410  -8.9116  -8.2122  -8.1194  -6.3879  -6.2625
    -5.3280  -5.2994  -5.0765  -4.9162  -4.3374  -4.1951  -4.0551  -4.0227
    -3.8158  -3.6820  -2.8441  -2.7465  -2.5395  -2.4300  -2.3390  -2.2694
    -1.3694  -1.2332  -1.1451  -1.0089  -0.9133  -0.7576  -0.1227  -0.0969
     0.6318   0.7661

     occupation numbers 
     1.0000   1.0000   1.0000   1.0000   1.0000   1.0000   1.0000   1.0000
     1.0000   1.0000   1.0000   1.0000   1.0000   1.0000   1.0000   1.0000
     1.0000   1.0000   1.0000   1.0000   1.0000   1.0000   1.0000   1.0000
     1.0000   1.0000   1.0000   1.0000   1.0000   1.0000   1.0000   1.0000
     1.0000   1.0000   1.0000   1.0000   1.0000   1.0000   1.0000   1.0000
     1.0000   1.0000

          k = 0.0169 0.0214-0.0936 ( 36547 PWs)   bands (ev):

   -16.0741 -16.0502 -15.3627 -15.1200 -13.9323 -13.8205 -12.3252 -12.3216
   -11.2582 -11.2343  -8.9472  -8.9064  -8.1999  -8.1423  -6.3663  -6.2967
    -5.3267  -5.2908  -5.0672  -4.8941  -4.3038  -4.2031  -4.1284  -4.0227
    -3.7533  -3.7122  -2.7503  -2.7029  -2.6056  -2.4315  -2.3789  -2.3500
    -1.3021  -1.2122  -1.1467  -1.0437  -0.8880  -0.7726  -0.1559  -0.0657
     0.6240   0.7644

     occupation numbers 
     1.0000   1.0000   1.0000   1.0000   1.0000   1.0000   1.0000   1.0000
     1.0000   1.0000   1.0000   1.0000   1.0000   1.0000   1.0000   1.0000
     1.0000   1.0000   1.0000   1.0000   1.0000   1.0000   1.0000   1.0000
     1.0000   1.0000   1.0000   1.0000   1.0000   1.0000   1.0000   1.0000
     1.0000   1.0000   1.0000   1.0000   1.0000   1.0000   1.0000   1.0000
     1.0000   1.0000

          k = 0.0169 0.0214-0.0265 ( 36551 PWs)   bands (ev):

   -16.1636 -16.1201 -15.4244 -15.1652 -13.9478 -13.8515 -12.3209 -12.3146
   -11.2878 -11.2184  -8.9846  -8.9379  -8.2637  -8.0979  -6.4221  -6.1894
    -5.3254  -5.2895  -5.1450  -4.7039  -4.3312  -4.1319  -3.8856  -3.8581
    -3.2256  -3.1998  -2.8126  -2.5834  -2.3646  -2.3020  -2.2493  -2.1201
    -1.1894  -1.1425  -1.0299  -0.9531  -0.9042  -0.7345  -0.0727   0.0130
     0.6382   0.7490

     occupation numbers 
     1.0000   1.0000   1.0000   1.0000   1.0000   1.0000   1.0000   1.0000
     1.0000   1.0000   1.0000   1.0000   1.0000   1.0000   1.0000   1.0000
     1.0000   1.0000   1.0000   1.0000   1.0000   1.0000   1.0000   1.0000
     1.0000   1.0000   1.0000   1.0000   1.0000   1.0000   1.0000   1.0000
     1.0000   1.0000   1.0000   1.0000   1.0000   1.0000   1.0000   1.0000
     1.0000   1.0000

          k = 0.0169 0.0643 0.0407 ( 36518 PWs)   bands (ev):

   -16.1310 -16.0988 -15.4302 -15.1694 -13.9807 -13.9110 -12.3543 -12.3444
   -11.2726 -11.2244  -8.8890  -8.8734  -8.1250  -8.0787  -6.3566  -6.3215
    -5.2980  -5.2637  -5.0702  -4.9497  -4.3506  -4.2431  -4.0483  -3.9196
    -3.3026  -3.2475  -2.6972  -2.5982  -2.4393  -2.3337  -2.1870  -2.0190
    -1.0837  -0.9607  -0.9166  -0.8832  -0.8079  -0.7804  -0.0208   0.0124
     0.6870   0.7606

     occupation numbers 
     1.0000   1.0000   1.0000   1.0000   1.0000   1.0000   1.0000   1.0000
     1.0000   1.0000   1.0000   1.0000   1.0000   1.0000   1.0000   1.0000
     1.0000   1.0000   1.0000   1.0000   1.0000   1.0000   1.0000   1.0000
     1.0000   1.0000   1.0000   1.0000   1.0000   1.0000   1.0000   1.0000
     1.0000   1.0000   1.0000   1.0000   1.0000   1.0000   1.0000   1.0000
     1.0000   1.0000

          k = 0.0169 0.0643 0.1078 ( 36558 PWs)   bands (ev):

   -16.0547 -16.0338 -15.3658 -15.1163 -13.9499 -13.8644 -12.3393 -12.3311
   -11.2656 -11.2441  -8.9160  -8.9022  -8.1647  -8.1329  -6.3728  -6.2989
    -5.3160  -5.2902  -4.9670  -4.8316  -4.3137  -4.1800  -4.0573  -4.0124
    -3.9668  -3.8644  -2.7500  -2.6575  -2.6486  -2.5043  -2.3864  -2.2325
    -1.3228  -1.1825  -1.0536  -0.9590  -0.9256  -0.8289   0.0274   0.0418
     0.5955   0.7565

     occupation numbers 
     1.0000   1.0000   1.0000   1.0000   1.0000   1.0000   1.0000   1.0000
     1.0000   1.0000   1.0000   1.0000   1.0000   1.0000   1.0000   1.0000
     1.0000   1.0000   1.0000   1.0000   1.0000   1.0000   1.0000   1.0000
     1.0000   1.0000   1.0000   1.0000   1.0000   1.0000   1.0000   1.0000
     1.0000   1.0000   1.0000   1.0000   1.0000   1.0000   1.0000   1.0000
     1.0000   1.0000

          k = 0.0169 0.0643-0.0936 ( 36547 PWs)   bands (ev):

   -16.0589 -16.0302 -15.3633 -15.1181 -13.9439 -13.8713 -12.3380 -12.3306
   -11.2663 -11.2412  -8.9450  -8.8752  -8.1856  -8.1200  -6.3867  -6.2845
    -5.3263  -5.2912  -4.9754  -4.8297  -4.3192  -4.1687  -4.1035  -3.9323
    -3.9008  -3.8722  -2.7765  -2.7294  -2.6469  -2.5710  -2.3265  -2.2330
    -1.2433  -1.1447  -1.0873  -1.0067  -0.9037  -0.8382  -0.0074   0.0596
     0.5929   0.7621

     occupation numbers 
     1.0000   1.0000   1.0000   1.0000   1.0000   1.0000   1.0000   1.0000
     1.0000   1.0000   1.0000   1.0000   1.0000   1.0000   1.0000   1.0000
     1.0000   1.0000   1.0000   1.0000   1.0000   1.0000   1.0000   1.0000
     1.0000   1.0000   1.0000   1.0000   1.0000   1.0000   1.0000   1.0000
     1.0000   1.0000   1.0000   1.0000   1.0000   1.0000   1.0000   1.0000
     1.0000   1.0000

          k = 0.0169 0.0643-0.0265 ( 36489 PWs)   bands (ev):

   -16.1356 -16.0946 -15.4281 -15.1709 -13.9758 -13.9172 -12.3516 -12.3433
   -11.2728 -11.2253  -8.9156  -8.8453  -8.1399  -8.0661  -6.4200  -6.3040
    -5.2935  -5.2715  -5.0267  -4.8875  -4.3156  -4.2291  -4.0951  -3.9853
    -3.2867  -3.2734  -2.6597  -2.5383  -2.4362  -2.3834  -2.2149  -2.0467
    -1.0831  -1.0115  -0.9171  -0.8289  -0.7855  -0.7529  -0.0475   0.0191
     0.6948   0.7487

     occupation numbers 
     1.0000   1.0000   1.0000   1.0000   1.0000   1.0000   1.0000   1.0000
     1.0000   1.0000   1.0000   1.0000   1.0000   1.0000   1.0000   1.0000
     1.0000   1.0000   1.0000   1.0000   1.0000   1.0000   1.0000   1.0000
     1.0000   1.0000   1.0000   1.0000   1.0000   1.0000   1.0000   1.0000
     1.0000   1.0000   1.0000   1.0000   1.0000   1.0000   1.0000   1.0000
     1.0000   1.0000

          k =-0.0169 0.0214-0.0407 ( 36525 PWs)   bands (ev):

   -16.1595 -16.1247 -15.4231 -15.1658 -13.9497 -13.8503 -12.3201 -12.3139
   -11.2825 -11.2259  -8.9809  -8.9369  -8.2182  -8.1550  -6.3544  -6.2633
    -5.3243  -5.2857  -5.0279  -4.8358  -4.2566  -4.1360  -3.9673  -3.8805
    -3.2196  -3.1887  -2.7152  -2.5905  -2.4010  -2.3240  -2.2248  -2.1168
    -1.2375  -1.1417  -0.9904  -0.9503  -0.9132  -0.7403  -0.0720   0.0125
     0.6286   0.7576

     occupation numbers 
     1.0000   1.0000   1.0000   1.0000   1.0000   1.0000   1.0000   1.0000
     1.0000   1.0000   1.0000   1.0000   1.0000   1.0000   1.0000   1.0000
     1.0000   1.0000   1.0000   1.0000   1.0000   1.0000   1.0000   1.0000
     1.0000   1.0000   1.0000   1.0000   1.0000   1.0000   1.0000   1.0000
     1.0000   1.0000   1.0000   1.0000   1.0000   1.0000   1.0000   1.0000
     1.0000   1.0000

          k =-0.0169 0.0214-0.1078 ( 36561 PWs)   bands (ev):

   -16.0721 -16.0524 -15.3619 -15.1205 -13.9369 -13.8156 -12.3285 -12.3184
   -11.2761 -11.2165  -8.9510  -8.9030  -8.2142  -8.1259  -6.4059  -6.2533
    -5.3325  -5.2889  -5.0598  -4.9228  -4.3473  -4.2068  -4.0492  -3.9838
    -3.7693  -3.7111  -2.8720  -2.7348  -2.5739  -2.4273  -2.3382  -2.2849
    -1.3335  -1.2368  -1.1470  -1.0033  -0.9070  -0.7609  -0.1585  -0.0684
     0.6243   0.7681

     occupation numbers 
     1.0000   1.0000   1.0000   1.0000   1.0000   1.0000   1.0000   1.0000
     1.0000   1.0000   1.0000   1.0000   1.0000   1.0000   1.0000   1.0000
     1.0000   1.0000   1.0000   1.0000   1.0000   1.0000   1.0000   1.0000
     1.0000   1.0000   1.0000   1.0000   1.0000   1.0000   1.0000   1.0000
     1.0000   1.0000   1.0000   1.0000   1.0000   1.0000   1.0000   1.0000
     1.0000   1.0000

          k =-0.0169 0.0214 0.0936 ( 36547 PWs)   bands (ev):

   -16.0715 -16.0522 -15.3654 -15.1181 -13.9392 -13.8122 -12.3309 -12.3186
   -11.2643 -11.2295  -8.9366  -8.9147  -8.1998  -8.1351  -6.3554  -6.2971
    -5.3278  -5.2994  -5.0723  -4.8939  -4.2793  -4.2062  -4.1693  -4.0321
    -3.7936  -3.6811  -2.7425  -2.6894  -2.5975  -2.4764  -2.3534  -2.3008
    -1.3288  -1.2197  -1.1362  -1.0578  -0.8953  -0.7681  -0.1193  -0.0987
     0.6396   0.7564

     occupation numbers 
     1.0000   1.0000   1.0000   1.0000   1.0000   1.0000   1.0000   1.0000
     1.0000   1.0000   1.0000   1.0000   1.0000   1.0000   1.0000   1.0000
     1.0000   1.0000   1.0000   1.0000   1.0000   1.0000   1.0000   1.0000
     1.0000   1.0000   1.0000   1.0000   1.0000   1.0000   1.0000   1.0000
     1.0000   1.0000   1.0000   1.0000   1.0000   1.0000   1.0000   1.0000
     1.0000   1.0000

          k =-0.0169 0.0214 0.0265 ( 36551 PWs)   bands (ev):

   -16.1616 -16.1214 -15.4269 -15.1634 -13.9537 -13.8443 -12.3245 -12.3138
   -11.2878 -11.2196  -8.9713  -8.9497  -8.2610  -8.0921  -6.4065  -6.1983
    -5.3253  -5.2980  -5.1413  -4.7096  -4.3163  -4.1207  -3.9430  -3.8894
    -3.2299  -3.1919  -2.7850  -2.5400  -2.3786  -2.3067  -2.2229  -2.1158
    -1.2344  -1.0921  -1.0483  -0.9731  -0.9132  -0.7406  -0.0425  -0.0102
     0.6369   0.7575

     occupation numbers 
     1.0000   1.0000   1.0000   1.0000   1.0000   1.0000   1.0000   1.0000
     1.0000   1.0000   1.0000   1.0000   1.0000   1.0000   1.0000   1.0000
     1.0000   1.0000   1.0000   1.0000   1.0000   1.0000   1.0000   1.0000
     1.0000   1.0000   1.0000   1.0000   1.0000   1.0000   1.0000   1.0000
     1.0000   1.0000   1.0000   1.0000   1.0000   1.0000   1.0000   1.0000
     1.0000   1.0000

          k =-0.0169 0.0643-0.0407 ( 36518 PWs)   bands (ev):

   -16.1349 -16.0954 -15.4281 -15.1708 -13.9763 -13.9165 -12.3529 -12.3438
   -11.2682 -11.2271  -8.9183  -8.8460  -8.1306  -8.0807  -6.3723  -6.3153
    -5.2951  -5.2713  -5.0570  -4.9483  -4.3732  -4.1872  -4.0270  -3.9245
    -3.2991  -3.2633  -2.7304  -2.5821  -2.4420  -2.3719  -2.1647  -2.0333
    -1.0787  -0.9653  -0.9065  -0.8613  -0.8080  -0.7647  -0.0479   0.0190
     0.6922   0.7534

     occupation numbers 
     1.0000   1.0000   1.0000   1.0000   1.0000   1.0000   1.0000   1.0000
     1.0000   1.0000   1.0000   1.0000   1.0000   1.0000   1.0000   1.0000
     1.0000   1.0000   1.0000   1.0000   1.0000   1.0000   1.0000   1.0000
     1.0000   1.0000   1.0000   1.0000   1.0000   1.0000   1.0000   1.0000
     1.0000   1.0000   1.0000   1.0000   1.0000   1.0000   1.0000   1.0000
     1.0000   1.0000

          k =-0.0169 0.0643-0.1078 ( 36558 PWs)   bands (ev):

   -16.0585 -16.0307 -15.3632 -15.1180 -13.9466 -13.8687 -12.3383 -12.3299
   -11.2748 -11.2334  -8.9454  -8.8751  -8.1846  -8.1193  -6.3965  -6.2814
    -5.3238  -5.2837  -4.9495  -4.8520  -4.3090  -4.2050  -4.0414  -3.9705
    -3.9214  -3.8845  -2.7703  -2.6863  -2.6446  -2.4814  -2.4031  -2.2675
    -1.3017  -1.1528  -1.0537  -0.9785  -0.9227  -0.8126  -0.0085   0.0602
     0.5895   0.7611

     occupation numbers 
     1.0000   1.0000   1.0000   1.0000   1.0000   1.0000   1.0000   1.0000
     1.0000   1.0000   1.0000   1.0000   1.0000   1.0000   1.0000   1.0000
     1.0000   1.0000   1.0000   1.0000   1.0000   1.0000   1.0000   1.0000
     1.0000   1.0000   1.0000   1.0000   1.0000   1.0000   1.0000   1.0000
     1.0000   1.0000   1.0000   1.0000   1.0000   1.0000   1.0000   1.0000
     1.0000   1.0000

          k =-0.0169 0.0643 0.0936 ( 36547 PWs)   bands (ev):

   -16.0552 -16.0332 -15.3662 -15.1159 -13.9514 -13.8628 -12.3391 -12.3317
   -11.2707 -11.2385  -8.9123  -8.9054  -8.1587  -8.1414  -6.3740  -6.2906
    -5.3227  -5.2961  -4.9558  -4.8466  -4.3049  -4.1831  -4.0896  -4.0266
    -3.8986  -3.8515  -2.7965  -2.6735  -2.6519  -2.5808  -2.2940  -2.2137
    -1.2735  -1.1582  -1.0804  -0.9816  -0.9350  -0.8476   0.0301   0.0380
     0.6007   0.7572

     occupation numbers 
     1.0000   1.0000   1.0000   1.0000   1.0000   1.0000   1.0000   1.0000
     1.0000   1.0000   1.0000   1.0000   1.0000   1.0000   1.0000   1.0000
     1.0000   1.0000   1.0000   1.0000   1.0000   1.0000   1.0000   1.0000
     1.0000   1.0000   1.0000   1.0000   1.0000   1.0000   1.0000   1.0000
     1.0000   1.0000   1.0000   1.0000   1.0000   1.0000   1.0000   1.0000
     1.0000   1.0000

          k =-0.0169 0.0643 0.0265 ( 36489 PWs)   bands (ev):

   -16.1326 -16.0969 -15.4309 -15.1687 -13.9814 -13.9108 -12.3526 -12.3443
   -11.2733 -11.2268  -8.8890  -8.8700  -8.1352  -8.0626  -6.3873  -6.3295
    -5.2980  -5.2634  -5.0527  -4.8734  -4.3251  -4.2089  -4.1109  -4.0268
    -3.2988  -3.2519  -2.6432  -2.5345  -2.4408  -2.3581  -2.2091  -2.0430
    -1.0677  -1.0164  -0.9374  -0.8679  -0.8002  -0.7374  -0.0224   0.0139
     0.6908   0.7552

     occupation numbers 
     1.0000   1.0000   1.0000   1.0000   1.0000   1.0000   1.0000   1.0000
     1.0000   1.0000   1.0000   1.0000   1.0000   1.0000   1.0000   1.0000
     1.0000   1.0000   1.0000   1.0000   1.0000   1.0000   1.0000   1.0000
     1.0000   1.0000   1.0000   1.0000   1.0000   1.0000   1.0000   1.0000
     1.0000   1.0000   1.0000   1.0000   1.0000   1.0000   1.0000   1.0000
     1.0000   1.0000

     highest occupied level (ev):     0.7681

!    total energy              =    -548.04458691 Ry
     Harris-Foulkes estimate   =    -548.04458694 Ry
     estimated scf accuracy    <       0.00000004 Ry

     total all-electron energy =     -4615.888075 Ry

     The total energy is the sum of the following terms:

     one-electron contribution =    -154.29733905 Ry
     hartree contribution      =     108.52097430 Ry
     xc contribution           =    -104.24369464 Ry
     ewald contribution        =    -142.24079856 Ry
     one-center paw contrib.   =    -255.78372896 Ry
      -> PAW hartree energy AE =      19.49422592 Ry
      -> PAW hartree energy PS =     -19.38915296 Ry
      -> PAW xc energy AE      =     -55.71704126 Ry
      -> PAW xc energy PS      =      10.16885202 Ry
      -> total E_H with PAW    =     108.62604726 Ry
      -> total E_XC with PAW   =    -149.79188389 Ry

     convergence has been achieved in  11 iterations
 writing file ./scratch/scf-1293.save/charge-density
 writing file ./scratch/scf-1293.save/charge-density
 writing file ./scratch/scf-1293.save/charge-density
 writing file ./scratch/scf-1293.save/charge-density
 writing file ./scratch/scf-1293.save/charge-density
 writing file ./scratch/scf-1293.save/charge-density
 writing file ./scratch/scf-1293.save/charge-density
 writing file ./scratch/scf-1293.save/charge-density
 writing file ./scratch/scf-1293.save/charge-density
 writing file ./scratch/scf-1293.save/charge-density
 writing file ./scratch/scf-1293.save/charge-density
 writing file ./scratch/scf-1293.save/charge-density
 writing file ./scratch/scf-1293.save/charge-density
 writing file ./scratch/scf-1293.save/charge-density
 writing file ./scratch/scf-1293.save/charge-density
 writing file ./scratch/scf-1293.save/charge-density
 writing file ./scratch/scf-1293.save/charge-density
 writing file ./scratch/scf-1293.save/charge-density
 writing file ./scratch/scf-1293.save/charge-density
 writing file ./scratch/scf-1293.save/charge-density
 writing file ./scratch/scf-1293.save/charge-density
 writing file ./scratch/scf-1293.save/charge-density
 writing file ./scratch/scf-1293.save/charge-density
 writing file ./scratch/scf-1293.save/charge-density
 writing file ./scratch/scf-1293.save/charge-density
 writing file ./scratch/scf-1293.save/charge-density
 writing file ./scratch/scf-1293.save/charge-density
 writing file ./scratch/scf-1293.save/charge-density
 writing file ./scratch/scf-1293.save/charge-density
 writing file ./scratch/scf-1293.save/charge-density
 writing file ./scratch/scf-1293.save/charge-density
 writing file ./scratch/scf-1293.save/charge-density

     Forces acting on atoms (cartesian axes, Ry/au):

     atom    1 type  2   force =     0.03854319   -0.01795755    0.00107850
     atom    2 type  1   force =    -0.02770212    0.00742578    0.00598943
     atom    3 type  1   force =    -0.01082449   -0.00510817    0.00382761
     atom    4 type  3   force =     0.00182136   -0.00142196   -0.00238371
     atom    5 type  1   force =    -0.00105556    0.01960193   -0.00622484
     atom    6 type  3   force =     0.00040840   -0.00243665    0.00457721
     atom    7 type  3   force =     0.00093407    0.00142724    0.00009624
     atom    8 type  1   force =     0.00757763    0.00856770    0.00029528
     atom    9 type  3   force =    -0.00019076    0.00366329    0.00171710
     atom   10 type  1   force =     0.02129327    0.01179610   -0.00818804
     atom   11 type  1   force =     0.00421047    0.04066212   -0.00063761
     atom   12 type  2   force =    -0.02208699   -0.04492503    0.01157488
     atom   13 type  3   force =    -0.00487984   -0.00447151    0.00387334
     atom   14 type  1   force =     0.00298692    0.01383213   -0.02108627
     atom   15 type  3   force =     0.00184855    0.00226178    0.00022658
     atom   16 type  1   force =    -0.00489948   -0.02125748    0.01525317
     atom   17 type  1   force =    -0.00979442    0.01427163    0.00167147
     atom   18 type  2   force =     0.02197131   -0.00525558   -0.00037741
     atom   19 type  3   force =    -0.00359903    0.00348703    0.00069009
     atom   20 type  1   force =    -0.00781637   -0.00475641   -0.00861755
     atom   21 type  3   force =    -0.00131898   -0.00240465    0.00210255
     atom   22 type  1   force =     0.00716620    0.00598293    0.00176063
     atom   23 type  1   force =     0.02931278    0.01941191    0.01774907
     atom   24 type  2   force =    -0.04390611   -0.04239659   -0.02496772
     The non-local contrib.  to forces
     atom    1 type  2   force =    -0.28308680    0.26866363   -0.00354402
     atom    2 type  1   force =     0.35946474   -0.31373569    0.01892087
     atom    3 type  1   force =    -0.04471292   -0.04315026   -0.03940028
     atom    4 type  3   force =    -0.06211046   -0.01868487   -0.04447508
     atom    5 type  1   force =    -0.03156464   -0.01436573   -0.05302329
     atom    6 type  3   force =     0.00025154   -0.06541820   -0.04309764
     atom    7 type  3   force =     0.00905178   -0.06436278    0.04470640
     atom    8 type  1   force =     0.06264445   -0.02379194    0.05383912
     atom    9 type  3   force =     0.06325431   -0.00847934    0.04572266
     atom   10 type  1   force =     0.06554809   -0.00677603    0.01053194
     atom   11 type  1   force =    -0.38271275   -0.27815936    0.00307909
     atom   12 type  2   force =     0.33133483    0.20777650    0.01099221
     atom   13 type  3   force =    -0.00237230    0.06180855    0.04825745
     atom   14 type  1   force =     0.03657650    0.05592407    0.00674070
     atom   15 type  3   force =     0.06329009    0.01927963    0.04340501
     atom   16 type  1   force =     0.03801526    0.01661194    0.08032787
     atom   17 type  1   force =    -0.40847061    0.31151452    0.02555422
     atom   18 type  2   force =     0.33381902   -0.21579107   -0.02342445
     atom   19 type  3   force =    -0.00990956    0.06450591   -0.04420985
     atom   20 type  1   force =    -0.04880816    0.03828710   -0.08056060
     atom   21 type  3   force =    -0.06415610    0.00835504   -0.04582280
     atom   22 type  1   force =    -0.04594785    0.03782129   -0.05474055
     atom   23 type  1   force =     0.37904488    0.37500621    0.04637255
     atom   24 type  2   force =    -0.27961375   -0.27407261   -0.05798110
     The ionic contribution  to forces
     atom    1 type  2   force =     7.12870280   -4.85738201    1.18594992
     atom    2 type  1   force =     3.05887043   -1.34553365    0.60171737
     atom    3 type  1   force =     5.08117435    2.04477330    2.89597680
     atom    4 type  3   force =     2.09300361    0.74406838    1.37076167
     atom    5 type  1   force =     1.58907446    4.03197760    2.95408143
     atom    6 type  3   force =     0.39216437    1.97553072    1.39963896
     atom    7 type  3   force =    -0.64594275    1.80622048   -1.47987088
     atom    8 type  1   force =    -1.99499417    3.86299635   -3.03539747
     atom    9 type  3   force =    -2.23700830    0.47477639   -1.52444011
     atom   10 type  1   force =    -4.97780575    1.54149724   -3.23507674
     atom   11 type  1   force =    -2.36500364   -2.01388818   -0.74471805
     atom   12 type  2   force =    -7.43720390   -4.19949931   -1.00389142
     atom   13 type  3   force =    -0.02817998   -1.93386489   -1.36434075
     atom   14 type  1   force =    -0.47389508   -4.29839728   -1.98186047
     atom   15 type  3   force =    -1.79811580   -0.73480746   -1.15913649
     atom   16 type  1   force =    -3.32527110   -1.67623742   -2.77825228
     atom   17 type  1   force =    -1.72885946    1.88907454    0.02197480
     atom   18 type  2   force =    -4.34674151    4.06117429    0.05463113
     atom   19 type  3   force =     0.21117953   -1.81879116    1.32022319
     atom   20 type  1   force =     0.46333099   -3.70253221    2.37118173
     atom   21 type  3   force =     1.86782560   -0.28669481    1.33780200
     atom   22 type  1   force =     3.52718947   -0.97801138    2.50922315
     atom   23 type  1   force =     1.82919852    2.27968283   -0.15877158
     atom   24 type  2   force =     4.11730731    3.13386762    0.44259406
     The local contribution  to forces
     atom    1 type  2   force =    -6.81685228    4.58072211   -1.18131654
     atom    2 type  1   force =    -3.43686566    1.65931638   -0.61441386
     atom    3 type  1   force =    -5.04600216   -2.00650783   -2.85234811
     atom    4 type  3   force =    -2.02905856   -0.72679654   -1.32866406
     atom    5 type  1   force =    -1.55900314   -3.99671772   -2.90664867
     atom    6 type  3   force =    -0.39200651   -1.91253916   -1.35196020
     atom    7 type  3   force =     0.63781810   -1.74042850    1.43526018
     atom    8 type  1   force =     1.94053011   -3.82929272    2.98132327
     atom    9 type  3   force =     2.17358673   -0.46264396    1.48045093
     atom   10 type  1   force =     4.93297535   -1.52254805    3.21530476
     atom   11 type  1   force =     2.74317808    2.32501548    0.74100593
     atom   12 type  2   force =     7.09634457    3.95387041    1.00518295
     atom   13 type  3   force =     0.02566336    1.86758692    1.31995688
     atom   14 type  1   force =     0.44034799    4.25517081    1.95325967
     atom   15 type  3   force =     1.73667548    0.71778940    1.11595913
     atom   16 type  1   force =     3.28148376    1.63813879    2.71250452
     atom   17 type  1   force =     2.11670890   -2.17810388   -0.04501489
     atom   18 type  2   force =     4.04925281   -3.85962126   -0.03252416
     atom   19 type  3   force =    -0.20489044    1.75777872   -1.27533740
     atom   20 type  1   force =    -0.42305040    3.65820307   -2.29928155
     atom   21 type  3   force =    -1.80497207    0.27592644   -1.28986332
     atom   22 type  1   force =    -3.47328503    0.94616893   -2.45246364
     atom   23 type  1   force =    -2.16866256   -2.62485657    0.13090635
     atom   24 type  2   force =    -3.89487397   -2.91520385   -0.41280110
     The core correction contribution to forces
     atom    1 type  2   force =     0.00992263   -0.01003979    0.00004831
     atom    2 type  1   force =    -0.00917888    0.00736789   -0.00023565
     atom    3 type  1   force =    -0.00122972   -0.00016615   -0.00035526
     atom    4 type  3   force =     0.00000000    0.00000000    0.00000000
     atom    5 type  1   force =     0.00043857   -0.00125277   -0.00062420
     atom    6 type  3   force =     0.00000000    0.00000000    0.00000000
     atom    7 type  3   force =     0.00000000    0.00000000    0.00000000
     atom    8 type  1   force =    -0.00070736   -0.00138168    0.00049736
     atom    9 type  3   force =     0.00000000    0.00000000    0.00000000
     atom   10 type  1   force =     0.00055508   -0.00045806    0.00107788
     atom   11 type  1   force =     0.00871220    0.00770085   -0.00002683
     atom   12 type  2   force =    -0.01233496   -0.00689722   -0.00068747
     atom   13 type  3   force =     0.00000000    0.00000000    0.00000000
     atom   14 type  1   force =    -0.00011174    0.00108695    0.00072798
     atom   15 type  3   force =     0.00000000    0.00000000    0.00000000
     atom   16 type  1   force =     0.00084368    0.00019888    0.00064758
     atom   17 type  1   force =     0.01077395   -0.00818782   -0.00085577
     atom   18 type  2   force =    -0.01435085    0.00900969    0.00094643
     atom   19 type  3   force =     0.00000000    0.00000000    0.00000000
     atom   20 type  1   force =     0.00053304    0.00121911   -0.00002774
     atom   21 type  3   force =     0.00000000    0.00000000    0.00000000
     atom   22 type  1   force =    -0.00087056   -0.00005810   -0.00027901
     atom   23 type  1   force =    -0.01035324   -0.01036940   -0.00082390
     atom   24 type  2   force =     0.01322947    0.01308402    0.00319540
     The Hubbard contrib.    to forces
     atom    1 type  2   force =     0.00000000    0.00000000    0.00000000
     atom    2 type  1   force =     0.00000000    0.00000000    0.00000000
     atom    3 type  1   force =     0.00000000    0.00000000    0.00000000
     atom    4 type  3   force =     0.00000000    0.00000000    0.00000000
     atom    5 type  1   force =     0.00000000    0.00000000    0.00000000
     atom    6 type  3   force =     0.00000000    0.00000000    0.00000000
     atom    7 type  3   force =     0.00000000    0.00000000    0.00000000
     atom    8 type  1   force =     0.00000000    0.00000000    0.00000000
     atom    9 type  3   force =     0.00000000    0.00000000    0.00000000
     atom   10 type  1   force =     0.00000000    0.00000000    0.00000000
     atom   11 type  1   force =     0.00000000    0.00000000    0.00000000
     atom   12 type  2   force =     0.00000000    0.00000000    0.00000000
     atom   13 type  3   force =     0.00000000    0.00000000    0.00000000
     atom   14 type  1   force =     0.00000000    0.00000000    0.00000000
     atom   15 type  3   force =     0.00000000    0.00000000    0.00000000
     atom   16 type  1   force =     0.00000000    0.00000000    0.00000000
     atom   17 type  1   force =     0.00000000    0.00000000    0.00000000
     atom   18 type  2   force =     0.00000000    0.00000000    0.00000000
     atom   19 type  3   force =     0.00000000    0.00000000    0.00000000
     atom   20 type  1   force =     0.00000000    0.00000000    0.00000000
     atom   21 type  3   force =     0.00000000    0.00000000    0.00000000
     atom   22 type  1   force =     0.00000000    0.00000000    0.00000000
     atom   23 type  1   force =     0.00000000    0.00000000    0.00000000
     atom   24 type  2   force =     0.00000000    0.00000000    0.00000000
     The SCF correction term to forces
     atom    1 type  2   force =    -0.00014237    0.00007951   -0.00005877
     atom    2 type  1   force =     0.00000804    0.00001185    0.00000110
     atom    3 type  1   force =    -0.00005324   -0.00005624   -0.00004514
     atom    4 type  3   force =    -0.00001245   -0.00000794   -0.00000585
     atom    5 type  1   force =    -0.00000001   -0.00003845   -0.00000971
     atom    6 type  3   force =    -0.00000021   -0.00000901   -0.00000351
     atom    7 type  3   force =     0.00000774   -0.00000096    0.00000094
     atom    8 type  1   force =     0.00010539    0.00003869    0.00003340
     atom    9 type  3   force =    -0.00002270    0.00001119   -0.00001598
     atom   10 type  1   force =     0.00002129    0.00008200   -0.00002549
     atom   11 type  1   force =     0.00003738   -0.00000568    0.00002265
     atom   12 type  2   force =    -0.00022673   -0.00017441   -0.00002100
     atom   13 type  3   force =     0.00000988   -0.00000109    0.00000015
     atom   14 type  1   force =     0.00007004    0.00004857    0.00004625
     atom   15 type  3   force =    -0.00000043    0.00000122   -0.00000068
     atom   16 type  1   force =     0.00002972    0.00003133    0.00002586
     atom   17 type  1   force =     0.00005360   -0.00002473    0.00001350
     atom   18 type  2   force =    -0.00000736   -0.00002624   -0.00000595
     atom   19 type  3   force =     0.00002223   -0.00000544    0.00001455
     atom   20 type  1   force =     0.00017894    0.00006751    0.00007101
     atom   21 type  3   force =    -0.00001563    0.00000968   -0.00001294
     atom   22 type  1   force =     0.00008095    0.00006318    0.00002108
     atom   23 type  1   force =     0.00008597   -0.00005016    0.00006605
     atom   24 type  2   force =     0.00004562   -0.00007078    0.00002541

     Total force =     0.129724     Total SCF correction =     0.000489

     Writing output data file scf-1293.save
 writing file ./scratch/scf-1293.save/charge-density
 writing file ./scratch/scf-1293.save/charge-density
 writing file ./scratch/scf-1293.save/charge-density
 writing file ./scratch/scf-1293.save/charge-density
 writing file ./scratch/scf-1293.save/charge-density
 writing file ./scratch/scf-1293.save/charge-density
 writing file ./scratch/scf-1293.save/charge-density
 writing file ./scratch/scf-1293.save/charge-density
 writing file ./scratch/scf-1293.save/charge-density
 writing file ./scratch/scf-1293.save/charge-density
 writing file ./scratch/scf-1293.save/charge-density
 writing file ./scratch/scf-1293.save/charge-density
 writing file ./scratch/scf-1293.save/charge-density
 writing file ./scratch/scf-1293.save/charge-density
 writing file ./scratch/scf-1293.save/charge-density
 writing file ./scratch/scf-1293.save/charge-density
 writing file ./scratch/scf-1293.save/charge-density
 writing file ./scratch/scf-1293.save/charge-density
 writing file ./scratch/scf-1293.save/charge-density
 writing file ./scratch/scf-1293.save/charge-density
 writing file ./scratch/scf-1293.save/charge-density
 writing file ./scratch/scf-1293.save/charge-density
 writing file ./scratch/scf-1293.save/charge-density
 writing file ./scratch/scf-1293.save/charge-density
 writing file ./scratch/scf-1293.save/charge-density
 writing file ./scratch/scf-1293.save/charge-density
 writing file ./scratch/scf-1293.save/charge-density
 writing file ./scratch/scf-1293.save/charge-density
 writing file ./scratch/scf-1293.save/charge-density
 writing file ./scratch/scf-1293.save/charge-density
 writing file ./scratch/scf-1293.save/charge-density
 writing file ./scratch/scf-1293.save/charge-density
 
     init_run     :      4.39s CPU      4.60s WALL (       1 calls)
     electrons    :     50.26s CPU     53.04s WALL (       1 calls)
     forces       :      2.32s CPU      2.49s WALL (       1 calls)

     Called by init_run:
     wfcinit      :      1.61s CPU      1.62s WALL (       1 calls)
     wfcinit:atom :      0.02s CPU      0.02s WALL (      16 calls)
     wfcinit:wfcr :      1.49s CPU      1.50s WALL (      16 calls)
     potinit      :      0.90s CPU      0.92s WALL (       1 calls)

     Called by electrons:
     c_bands      :     39.24s CPU     39.53s WALL (      11 calls)
     sum_band     :      6.88s CPU      8.04s WALL (      11 calls)
     v_of_rho     :      0.93s CPU      0.97s WALL (      12 calls)
     v_h          :      0.06s CPU      0.06s WALL (      12 calls)
     v_xc         :      0.94s CPU      0.98s WALL (      13 calls)
     newd         :      1.52s CPU      2.86s WALL (      12 calls)
     PAW_pot      :      1.68s CPU      1.70s WALL (      12 calls)
     mix_rho      :      0.14s CPU      0.14s WALL (      11 calls)

     Called by c_bands:
     init_us_2    :      0.88s CPU      0.86s WALL (     384 calls)
     cegterg      :     36.93s CPU     37.11s WALL (     176 calls)

     Called by sum_band:
     sum_band:bec :      0.01s CPU      0.02s WALL (     176 calls)
     addusdens    :      1.55s CPU      2.67s WALL (      11 calls)

     Called by *egterg:
     h_psi        :     27.55s CPU     27.64s WALL (     864 calls)
     s_psi        :      1.92s CPU      2.05s WALL (     864 calls)
     g_psi        :      0.11s CPU      0.16s WALL (     672 calls)
     cdiaghg      :      3.46s CPU      3.47s WALL (     848 calls)
     cegterg:over :      1.69s CPU      1.64s WALL (     672 calls)
     cegterg:upda :      1.34s CPU      1.29s WALL (     672 calls)
     cegterg:last :      0.42s CPU      0.44s WALL (     192 calls)

     Called by h_psi:
     h_psi:pot    :     27.21s CPU     27.36s WALL (     864 calls)
     h_psi:calbec :      2.40s CPU      2.26s WALL (     864 calls)
     vloc_psi     :     22.93s CPU     23.09s WALL (     864 calls)
     add_vuspsi   :      1.88s CPU      2.00s WALL (     864 calls)

     General routines
     calbec       :      3.16s CPU      3.01s WALL (    1104 calls)
     fft          :      0.78s CPU      0.78s WALL (     199 calls)
     ffts         :      0.02s CPU      0.03s WALL (      23 calls)
     fftw         :     21.10s CPU     21.43s WALL (   55702 calls)
     interpolate  :      0.12s CPU      0.15s WALL (      23 calls)
     davcio       :      0.00s CPU      0.01s WALL (      16 calls)
 
     Parallel routines
     fft_scatter  :      7.42s CPU      7.59s WALL (   55924 calls)

     PAW routines
     PAW_pot      :      1.68s CPU      1.70s WALL (      12 calls)
 
     PWSCF        :  0m57.65s CPU     1m 1.99s WALL

 
   This run was terminated on:  13:11:37  22May2017            

=------------------------------------------------------------------------------=
   JOB DONE.
=------------------------------------------------------------------------------=
