
     Program PWSCF v.6.1 starts on 20May2017 at 15:42:34 

     This program is part of the open-source Quantum ESPRESSO suite
     for quantum simulation of materials; please cite
         "P. Giannozzi et al., J. Phys.:Condens. Matter 21 395502 (2009);
          URL http://www.quantum-espresso.org", 
     in publications or presentations arising from this work. More details at
     http://www.quantum-espresso.org/quote

     Parallel version (MPI & OpenMP), running on      32 processor cores
     Number of MPI processes:                32
     Threads/MPI process:                     1
     R & G space division:  proc/nbgrp/npool/nimage =      32
     Waiting for input...
     Reading input from standard input
Warning: card &IONS ignored
Warning: card     ION_TEMPERATURE   = 'INITIAL' ignored
Warning: card     TEMPW             = 586.D0 ignored
Warning: card     TOLP              = 100.D0 ignored
Warning: card     DELTA_T           = 1.D0 ignored
Warning: card     NRAISE            = 1 ignored
Warning: card / ignored
Warning: card &CELL ignored
Warning: card     CELL_DYNAMICS     = 'BFGS' ignored
Warning: card / ignored

     Current dimensions of program PWSCF are:
     Max number of different atomic species (ntypx) = 10
     Max number of k-points (npk) =  40000
     Max angular momentum in pseudopotentials (lmaxx) =  3
               file C.pbe-n-kjpaw_psl.1.0.0.UPF: wavefunction(s)  2S 2P renormalized
               file Cl.pbe-n-kjpaw_psl.1.0.0.UPF: wavefunction(s)  3S 3P renormalized
               file H.pbe-kjpaw_psl.1.0.0.UPF: wavefunction(s)  1S renormalized

     Subspace diagonalization in iterative solution of the eigenvalue problem:
     a serial algorithm will be used

 
     Parallelization info
     --------------------
     sticks:   dense  smooth     PW     G-vecs:    dense   smooth      PW
     Min         764     305     83                36108     9133    1292
     Max         765     306     84                36110     9135    1293
     Sum       24467    9791   2657              1155489   292295   41363
 


     bravais-lattice index     =            0
     lattice parameter (alat)  =       1.8897  a.u.
     unit-cell volume          =    2163.5316 (a.u.)^3
     number of atoms/cell      =           24
     number of atomic types    =            3
     number of electrons       =        84.00
     number of Kohn-Sham states=           42
     kinetic-energy cutoff     =     100.0000  Ry
     charge density cutoff     =    1000.0000  Ry
     convergence threshold     =      1.0E-07
     mixing beta               =       0.7000
     number of iterations used =            8  plain     mixing
     Exchange-correlation      =  SLA  PW   PBX  PBC ( 1  4  3  4 0 0)

     celldm(1)=   1.889726  celldm(2)=   0.000000  celldm(3)=   0.000000
     celldm(4)=   0.000000  celldm(5)=   0.000000  celldm(6)=   0.000000

     crystal axes: (cart. coord. in units of alat)
               a(1) = (  14.762000   0.000000   0.000000 )  
               a(2) = (   0.000000   5.832000   0.000000 )  
               a(3) = (  -1.563876   0.000000   3.723951 )  

     reciprocal axes: (cart. coord. in units 2 pi/alat)
               b(1) = (  0.067741  0.000000  0.028448 )  
               b(2) = (  0.000000  0.171468  0.000000 )  
               b(3) = (  0.000000  0.000000  0.268532 )  


     PseudoPot. # 1 for  C read from file:
     /global/cscratch1/sd/almno10/.data/PSEUDOPOTENTIALS/C.pbe-n-kjpaw_psl.1.0.0.UPF
     MD5 check sum: 2ba8448e293caca687844dde9a1b88a8
     Pseudo is Projector augmented-wave + core cor, Zval =  4.0
     Generated using "atomic" code by A. Dal Corso  v.5.3.0 svn rev. 11974
     Shape of augmentation charge: PSQ
     Using radial grid of 1073 points,  4 beta functions with: 
                l(1) =   0
                l(2) =   0
                l(3) =   1
                l(4) =   1
     Q(r) pseudized with 0 coefficients 


     PseudoPot. # 2 for Cl read from file:
     /global/cscratch1/sd/almno10/.data/PSEUDOPOTENTIALS/Cl.pbe-n-kjpaw_psl.1.0.0.UPF
     MD5 check sum: dca63699d6b897c5771335df08a09219
     Pseudo is Projector augmented-wave + core cor, Zval =  7.0
     Generated using "atomic" code by A. Dal Corso  v.5.3.0 svn rev. 11974
     Shape of augmentation charge: PSQ
     Using radial grid of 1157 points,  6 beta functions with: 
                l(1) =   0
                l(2) =   0
                l(3) =   1
                l(4) =   1
                l(5) =   2
                l(6) =   2
     Q(r) pseudized with 0 coefficients 


     PseudoPot. # 3 for  H read from file:
     /global/cscratch1/sd/almno10/.data/PSEUDOPOTENTIALS/H.pbe-kjpaw_psl.1.0.0.UPF
     MD5 check sum: bc0feb48a24907a0b97fa6ee2d589a29
     Pseudo is Projector augmented-wave, Zval =  1.0
     Generated using "atomic" code by A. Dal Corso  v.5.3.0 svn rev. 11974
     Shape of augmentation charge: PSQ
     Using radial grid of  929 points,  2 beta functions with: 
                l(1) =   0
                l(2) =   0
     Q(r) pseudized with 0 coefficients 


     atomic species   valence    mass     pseudopotential
        C              4.00    12.01100      C( 1.00)
        Cl             7.00    35.45270     Cl( 1.00)
        H              1.00     1.00790      H( 1.00)

     No symmetry found


                                    s                        frac. trans.

      isym =  1     identity                                     

 cryst.   s( 1) = (     1          0          0      )
                  (     0          1          0      )
                  (     0          0          1      )

 cart.    s( 1) = (  1.0000000  0.0000000 -0.0000000 )
                  (  0.0000000  1.0000000  0.0000000 )
                  (  0.0000000  0.0000000  1.0000000 )


   Cartesian axes

     site n.     atom                  positions (alat units)
         1           Cl  tau(   1) = (  16.4038582   0.8100619   2.0138925  )
         2           C   tau(   2) = (  15.0621615   1.9677564   1.9445707  )
         3           C   tau(   3) = (  15.1107445   3.1215745   2.7264397  )
         4           H   tau(   4) = (  15.9749648   3.3595137   3.3450233  )
         5           C   tau(   5) = (  14.0509393   4.0222158   2.6334445  )
         6           H   tau(   6) = (  14.0561746   4.9293509   3.2348805  )
         7           H   tau(   7) = (   6.3518304   2.0823493   0.2820366  )
         8           C   tau(   8) = (   6.4861372   1.2112729   0.9199972  )
         9           H   tau(   9) = (   4.5560546   0.3771353   0.4422153  )
        10           C   tau(  10) = (   5.4639637   0.2694113   1.0336527  )
        11           C   tau(  11) = (   5.6058453  -0.8614280   1.8363405  )
        12           Cl  tau(  12) = (   4.1223750  -1.8390876   2.0547485  )
        13           H   tau(  13) = (  13.9414414   0.7673009   0.5556825  )
        14           C   tau(  14) = (  13.9725257   1.6999743   1.1163997  )
        15           H   tau(  15) = (  12.0125034   2.3316578   0.4793444  )
        16           C   tau(  16) = (  12.8586925   2.5401390   1.1297212  )
        17           C   tau(  17) = (  12.9373130   3.7245723   1.8493464  )
        18           Cl  tau(  18) = (  11.5627401   4.7599660   1.7420095  )
        19           H   tau(  19) = (   6.9184827  -1.9816187   3.1703974  )
        20           C   tau(  20) = (   6.7617012  -1.0763853   2.5858629  )
        21           H   tau(  21) = (   8.7199638  -0.2806883   3.0034964  )
        22           C   tau(  22) = (   7.7994594  -0.1584929   2.4362551  )
        23           C   tau(  23) = (   7.6235672   1.0116840   1.6995089  )
        24           Cl  tau(  24) = (   8.9756547   2.1113367   1.7945472  )

   Crystallographic axes

     site n.     atom                  positions (cryst. coord.)
         1           Cl  tau(   1) = (  1.1685133  0.1388995  0.5407945  )
         2           C   tau(   2) = (  1.0756527  0.3374068  0.5221794  )
         3           C   tau(   3) = (  1.1011865  0.5352494  0.7321362  )
         4           H   tau(   4) = (  1.1773276  0.5760483  0.8982457  )
         5           C   tau(   5) = (  1.0267481  0.6896804  0.7071640  )
         6           H   tau(   6) = (  1.0442125  0.8452248  0.8686688  )
         7           H   tau(   7) = (  0.4383059  0.3570558  0.0757358  )
         8           C   tau(   8) = (  0.4655528  0.2076943  0.2470487  )
         9           H   tau(   9) = (  0.3212141  0.0646665  0.1187490  )
        10           C   tau(  10) = (  0.3995425  0.0461954  0.2775688  )
        11           C   tau(  11) = (  0.4319887 -0.1477071  0.4931161  )
        12           Cl  tau(  12) = (  0.3377095 -0.3153442  0.5517657  )
        13           H   tau(  13) = (  0.9602222  0.1315674  0.1492185  )
        14           C   tau(  14) = (  0.9782793  0.2914908  0.2997890  )
        15           H   tau(  15) = (  0.8273814  0.3998042  0.1287193  )
        16           C   tau(  16) = (  0.9032055  0.4355520  0.3033663  )
        17           C   tau(  17) = (  0.9290033  0.6386441  0.4966086  )
        18           Cl  tau(  18) = (  0.8328342  0.8161807  0.4677852  )
        19           H   tau(  19) = (  0.5588601 -0.3397837  0.8513531  )
        20           C   tau(  20) = (  0.5316106 -0.1845654  0.6943869  )
        21           H   tau(  21) = (  0.6761471 -0.0481290  0.8065348  )
        22           C   tau(  22) = (  0.5976539 -0.0271764  0.6542124  )
        23           C   tau(  23) = (  0.5647796  0.1734712  0.4563725  )
        24           Cl  tau(  24) = (  0.6590757  0.3620262  0.4818933  )

     number of k points=    16
                       cart. coord. in units 2pi/alat
        k(    1) = (   0.0169354   0.0214335   0.0406785), wk =   0.1250000
        k(    2) = (   0.0169354   0.0214335   0.1078115), wk =   0.1250000
        k(    3) = (   0.0169354   0.0214335  -0.0935875), wk =   0.1250000
        k(    4) = (   0.0169354   0.0214335  -0.0264545), wk =   0.1250000
        k(    5) = (   0.0169354   0.0643004   0.0406785), wk =   0.1250000
        k(    6) = (   0.0169354   0.0643004   0.1078115), wk =   0.1250000
        k(    7) = (   0.0169354   0.0643004  -0.0935875), wk =   0.1250000
        k(    8) = (   0.0169354   0.0643004  -0.0264545), wk =   0.1250000
        k(    9) = (  -0.0169354   0.0214335  -0.0406785), wk =   0.1250000
        k(   10) = (  -0.0169354   0.0214335  -0.1078115), wk =   0.1250000
        k(   11) = (  -0.0169354   0.0214335   0.0935875), wk =   0.1250000
        k(   12) = (  -0.0169354   0.0214335   0.0264545), wk =   0.1250000
        k(   13) = (  -0.0169354   0.0643004  -0.0406785), wk =   0.1250000
        k(   14) = (  -0.0169354   0.0643004  -0.1078115), wk =   0.1250000
        k(   15) = (  -0.0169354   0.0643004   0.0935875), wk =   0.1250000
        k(   16) = (  -0.0169354   0.0643004   0.0264545), wk =   0.1250000

                       cryst. coord.
        k(    1) = (   0.2500000   0.1250000   0.1250000), wk =   0.1250000
        k(    2) = (   0.2500000   0.1250000   0.3750000), wk =   0.1250000
        k(    3) = (   0.2500000   0.1250000  -0.3750000), wk =   0.1250000
        k(    4) = (   0.2500000   0.1250000  -0.1250000), wk =   0.1250000
        k(    5) = (   0.2500000   0.3750000   0.1250000), wk =   0.1250000
        k(    6) = (   0.2500000   0.3750000   0.3750000), wk =   0.1250000
        k(    7) = (   0.2500000   0.3750000  -0.3750000), wk =   0.1250000
        k(    8) = (   0.2500000   0.3750000  -0.1250000), wk =   0.1250000
        k(    9) = (  -0.2500000   0.1250000  -0.1250000), wk =   0.1250000
        k(   10) = (  -0.2500000   0.1250000  -0.3750000), wk =   0.1250000
        k(   11) = (  -0.2500000   0.1250000   0.3750000), wk =   0.1250000
        k(   12) = (  -0.2500000   0.1250000   0.1250000), wk =   0.1250000
        k(   13) = (  -0.2500000   0.3750000  -0.1250000), wk =   0.1250000
        k(   14) = (  -0.2500000   0.3750000  -0.3750000), wk =   0.1250000
        k(   15) = (  -0.2500000   0.3750000   0.3750000), wk =   0.1250000
        k(   16) = (  -0.2500000   0.3750000   0.1250000), wk =   0.1250000

     Dense  grid:  1155489 G-vectors     FFT dimensions: ( 288, 120,  80)

     Smooth grid:   292295 G-vectors     FFT dimensions: ( 180,  72,  50)

     Estimated max dynamical RAM per process >     147.21MB

     Estimated total allocated dynamical RAM >    4710.62MB

     Initial potential from superposition of free atoms

     starting charge   83.99939, renormalised to   84.00000
     Starting wfc are   72 randomized atomic wfcs
     Checking if some PAW data can be deallocated... 
       node    0, deallocated PAW data for type:  1
       node    0, deallocated PAW data for type:  3
       node    1, deallocated PAW data for type:  1
       node    1, deallocated PAW data for type:  3
       node    2, deallocated PAW data for type:  2
       node    2, deallocated PAW data for type:  3
       node    3, deallocated PAW data for type:  2
       node    3, deallocated PAW data for type:  3
       node    4, deallocated PAW data for type:  2
       node    4, deallocated PAW data for type:  3
       node    5, deallocated PAW data for type:  2
       node    5, deallocated PAW data for type:  3
       node    6, deallocated PAW data for type:  1
       node    6, deallocated PAW data for type:  2
       node    7, deallocated PAW data for type:  1
       node    7, deallocated PAW data for type:  2
       node    8, deallocated PAW data for type:  2
       node    8, deallocated PAW data for type:  3
       node    9, deallocated PAW data for type:  2
       node    9, deallocated PAW data for type:  3
       node   10, deallocated PAW data for type:  1
       node   10, deallocated PAW data for type:  2
       node   11, deallocated PAW data for type:  1
       node   11, deallocated PAW data for type:  2
       node   12, deallocated PAW data for type:  1
       node   12, deallocated PAW data for type:  2
       node   13, deallocated PAW data for type:  1
       node   13, deallocated PAW data for type:  2
       node   14, deallocated PAW data for type:  2
       node   14, deallocated PAW data for type:  3
       node   15, deallocated PAW data for type:  2
       node   15, deallocated PAW data for type:  3
       node   16, deallocated PAW data for type:  1
       node   16, deallocated PAW data for type:  2
       node   17, deallocated PAW data for type:  2
       node   17, deallocated PAW data for type:  3
       node   18, deallocated PAW data for type:  2
       node   18, deallocated PAW data for type:  3
       node   19, deallocated PAW data for type:  1
       node   19, deallocated PAW data for type:  3
       node   20, deallocated PAW data for type:  1
       node   20, deallocated PAW data for type:  2
       node   21, deallocated PAW data for type:  2
       node   21, deallocated PAW data for type:  3
       node   22, deallocated PAW data for type:  1
       node   22, deallocated PAW data for type:  2
       node   23, deallocated PAW data for type:  2
       node   23, deallocated PAW data for type:  3
       node   24, deallocated PAW data for type:  2
       node   24, deallocated PAW data for type:  3
       node   25, deallocated PAW data for type:  1
       node   25, deallocated PAW data for type:  3
       node   26, deallocated PAW data for type:  1
       node   26, deallocated PAW data for type:  2
       node   27, deallocated PAW data for type:  2
       node   27, deallocated PAW data for type:  3
       node   28, deallocated PAW data for type:  1
       node   28, deallocated PAW data for type:  2
       node   29, deallocated PAW data for type:  2
       node   29, deallocated PAW data for type:  3
       node   30, deallocated PAW data for type:  2
       node   30, deallocated PAW data for type:  3
       node   31, deallocated PAW data for type:  1
       node   31, deallocated PAW data for type:  3

     total cpu time spent up to now is        5.2 secs

     per-process dynamical memory:    20.7 Mb

     Self-consistent Calculation

     iteration #  1     ecut=   100.00 Ry     beta= 0.70
     Davidson diagonalization with overlap
     ethr =  1.00E-04,  avg # of iterations =  5.0

     total cpu time spent up to now is       12.0 secs

     total energy              =    -547.12967870 Ry
     Harris-Foulkes estimate   =    -549.00233493 Ry
     estimated scf accuracy    <       2.73702577 Ry

     iteration #  2     ecut=   100.00 Ry     beta= 0.70
     Davidson diagonalization with overlap
     ethr =  3.26E-03,  avg # of iterations =  3.0

     total cpu time spent up to now is       16.8 secs

     total energy              =    -547.52929922 Ry
     Harris-Foulkes estimate   =    -548.62258478 Ry
     estimated scf accuracy    <       1.97837720 Ry

     iteration #  3     ecut=   100.00 Ry     beta= 0.70
     Davidson diagonalization with overlap
     ethr =  2.36E-03,  avg # of iterations =  3.0

     total cpu time spent up to now is       21.2 secs

     total energy              =    -548.02146103 Ry
     Harris-Foulkes estimate   =    -548.06291334 Ry
     estimated scf accuracy    <       0.08353913 Ry

     iteration #  4     ecut=   100.00 Ry     beta= 0.70
     Davidson diagonalization with overlap
     ethr =  9.95E-05,  avg # of iterations =  3.9

     total cpu time spent up to now is       26.0 secs

     total energy              =    -548.04829414 Ry
     Harris-Foulkes estimate   =    -548.05877894 Ry
     estimated scf accuracy    <       0.02081340 Ry

     iteration #  5     ecut=   100.00 Ry     beta= 0.70
     Davidson diagonalization with overlap
     ethr =  2.48E-05,  avg # of iterations =  3.0

     total cpu time spent up to now is       30.4 secs

     total energy              =    -548.05260698 Ry
     Harris-Foulkes estimate   =    -548.05297351 Ry
     estimated scf accuracy    <       0.00080688 Ry

     iteration #  6     ecut=   100.00 Ry     beta= 0.70
     Davidson diagonalization with overlap
     ethr =  9.61E-07,  avg # of iterations =  4.0

     total cpu time spent up to now is       35.3 secs

     total energy              =    -548.05281479 Ry
     Harris-Foulkes estimate   =    -548.05294634 Ry
     estimated scf accuracy    <       0.00025286 Ry

     iteration #  7     ecut=   100.00 Ry     beta= 0.70
     Davidson diagonalization with overlap
     ethr =  3.01E-07,  avg # of iterations =  4.0

     total cpu time spent up to now is       39.9 secs

     total energy              =    -548.05286889 Ry
     Harris-Foulkes estimate   =    -548.05293433 Ry
     estimated scf accuracy    <       0.00018087 Ry

     iteration #  8     ecut=   100.00 Ry     beta= 0.70
     Davidson diagonalization with overlap
     ethr =  2.15E-07,  avg # of iterations =  4.0

     total cpu time spent up to now is       44.1 secs

     total energy              =    -548.05290213 Ry
     Harris-Foulkes estimate   =    -548.05290525 Ry
     estimated scf accuracy    <       0.00000804 Ry

     iteration #  9     ecut=   100.00 Ry     beta= 0.70
     Davidson diagonalization with overlap
     ethr =  9.57E-09,  avg # of iterations =  4.0

     total cpu time spent up to now is       48.7 secs

     total energy              =    -548.05290400 Ry
     Harris-Foulkes estimate   =    -548.05290461 Ry
     estimated scf accuracy    <       0.00000135 Ry

     iteration # 10     ecut=   100.00 Ry     beta= 0.70
     Davidson diagonalization with overlap
     ethr =  1.60E-09,  avg # of iterations =  4.0

     total cpu time spent up to now is       53.3 secs

     total energy              =    -548.05290432 Ry
     Harris-Foulkes estimate   =    -548.05290438 Ry
     estimated scf accuracy    <       0.00000013 Ry

     iteration # 11     ecut=   100.00 Ry     beta= 0.70
     Davidson diagonalization with overlap
     ethr =  1.54E-10,  avg # of iterations =  4.0

     total cpu time spent up to now is       58.1 secs

     End of self-consistent calculation

          k = 0.0169 0.0214 0.0407 ( 36525 PWs)   bands (ev):

   -16.0967 -15.9923 -15.3687 -15.2377 -13.9582 -13.8764 -12.3453 -12.3092
   -11.2822 -11.2436  -8.9775  -8.9347  -8.2154  -8.1545  -6.3503  -6.2273
    -5.3239  -5.2697  -5.0232  -4.7992  -4.2081  -4.1675  -4.0547  -3.8559
    -3.2277  -3.1268  -2.6823  -2.5631  -2.4120  -2.2371  -2.2162  -2.1259
    -1.2434  -1.1544  -1.0315  -0.9752  -0.9086  -0.7943  -0.0662   0.0036
     0.5953   0.7265

     occupation numbers 
     1.0000   1.0000   1.0000   1.0000   1.0000   1.0000   1.0000   1.0000
     1.0000   1.0000   1.0000   1.0000   1.0000   1.0000   1.0000   1.0000
     1.0000   1.0000   1.0000   1.0000   1.0000   1.0000   1.0000   1.0000
     1.0000   1.0000   1.0000   1.0000   1.0000   1.0000   1.0000   1.0000
     1.0000   1.0000   1.0000   1.0000   1.0000   1.0000   1.0000   1.0000
     1.0000   1.0000

          k = 0.0169 0.0214 0.1078 ( 36561 PWs)   bands (ev):

   -16.0206 -15.9025 -15.3198 -15.1830 -13.9367 -13.8608 -12.3499 -12.3035
   -11.2840 -11.2315  -8.9472  -8.9013  -8.2002  -8.1228  -6.3855  -6.2498
    -5.3334  -5.2656  -5.0441  -4.8996  -4.3070  -4.2239  -4.1161  -3.9380
    -3.7713  -3.6785  -2.8034  -2.7368  -2.5633  -2.4486  -2.3529  -2.2416
    -1.3497  -1.2096  -1.1471  -1.0378  -0.9208  -0.7920  -0.1711  -0.1473
     0.6122   0.7538

     occupation numbers 
     1.0000   1.0000   1.0000   1.0000   1.0000   1.0000   1.0000   1.0000
     1.0000   1.0000   1.0000   1.0000   1.0000   1.0000   1.0000   1.0000
     1.0000   1.0000   1.0000   1.0000   1.0000   1.0000   1.0000   1.0000
     1.0000   1.0000   1.0000   1.0000   1.0000   1.0000   1.0000   1.0000
     1.0000   1.0000   1.0000   1.0000   1.0000   1.0000   1.0000   1.0000
     1.0000   1.0000

          k = 0.0169 0.0214-0.0936 ( 36547 PWs)   bands (ev):

   -16.0245 -15.8956 -15.3202 -15.1854 -13.9269 -13.8764 -12.3419 -12.3084
   -11.2696 -11.2397  -8.9732  -8.8674  -8.2086  -8.1105  -6.3436  -6.3280
    -5.3388  -5.2567  -5.0549  -4.9067  -4.2534  -4.1809  -4.1363  -4.0029
    -3.7352  -3.7052  -2.7246  -2.6684  -2.6030  -2.4558  -2.4156  -2.3423
    -1.3065  -1.2217  -1.1280  -1.0472  -0.8882  -0.7877  -0.1840  -0.1134
     0.6216   0.7420

     occupation numbers 
     1.0000   1.0000   1.0000   1.0000   1.0000   1.0000   1.0000   1.0000
     1.0000   1.0000   1.0000   1.0000   1.0000   1.0000   1.0000   1.0000
     1.0000   1.0000   1.0000   1.0000   1.0000   1.0000   1.0000   1.0000
     1.0000   1.0000   1.0000   1.0000   1.0000   1.0000   1.0000   1.0000
     1.0000   1.0000   1.0000   1.0000   1.0000   1.0000   1.0000   1.0000
     1.0000   1.0000

          k = 0.0169 0.0214-0.0265 ( 36551 PWs)   bands (ev):

   -16.1016 -15.9842 -15.3717 -15.2378 -13.9511 -13.8885 -12.3385 -12.3145
   -11.2887 -11.2294  -9.0071  -8.9029  -8.2663  -8.0871  -6.4047  -6.2026
    -5.3378  -5.2549  -5.1241  -4.7178  -4.2787  -4.1743  -3.9114  -3.8228
    -3.2225  -3.1532  -2.7952  -2.5462  -2.3680  -2.2891  -2.2357  -2.1297
    -1.1798  -1.1408  -1.0616  -0.9761  -0.9234  -0.7539  -0.0867   0.0467
     0.6021   0.7222

     occupation numbers 
     1.0000   1.0000   1.0000   1.0000   1.0000   1.0000   1.0000   1.0000
     1.0000   1.0000   1.0000   1.0000   1.0000   1.0000   1.0000   1.0000
     1.0000   1.0000   1.0000   1.0000   1.0000   1.0000   1.0000   1.0000
     1.0000   1.0000   1.0000   1.0000   1.0000   1.0000   1.0000   1.0000
     1.0000   1.0000   1.0000   1.0000   1.0000   1.0000   1.0000   1.0000
     1.0000   1.0000

          k = 0.0169 0.0643 0.0407 ( 36518 PWs)   bands (ev):

   -16.0662 -15.9590 -15.3755 -15.2552 -13.9968 -13.9199 -12.3818 -12.3372
   -11.2833 -11.2361  -8.8996  -8.8551  -8.1360  -8.0829  -6.3685  -6.2744
    -5.3053  -5.2265  -5.0541  -4.9150  -4.3506  -4.2458  -4.0982  -3.8562
    -3.3073  -3.2088  -2.6713  -2.5998  -2.4425  -2.3359  -2.1263  -2.0460
    -1.0870  -0.9432  -0.9265  -0.8719  -0.8547  -0.8259  -0.0326   0.0044
     0.6664   0.7381

     occupation numbers 
     1.0000   1.0000   1.0000   1.0000   1.0000   1.0000   1.0000   1.0000
     1.0000   1.0000   1.0000   1.0000   1.0000   1.0000   1.0000   1.0000
     1.0000   1.0000   1.0000   1.0000   1.0000   1.0000   1.0000   1.0000
     1.0000   1.0000   1.0000   1.0000   1.0000   1.0000   1.0000   1.0000
     1.0000   1.0000   1.0000   1.0000   1.0000   1.0000   1.0000   1.0000
     1.0000   1.0000

          k = 0.0169 0.0643 0.1078 ( 36558 PWs)   bands (ev):

   -15.9994 -15.8826 -15.3232 -15.1894 -13.9574 -13.8867 -12.3651 -12.3147
   -11.2868 -11.2544  -8.9220  -8.8939  -8.1631  -8.1348  -6.3729  -6.2517
    -5.3200  -5.2622  -4.9516  -4.7840  -4.3128  -4.1900  -4.0925  -3.9772
    -3.9067  -3.8789  -2.7351  -2.6648  -2.6228  -2.4534  -2.4174  -2.2329
    -1.3020  -1.1619  -1.0933  -0.9984  -0.9330  -0.8615  -0.0259  -0.0031
     0.6072   0.7424

     occupation numbers 
     1.0000   1.0000   1.0000   1.0000   1.0000   1.0000   1.0000   1.0000
     1.0000   1.0000   1.0000   1.0000   1.0000   1.0000   1.0000   1.0000
     1.0000   1.0000   1.0000   1.0000   1.0000   1.0000   1.0000   1.0000
     1.0000   1.0000   1.0000   1.0000   1.0000   1.0000   1.0000   1.0000
     1.0000   1.0000   1.0000   1.0000   1.0000   1.0000   1.0000   1.0000
     1.0000   1.0000

          k = 0.0169 0.0643-0.0936 ( 36547 PWs)   bands (ev):

   -16.0032 -15.8759 -15.3217 -15.1936 -13.9515 -13.8980 -12.3576 -12.3200
   -11.2822 -11.2524  -8.9494  -8.8575  -8.1823  -8.1141  -6.3597  -6.2966
    -5.3283  -5.2562  -4.9080  -4.8575  -4.2857  -4.2205  -4.0481  -4.0003
    -3.8803  -3.8296  -2.7647  -2.6914  -2.6381  -2.5746  -2.3052  -2.2528
    -1.2331  -1.1699  -1.0803  -1.0303  -0.9181  -0.8660  -0.0333   0.0205
     0.6178   0.7383

     occupation numbers 
     1.0000   1.0000   1.0000   1.0000   1.0000   1.0000   1.0000   1.0000
     1.0000   1.0000   1.0000   1.0000   1.0000   1.0000   1.0000   1.0000
     1.0000   1.0000   1.0000   1.0000   1.0000   1.0000   1.0000   1.0000
     1.0000   1.0000   1.0000   1.0000   1.0000   1.0000   1.0000   1.0000
     1.0000   1.0000   1.0000   1.0000   1.0000   1.0000   1.0000   1.0000
     1.0000   1.0000

          k = 0.0169 0.0643-0.0265 ( 36489 PWs)   bands (ev):

   -16.0699 -15.9525 -15.3746 -15.2585 -13.9917 -13.9302 -12.3738 -12.3415
   -11.2872 -11.2286  -8.9243  -8.8207  -8.1526  -8.0543  -6.3984  -6.3146
    -5.3004  -5.2324  -5.0227  -4.8865  -4.3074  -4.2013  -4.1277  -3.9574
    -3.2806  -3.2340  -2.6562  -2.5294  -2.4379  -2.3929  -2.1625  -2.0677
    -1.0706  -1.0070  -0.9174  -0.8778  -0.8286  -0.7569  -0.0470   0.0491
     0.6643   0.7361

     occupation numbers 
     1.0000   1.0000   1.0000   1.0000   1.0000   1.0000   1.0000   1.0000
     1.0000   1.0000   1.0000   1.0000   1.0000   1.0000   1.0000   1.0000
     1.0000   1.0000   1.0000   1.0000   1.0000   1.0000   1.0000   1.0000
     1.0000   1.0000   1.0000   1.0000   1.0000   1.0000   1.0000   1.0000
     1.0000   1.0000   1.0000   1.0000   1.0000   1.0000   1.0000   1.0000
     1.0000   1.0000

          k =-0.0169 0.0214-0.0407 ( 36525 PWs)   bands (ev):

   -16.0996 -15.9872 -15.3669 -15.2413 -13.9538 -13.8863 -12.3382 -12.3133
   -11.2865 -11.2339  -9.0063  -8.8991  -8.2236  -8.1407  -6.3454  -6.2672
    -5.3367  -5.2490  -4.9961  -4.8584  -4.2390  -4.1406  -3.9568  -3.8908
    -3.1960  -3.1591  -2.7048  -2.5578  -2.3646  -2.3399  -2.2111  -2.1291
    -1.2434  -1.1398  -1.0279  -0.9702  -0.8906  -0.7841  -0.0847   0.0476
     0.5921   0.7293

     occupation numbers 
     1.0000   1.0000   1.0000   1.0000   1.0000   1.0000   1.0000   1.0000
     1.0000   1.0000   1.0000   1.0000   1.0000   1.0000   1.0000   1.0000
     1.0000   1.0000   1.0000   1.0000   1.0000   1.0000   1.0000   1.0000
     1.0000   1.0000   1.0000   1.0000   1.0000   1.0000   1.0000   1.0000
     1.0000   1.0000   1.0000   1.0000   1.0000   1.0000   1.0000   1.0000
     1.0000   1.0000

          k =-0.0169 0.0214-0.1078 ( 36561 PWs)   bands (ev):

   -16.0241 -15.8963 -15.3181 -15.1872 -13.9332 -13.8698 -12.3423 -12.3083
   -11.2831 -11.2261  -8.9741  -8.8673  -8.2168  -8.1004  -6.3946  -6.2735
    -5.3406  -5.2560  -5.0261  -4.9576  -4.2741  -4.2133  -4.1055  -3.9207
    -3.7522  -3.6974  -2.7987  -2.7411  -2.5869  -2.4444  -2.3372  -2.3080
    -1.3648  -1.2091  -1.1474  -0.9986  -0.9141  -0.7686  -0.1882  -0.1130
     0.6178   0.7479

     occupation numbers 
     1.0000   1.0000   1.0000   1.0000   1.0000   1.0000   1.0000   1.0000
     1.0000   1.0000   1.0000   1.0000   1.0000   1.0000   1.0000   1.0000
     1.0000   1.0000   1.0000   1.0000   1.0000   1.0000   1.0000   1.0000
     1.0000   1.0000   1.0000   1.0000   1.0000   1.0000   1.0000   1.0000
     1.0000   1.0000   1.0000   1.0000   1.0000   1.0000   1.0000   1.0000
     1.0000   1.0000

          k =-0.0169 0.0214 0.0936 ( 36547 PWs)   bands (ev):

   -16.0211 -15.9015 -15.3223 -15.1810 -13.9310 -13.8668 -12.3493 -12.3042
   -11.2682 -11.2470  -8.9449  -8.9036  -8.1929  -8.1317  -6.3553  -6.2801
    -5.3336  -5.2625  -5.0695  -4.8616  -4.2410  -4.2269  -4.1871  -3.9874
    -3.7451  -3.6896  -2.7148  -2.6626  -2.6053  -2.4782  -2.3942  -2.2890
    -1.2991  -1.2264  -1.1445  -1.0382  -0.9180  -0.8052  -0.1673  -0.1479
     0.6146   0.7480

     occupation numbers 
     1.0000   1.0000   1.0000   1.0000   1.0000   1.0000   1.0000   1.0000
     1.0000   1.0000   1.0000   1.0000   1.0000   1.0000   1.0000   1.0000
     1.0000   1.0000   1.0000   1.0000   1.0000   1.0000   1.0000   1.0000
     1.0000   1.0000   1.0000   1.0000   1.0000   1.0000   1.0000   1.0000
     1.0000   1.0000   1.0000   1.0000   1.0000   1.0000   1.0000   1.0000
     1.0000   1.0000

          k =-0.0169 0.0214 0.0265 ( 36551 PWs)   bands (ev):

   -16.0987 -15.9894 -15.3729 -15.2346 -13.9567 -13.8775 -12.3465 -12.3093
   -11.2877 -11.2363  -8.9812  -8.9349  -8.2612  -8.0979  -6.4037  -6.1709
    -5.3280  -5.2689  -5.1270  -4.6755  -4.3005  -4.1552  -3.9846  -3.8238
    -3.2217  -3.1500  -2.7806  -2.5299  -2.3988  -2.2440  -2.2109  -2.1228
    -1.1930  -1.1410  -1.0648  -0.9933  -0.9182  -0.7789  -0.0662   0.0034
     0.6060   0.7174

     occupation numbers 
     1.0000   1.0000   1.0000   1.0000   1.0000   1.0000   1.0000   1.0000
     1.0000   1.0000   1.0000   1.0000   1.0000   1.0000   1.0000   1.0000
     1.0000   1.0000   1.0000   1.0000   1.0000   1.0000   1.0000   1.0000
     1.0000   1.0000   1.0000   1.0000   1.0000   1.0000   1.0000   1.0000
     1.0000   1.0000   1.0000   1.0000   1.0000   1.0000   1.0000   1.0000
     1.0000   1.0000

          k =-0.0169 0.0643-0.0407 ( 36518 PWs)   bands (ev):

   -16.0694 -15.9533 -15.3733 -15.2596 -13.9923 -13.9293 -12.3748 -12.3422
   -11.2875 -11.2257  -8.9265  -8.8214  -8.1406  -8.0721  -6.3701  -6.3078
    -5.3005  -5.2333  -5.0213  -4.9694  -4.3649  -4.1972  -4.0382  -3.8979
    -3.2723  -3.2383  -2.6984  -2.5831  -2.4452  -2.3953  -2.1072  -2.0600
    -1.0858  -0.9461  -0.9013  -0.8610  -0.8539  -0.8151  -0.0486   0.0481
     0.6671   0.7365

     occupation numbers 
     1.0000   1.0000   1.0000   1.0000   1.0000   1.0000   1.0000   1.0000
     1.0000   1.0000   1.0000   1.0000   1.0000   1.0000   1.0000   1.0000
     1.0000   1.0000   1.0000   1.0000   1.0000   1.0000   1.0000   1.0000
     1.0000   1.0000   1.0000   1.0000   1.0000   1.0000   1.0000   1.0000
     1.0000   1.0000   1.0000   1.0000   1.0000   1.0000   1.0000   1.0000
     1.0000   1.0000

          k =-0.0169 0.0643-0.1078 ( 36558 PWs)   bands (ev):

   -16.0031 -15.8760 -15.3212 -15.1941 -13.9523 -13.8971 -12.3574 -12.3199
   -11.2866 -11.2481  -8.9497  -8.8580  -8.1852  -8.1092  -6.3744  -6.2841
    -5.3257  -5.2485  -4.9167  -4.8593  -4.2781  -4.2312  -4.0479  -3.9327
    -3.9111  -3.8844  -2.7587  -2.6692  -2.6110  -2.4484  -2.4228  -2.2971
    -1.3060  -1.1632  -1.0453  -0.9899  -0.9502  -0.8342  -0.0337   0.0212
     0.6129   0.7372

     occupation numbers 
     1.0000   1.0000   1.0000   1.0000   1.0000   1.0000   1.0000   1.0000
     1.0000   1.0000   1.0000   1.0000   1.0000   1.0000   1.0000   1.0000
     1.0000   1.0000   1.0000   1.0000   1.0000   1.0000   1.0000   1.0000
     1.0000   1.0000   1.0000   1.0000   1.0000   1.0000   1.0000   1.0000
     1.0000   1.0000   1.0000   1.0000   1.0000   1.0000   1.0000   1.0000
     1.0000   1.0000

          k =-0.0169 0.0643 0.0936 ( 36547 PWs)   bands (ev):

   -15.9996 -15.8822 -15.3241 -15.1887 -13.9562 -13.8879 -12.3649 -12.3154
   -11.2822 -11.2583  -8.9210  -8.8944  -8.1715  -8.1284  -6.3669  -6.2513
    -5.3244  -5.2670  -4.9605  -4.7737  -4.2784  -4.2450  -4.0996  -4.0130
    -3.8764  -3.8146  -2.7426  -2.6929  -2.6226  -2.5878  -2.3233  -2.1806
    -1.2658  -1.1507  -1.1051  -1.0352  -0.9289  -0.8735  -0.0249  -0.0050
     0.6102   0.7437

     occupation numbers 
     1.0000   1.0000   1.0000   1.0000   1.0000   1.0000   1.0000   1.0000
     1.0000   1.0000   1.0000   1.0000   1.0000   1.0000   1.0000   1.0000
     1.0000   1.0000   1.0000   1.0000   1.0000   1.0000   1.0000   1.0000
     1.0000   1.0000   1.0000   1.0000   1.0000   1.0000   1.0000   1.0000
     1.0000   1.0000   1.0000   1.0000   1.0000   1.0000   1.0000   1.0000
     1.0000   1.0000

          k =-0.0169 0.0643 0.0265 ( 36489 PWs)   bands (ev):

   -16.0665 -15.9585 -15.3762 -15.2545 -13.9971 -13.9200 -12.3816 -12.3355
   -11.2849 -11.2376  -8.9000  -8.8514  -8.1389  -8.0744  -6.3992  -6.2813
    -5.3063  -5.2255  -5.0319  -4.8462  -4.3235  -4.2271  -4.1159  -3.9940
    -3.3020  -3.2144  -2.6470  -2.5036  -2.4516  -2.3388  -2.1647  -2.0697
    -1.0827  -1.0035  -0.9194  -0.8795  -0.8411  -0.7764  -0.0331   0.0065
     0.6711   0.7299

     occupation numbers 
     1.0000   1.0000   1.0000   1.0000   1.0000   1.0000   1.0000   1.0000
     1.0000   1.0000   1.0000   1.0000   1.0000   1.0000   1.0000   1.0000
     1.0000   1.0000   1.0000   1.0000   1.0000   1.0000   1.0000   1.0000
     1.0000   1.0000   1.0000   1.0000   1.0000   1.0000   1.0000   1.0000
     1.0000   1.0000   1.0000   1.0000   1.0000   1.0000   1.0000   1.0000
     1.0000   1.0000

     highest occupied level (ev):     0.7538

!    total energy              =    -548.05290435 Ry
     Harris-Foulkes estimate   =    -548.05290437 Ry
     estimated scf accuracy    <       0.00000003 Ry

     total all-electron energy =     -4615.896392 Ry

     The total energy is the sum of the following terms:

     one-electron contribution =    -149.49980691 Ry
     hartree contribution      =     106.11207883 Ry
     xc contribution           =    -104.21017288 Ry
     ewald contribution        =    -144.67253491 Ry
     one-center paw contrib.   =    -255.78246848 Ry
      -> PAW hartree energy AE =      19.14939455 Ry
      -> PAW hartree energy PS =     -19.04479349 Ry
      -> PAW xc energy AE      =     -55.65288628 Ry
      -> PAW xc energy PS      =      10.10649732 Ry
      -> total E_H with PAW    =     106.21667989 Ry
      -> total E_XC with PAW   =    -149.75656184 Ry

     convergence has been achieved in  11 iterations
 writing file ./scratch/scf-508.save/charge-density
 writing file ./scratch/scf-508.save/charge-density
 writing file ./scratch/scf-508.save/charge-density
 writing file ./scratch/scf-508.save/charge-density
 writing file ./scratch/scf-508.save/charge-density
 writing file ./scratch/scf-508.save/charge-density
 writing file ./scratch/scf-508.save/charge-density
 writing file ./scratch/scf-508.save/charge-density
 writing file ./scratch/scf-508.save/charge-density
 writing file ./scratch/scf-508.save/charge-density
 writing file ./scratch/scf-508.save/charge-density
 writing file ./scratch/scf-508.save/charge-density
 writing file ./scratch/scf-508.save/charge-density
 writing file ./scratch/scf-508.save/charge-density
 writing file ./scratch/scf-508.save/charge-density
 writing file ./scratch/scf-508.save/charge-density
 writing file ./scratch/scf-508.save/charge-density
 writing file ./scratch/scf-508.save/charge-density
 writing file ./scratch/scf-508.save/charge-density
 writing file ./scratch/scf-508.save/charge-density
 writing file ./scratch/scf-508.save/charge-density
 writing file ./scratch/scf-508.save/charge-density
 writing file ./scratch/scf-508.save/charge-density
 writing file ./scratch/scf-508.save/charge-density
 writing file ./scratch/scf-508.save/charge-density
 writing file ./scratch/scf-508.save/charge-density
 writing file ./scratch/scf-508.save/charge-density
 writing file ./scratch/scf-508.save/charge-density
 writing file ./scratch/scf-508.save/charge-density
 writing file ./scratch/scf-508.save/charge-density
 writing file ./scratch/scf-508.save/charge-density
 writing file ./scratch/scf-508.save/charge-density

     Forces acting on atoms (cartesian axes, Ry/au):

     atom    1 type  2   force =    -0.01686330    0.01736440   -0.00695833
     atom    2 type  1   force =     0.01307131   -0.00708891    0.00257317
     atom    3 type  1   force =     0.00122761    0.00244809   -0.01584118
     atom    4 type  3   force =    -0.00200592   -0.00343217    0.00213693
     atom    5 type  1   force =    -0.01195251    0.00837798    0.01342360
     atom    6 type  3   force =     0.00386962    0.00205648   -0.00141748
     atom    7 type  3   force =     0.00251463    0.00132670    0.00079868
     atom    8 type  1   force =     0.00068165    0.00406352    0.01393466
     atom    9 type  3   force =     0.00039671    0.00614781    0.00410475
     atom   10 type  1   force =    -0.00263447   -0.00821872   -0.01399618
     atom   11 type  1   force =    -0.03057761    0.01239747    0.01844577
     atom   12 type  2   force =     0.03318291    0.00238979   -0.00661880
     atom   13 type  3   force =     0.00055039    0.00234841   -0.00500353
     atom   14 type  1   force =    -0.00695570   -0.02236736    0.01623956
     atom   15 type  3   force =    -0.00379764   -0.00246181    0.00426921
     atom   16 type  1   force =     0.02959170   -0.00251538   -0.02117604
     atom   17 type  1   force =     0.00059380   -0.01588930   -0.00077275
     atom   18 type  2   force =    -0.00984829    0.02225644    0.00961229
     atom   19 type  3   force =    -0.00523960    0.00396973    0.00538869
     atom   20 type  1   force =     0.00093283   -0.01627406   -0.02530181
     atom   21 type  3   force =     0.00090543   -0.00551322   -0.00074039
     atom   22 type  1   force =    -0.01058326    0.00478671    0.02293192
     atom   23 type  1   force =     0.01791556   -0.01876917    0.00033113
     atom   24 type  2   force =    -0.00497588    0.01259657   -0.01636388
     The non-local contrib.  to forces
     atom    1 type  2   force =    -0.29946842    0.26459936   -0.01580324
     atom    2 type  1   force =     0.38789223   -0.32577248    0.01370068
     atom    3 type  1   force =    -0.03709443   -0.03012309   -0.06811966
     atom    4 type  3   force =    -0.06236426   -0.01760611   -0.04476453
     atom    5 type  1   force =    -0.05383953   -0.03525426   -0.03414964
     atom    6 type  3   force =    -0.00072673   -0.06519684   -0.04371338
     atom    7 type  3   force =     0.01031447   -0.06294630    0.04658860
     atom    8 type  1   force =     0.04318848   -0.03135998    0.08360645
     atom    9 type  3   force =     0.06565102   -0.00762262    0.04314011
     atom   10 type  1   force =     0.06624239   -0.04872620    0.02221549
     atom   11 type  1   force =    -0.43736568   -0.27844243    0.09095364
     atom   12 type  2   force =     0.33590530    0.19742029   -0.05362029
     atom   13 type  3   force =     0.00277958    0.06719125    0.04019883
     atom   14 type  1   force =     0.03012012    0.00393430    0.06842631
     atom   15 type  3   force =     0.06124006    0.01523903    0.04770319
     atom   16 type  1   force =     0.07652178    0.03139737    0.00720603
     atom   17 type  1   force =    -0.38687700    0.30310337   -0.01084378
     atom   18 type  2   force =     0.32098067   -0.22630589    0.03435249
     atom   19 type  3   force =    -0.01215511    0.06552275   -0.04199057
     atom   20 type  1   force =    -0.03745102    0.00911240   -0.09654641
     atom   21 type  3   force =    -0.06646436    0.00881967   -0.04120495
     atom   22 type  1   force =    -0.06124469    0.03745577    0.00358317
     atom   23 type  1   force =     0.40116461    0.30192110   -0.01616748
     atom   24 type  2   force =    -0.31136270   -0.24006329   -0.03750698
     The ionic contribution  to forces
     atom    1 type  2   force =     4.90147217   -3.68610745    0.39629683
     atom    2 type  1   force =     2.30020070   -1.76149378    0.33683519
     atom    3 type  1   force =     3.98578770    1.43728070    3.02553046
     atom    4 type  3   force =     1.92210007    0.59038470    1.35623485
     atom    5 type  1   force =     0.92636481    4.06438009    2.25364022
     atom    6 type  3   force =     0.15785479    1.91722509    1.33130707
     atom    7 type  3   force =    -0.47468959    1.82216242   -1.36472691
     atom    8 type  1   force =    -1.16606983    3.95846935   -2.76087663
     atom    9 type  3   force =    -2.04591985    0.43299079   -1.22572726
     atom   10 type  1   force =    -4.22410785    1.50272629   -2.44269036
     atom   11 type  1   force =    -1.96864999   -2.44682232   -0.42000900
     atom   12 type  2   force =    -5.67836315   -4.02818155   -0.24465823
     atom   13 type  3   force =    -0.32429160   -1.96138821   -1.33348587
     atom   14 type  1   force =    -0.98625940   -3.78435640   -2.90081609
     atom   15 type  3   force =    -1.93983313   -0.67148515   -1.41783968
     atom   16 type  1   force =    -4.41439922   -2.08492324   -2.60223796
     atom   17 type  1   force =    -2.14649428    1.87930444   -0.36670505
     atom   18 type  2   force =    -5.94664047    4.41135588   -0.83080474
     atom   19 type  3   force =     0.55784108   -1.86486409    1.33247862
     atom   20 type  1   force =     1.42860656   -3.79850126    2.97271348
     atom   21 type  3   force =     2.19161174   -0.42868824    1.31946506
     atom   22 type  1   force =     4.72222298   -1.60440983    2.40443644
     atom   23 type  1   force =     2.13916720    2.15082564    0.28573883
     atom   24 type  2   force =     6.08248859    3.95411615    0.89590073
     The local contribution  to forces
     atom    1 type  2   force =    -4.63150036    3.45023502   -0.38822847
     atom    2 type  1   force =    -2.66481673    2.07157584   -0.34760716
     atom    3 type  1   force =    -3.94644726   -1.40469836   -2.97267356
     atom    4 type  3   force =    -1.86172111   -0.57619846   -1.30932038
     atom    5 type  1   force =    -0.88498643   -4.01940683   -2.20574866
     atom    6 type  3   force =    -0.15326301   -1.84997655   -1.28901679
     atom    7 type  3   force =     0.46688273   -1.75789652    1.31893899
     atom    8 type  1   force =     1.12396302   -3.92181762    2.69090970
     atom    9 type  3   force =     1.98068056   -0.41922433    1.18669989
     atom   10 type  1   force =     4.15465691   -1.46237224    2.40586811
     atom   11 type  1   force =     2.36440953    2.72937762    0.34916918
     atom   12 type  2   force =     5.39081556    3.84158373    0.28919576
     atom   13 type  3   force =     0.32204782    1.89653877    1.28827438
     atom   14 type  1   force =     0.94955914    3.75678903    2.84796405
     atom   15 type  3   force =     1.87481177    0.65379350    1.37441976
     atom   16 type  1   force =     4.36661205    2.05036982    2.57306603
     atom   17 type  1   force =     2.52446755   -2.19022771    0.37659322
     atom   18 type  2   force =     5.62829583   -4.17121997    0.80765431
     atom   19 type  3   force =    -0.55093791    1.80331241   -1.28510554
     atom   20 type  1   force =    -1.39081175    3.77161844   -2.90123425
     atom   21 type  3   force =    -2.12423639    0.41434954   -1.27899567
     atom   22 type  1   force =    -4.67072773    1.57141545   -2.38443267
     atom   23 type  1   force =    -2.51280093   -2.46306629   -0.26960712
     atom   24 type  2   force =    -5.78882017   -3.71084431   -0.87673976
     The core correction contribution to forces
     atom    1 type  2   force =     0.01280842   -0.01146463    0.00083399
     atom    2 type  1   force =    -0.01020662    0.00858851   -0.00036267
     atom    3 type  1   force =    -0.00102156    0.00007411   -0.00054890
     atom    4 type  3   force =     0.00000000    0.00000000    0.00000000
     atom    5 type  1   force =     0.00045665   -0.00128292   -0.00032262
     atom    6 type  3   force =     0.00000000    0.00000000    0.00000000
     atom    7 type  3   force =     0.00000000    0.00000000    0.00000000
     atom    8 type  1   force =    -0.00048052   -0.00123899    0.00026065
     atom    9 type  3   force =     0.00000000    0.00000000    0.00000000
     atom   10 type  1   force =     0.00056141    0.00013706    0.00061132
     atom   11 type  1   force =     0.01098511    0.00829880   -0.00169537
     atom   12 type  2   force =    -0.01509174   -0.00836363    0.00246209
     atom   13 type  3   force =     0.00000000    0.00000000    0.00000000
     atom   14 type  1   force =    -0.00051263    0.00128869    0.00061308
     atom   15 type  3   force =     0.00000000    0.00000000    0.00000000
     atom   16 type  1   force =     0.00078920    0.00065996    0.00076608
     atom   17 type  1   force =     0.00946442   -0.00809801    0.00015030
     atom   18 type  2   force =    -0.01249831    0.00839418   -0.00160944
     atom   19 type  3   force =     0.00000000    0.00000000    0.00000000
     atom   20 type  1   force =     0.00050407    0.00147697   -0.00026632
     atom   21 type  3   force =     0.00000000    0.00000000    0.00000000
     atom   22 type  1   force =    -0.00087645    0.00028719   -0.00066000
     atom   23 type  1   force =    -0.00969479   -0.00843228    0.00031930
     atom   24 type  2   force =     0.01270402    0.00944419    0.00195979
     The Hubbard contrib.    to forces
     atom    1 type  2   force =     0.00000000    0.00000000    0.00000000
     atom    2 type  1   force =     0.00000000    0.00000000    0.00000000
     atom    3 type  1   force =     0.00000000    0.00000000    0.00000000
     atom    4 type  3   force =     0.00000000    0.00000000    0.00000000
     atom    5 type  1   force =     0.00000000    0.00000000    0.00000000
     atom    6 type  3   force =     0.00000000    0.00000000    0.00000000
     atom    7 type  3   force =     0.00000000    0.00000000    0.00000000
     atom    8 type  1   force =     0.00000000    0.00000000    0.00000000
     atom    9 type  3   force =     0.00000000    0.00000000    0.00000000
     atom   10 type  1   force =     0.00000000    0.00000000    0.00000000
     atom   11 type  1   force =     0.00000000    0.00000000    0.00000000
     atom   12 type  2   force =     0.00000000    0.00000000    0.00000000
     atom   13 type  3   force =     0.00000000    0.00000000    0.00000000
     atom   14 type  1   force =     0.00000000    0.00000000    0.00000000
     atom   15 type  3   force =     0.00000000    0.00000000    0.00000000
     atom   16 type  1   force =     0.00000000    0.00000000    0.00000000
     atom   17 type  1   force =     0.00000000    0.00000000    0.00000000
     atom   18 type  2   force =     0.00000000    0.00000000    0.00000000
     atom   19 type  3   force =     0.00000000    0.00000000    0.00000000
     atom   20 type  1   force =     0.00000000    0.00000000    0.00000000
     atom   21 type  3   force =     0.00000000    0.00000000    0.00000000
     atom   22 type  1   force =     0.00000000    0.00000000    0.00000000
     atom   23 type  1   force =     0.00000000    0.00000000    0.00000000
     atom   24 type  2   force =     0.00000000    0.00000000    0.00000000
     The SCF correction term to forces
     atom    1 type  2   force =    -0.00017581    0.00010283   -0.00005817
     atom    2 type  1   force =     0.00000104    0.00001372    0.00000640
     atom    3 type  1   force =     0.00000245   -0.00008453   -0.00003025
     atom    4 type  3   force =    -0.00002132   -0.00001157   -0.00001373
     atom    5 type  1   force =     0.00005128   -0.00005738    0.00000358
     atom    6 type  3   force =     0.00000388    0.00000552    0.00000490
     atom    7 type  3   force =     0.00000632    0.00000783   -0.00000273
     atom    8 type  1   force =     0.00007981    0.00001149    0.00003376
     atom    9 type  3   force =    -0.00001572    0.00000469   -0.00000872
     atom   10 type  1   force =     0.00001197    0.00001708   -0.00000147
     atom   11 type  1   force =     0.00004272   -0.00001347    0.00002659
     atom   12 type  2   force =    -0.00008376   -0.00006833    0.00000114
     atom   13 type  3   force =     0.00001391    0.00000733    0.00000841
     atom   14 type  1   force =     0.00013638   -0.00002226    0.00005149
     atom   15 type  3   force =    -0.00001704   -0.00000846   -0.00001479
     atom   16 type  1   force =     0.00006720   -0.00001857    0.00002305
     atom   17 type  1   force =     0.00003241    0.00002934    0.00003183
     atom   18 type  2   force =     0.00001328    0.00003296    0.00001895
     atom   19 type  3   force =     0.00001164   -0.00000061    0.00000546
     atom   20 type  1   force =     0.00008427    0.00002012    0.00003097
     atom   21 type  3   force =    -0.00000625    0.00000654   -0.00000556
     atom   22 type  1   force =     0.00004193    0.00003887    0.00000425
     atom   23 type  1   force =     0.00007878   -0.00001661    0.00004687
     atom   24 type  2   force =     0.00001369   -0.00005544    0.00002161

     Total force =     0.103081     Total SCF correction =     0.000374

     Writing output data file scf-508.save
 writing file ./scratch/scf-508.save/charge-density
 writing file ./scratch/scf-508.save/charge-density
 writing file ./scratch/scf-508.save/charge-density
 writing file ./scratch/scf-508.save/charge-density
 writing file ./scratch/scf-508.save/charge-density
 writing file ./scratch/scf-508.save/charge-density
 writing file ./scratch/scf-508.save/charge-density
 writing file ./scratch/scf-508.save/charge-density
 writing file ./scratch/scf-508.save/charge-density
 writing file ./scratch/scf-508.save/charge-density
 writing file ./scratch/scf-508.save/charge-density
 writing file ./scratch/scf-508.save/charge-density
 writing file ./scratch/scf-508.save/charge-density
 writing file ./scratch/scf-508.save/charge-density
 writing file ./scratch/scf-508.save/charge-density
 writing file ./scratch/scf-508.save/charge-density
 writing file ./scratch/scf-508.save/charge-density
 writing file ./scratch/scf-508.save/charge-density
 writing file ./scratch/scf-508.save/charge-density
 writing file ./scratch/scf-508.save/charge-density
 writing file ./scratch/scf-508.save/charge-density
 writing file ./scratch/scf-508.save/charge-density
 writing file ./scratch/scf-508.save/charge-density
 writing file ./scratch/scf-508.save/charge-density
 writing file ./scratch/scf-508.save/charge-density
 writing file ./scratch/scf-508.save/charge-density
 writing file ./scratch/scf-508.save/charge-density
 writing file ./scratch/scf-508.save/charge-density
 writing file ./scratch/scf-508.save/charge-density
 writing file ./scratch/scf-508.save/charge-density
 writing file ./scratch/scf-508.save/charge-density
 writing file ./scratch/scf-508.save/charge-density
 
     init_run     :      4.40s CPU      4.60s WALL (       1 calls)
     electrons    :     50.18s CPU     53.02s WALL (       1 calls)
     forces       :      2.34s CPU      2.48s WALL (       1 calls)

     Called by init_run:
     wfcinit      :      1.62s CPU      1.63s WALL (       1 calls)
     wfcinit:atom :      0.02s CPU      0.02s WALL (      16 calls)
     wfcinit:wfcr :      1.51s CPU      1.51s WALL (      16 calls)
     potinit      :      0.90s CPU      0.91s WALL (       1 calls)

     Called by electrons:
     c_bands      :     39.19s CPU     39.46s WALL (      11 calls)
     sum_band     :      6.91s CPU      8.07s WALL (      11 calls)
     v_of_rho     :      0.92s CPU      0.97s WALL (      12 calls)
     v_h          :      0.05s CPU      0.06s WALL (      12 calls)
     v_xc         :      0.95s CPU      0.98s WALL (      13 calls)
     newd         :      1.48s CPU      2.87s WALL (      12 calls)
     PAW_pot      :      1.65s CPU      1.69s WALL (      12 calls)
     mix_rho      :      0.13s CPU      0.14s WALL (      11 calls)

     Called by c_bands:
     init_us_2    :      0.82s CPU      0.87s WALL (     384 calls)
     cegterg      :     36.94s CPU     37.05s WALL (     176 calls)

     Called by sum_band:
     sum_band:bec :      0.01s CPU      0.02s WALL (     176 calls)
     addusdens    :      1.56s CPU      2.68s WALL (      11 calls)

     Called by *egterg:
     h_psi        :     27.52s CPU     27.67s WALL (     862 calls)
     s_psi        :      2.06s CPU      2.00s WALL (     862 calls)
     g_psi        :      0.17s CPU      0.16s WALL (     670 calls)
     cdiaghg      :      3.44s CPU      3.43s WALL (     846 calls)
     cegterg:over :      1.62s CPU      1.66s WALL (     670 calls)
     cegterg:upda :      1.27s CPU      1.27s WALL (     670 calls)
     cegterg:last :      0.43s CPU      0.43s WALL (     192 calls)

     Called by h_psi:
     h_psi:pot    :     27.24s CPU     27.41s WALL (     862 calls)
     h_psi:calbec :      2.26s CPU      2.27s WALL (     862 calls)
     vloc_psi     :     23.01s CPU     23.16s WALL (     862 calls)
     add_vuspsi   :      1.97s CPU      1.97s WALL (     862 calls)

     General routines
     calbec       :      3.00s CPU      3.02s WALL (    1102 calls)
     fft          :      0.78s CPU      0.79s WALL (     199 calls)
     ffts         :      0.04s CPU      0.03s WALL (      23 calls)
     fftw         :     21.02s CPU     21.05s WALL (   55716 calls)
     interpolate  :      0.15s CPU      0.15s WALL (      23 calls)
     davcio       :      0.00s CPU      0.01s WALL (      16 calls)
 
     Parallel routines
     fft_scatter  :      7.28s CPU      7.25s WALL (   55938 calls)

     PAW routines
     PAW_pot      :      1.65s CPU      1.69s WALL (      12 calls)
 
     PWSCF        :  0m57.60s CPU     1m 1.24s WALL

 
   This run was terminated on:  15:43:35  20May2017            

=------------------------------------------------------------------------------=
   JOB DONE.
=------------------------------------------------------------------------------=
