
     Program PWSCF v.6.1 starts on 20May2017 at 13:52:48 

     This program is part of the open-source Quantum ESPRESSO suite
     for quantum simulation of materials; please cite
         "P. Giannozzi et al., J. Phys.:Condens. Matter 21 395502 (2009);
          URL http://www.quantum-espresso.org", 
     in publications or presentations arising from this work. More details at
     http://www.quantum-espresso.org/quote

     Parallel version (MPI & OpenMP), running on      32 processor cores
     Number of MPI processes:                32
     Threads/MPI process:                     1
     R & G space division:  proc/nbgrp/npool/nimage =      32
     Waiting for input...
     Reading input from standard input
Warning: card &IONS ignored
Warning: card     ION_TEMPERATURE   = 'INITIAL' ignored
Warning: card     TEMPW             = 586.D0 ignored
Warning: card     TOLP              = 100.D0 ignored
Warning: card     DELTA_T           = 1.D0 ignored
Warning: card     NRAISE            = 1 ignored
Warning: card / ignored
Warning: card &CELL ignored
Warning: card     CELL_DYNAMICS     = 'BFGS' ignored
Warning: card / ignored

     Current dimensions of program PWSCF are:
     Max number of different atomic species (ntypx) = 10
     Max number of k-points (npk) =  40000
     Max angular momentum in pseudopotentials (lmaxx) =  3
               file C.pbe-n-kjpaw_psl.1.0.0.UPF: wavefunction(s)  2S 2P renormalized
               file Cl.pbe-n-kjpaw_psl.1.0.0.UPF: wavefunction(s)  3S 3P renormalized
               file H.pbe-kjpaw_psl.1.0.0.UPF: wavefunction(s)  1S renormalized

     Subspace diagonalization in iterative solution of the eigenvalue problem:
     a serial algorithm will be used

 
     Parallelization info
     --------------------
     sticks:   dense  smooth     PW     G-vecs:    dense   smooth      PW
     Min         764     305     83                36108     9133    1292
     Max         765     306     84                36110     9135    1293
     Sum       24467    9791   2657              1155489   292295   41363
 


     bravais-lattice index     =            0
     lattice parameter (alat)  =       1.8897  a.u.
     unit-cell volume          =    2163.5316 (a.u.)^3
     number of atoms/cell      =           24
     number of atomic types    =            3
     number of electrons       =        84.00
     number of Kohn-Sham states=           42
     kinetic-energy cutoff     =     100.0000  Ry
     charge density cutoff     =    1000.0000  Ry
     convergence threshold     =      1.0E-07
     mixing beta               =       0.7000
     number of iterations used =            8  plain     mixing
     Exchange-correlation      =  SLA  PW   PBX  PBC ( 1  4  3  4 0 0)

     celldm(1)=   1.889726  celldm(2)=   0.000000  celldm(3)=   0.000000
     celldm(4)=   0.000000  celldm(5)=   0.000000  celldm(6)=   0.000000

     crystal axes: (cart. coord. in units of alat)
               a(1) = (  14.762000   0.000000   0.000000 )  
               a(2) = (   0.000000   5.832000   0.000000 )  
               a(3) = (  -1.563876   0.000000   3.723951 )  

     reciprocal axes: (cart. coord. in units 2 pi/alat)
               b(1) = (  0.067741  0.000000  0.028448 )  
               b(2) = (  0.000000  0.171468  0.000000 )  
               b(3) = (  0.000000  0.000000  0.268532 )  


     PseudoPot. # 1 for  C read from file:
     /global/cscratch1/sd/almno10/.data/PSEUDOPOTENTIALS/C.pbe-n-kjpaw_psl.1.0.0.UPF
     MD5 check sum: 2ba8448e293caca687844dde9a1b88a8
     Pseudo is Projector augmented-wave + core cor, Zval =  4.0
     Generated using "atomic" code by A. Dal Corso  v.5.3.0 svn rev. 11974
     Shape of augmentation charge: PSQ
     Using radial grid of 1073 points,  4 beta functions with: 
                l(1) =   0
                l(2) =   0
                l(3) =   1
                l(4) =   1
     Q(r) pseudized with 0 coefficients 


     PseudoPot. # 2 for Cl read from file:
     /global/cscratch1/sd/almno10/.data/PSEUDOPOTENTIALS/Cl.pbe-n-kjpaw_psl.1.0.0.UPF
     MD5 check sum: dca63699d6b897c5771335df08a09219
     Pseudo is Projector augmented-wave + core cor, Zval =  7.0
     Generated using "atomic" code by A. Dal Corso  v.5.3.0 svn rev. 11974
     Shape of augmentation charge: PSQ
     Using radial grid of 1157 points,  6 beta functions with: 
                l(1) =   0
                l(2) =   0
                l(3) =   1
                l(4) =   1
                l(5) =   2
                l(6) =   2
     Q(r) pseudized with 0 coefficients 


     PseudoPot. # 3 for  H read from file:
     /global/cscratch1/sd/almno10/.data/PSEUDOPOTENTIALS/H.pbe-kjpaw_psl.1.0.0.UPF
     MD5 check sum: bc0feb48a24907a0b97fa6ee2d589a29
     Pseudo is Projector augmented-wave, Zval =  1.0
     Generated using "atomic" code by A. Dal Corso  v.5.3.0 svn rev. 11974
     Shape of augmentation charge: PSQ
     Using radial grid of  929 points,  2 beta functions with: 
                l(1) =   0
                l(2) =   0
     Q(r) pseudized with 0 coefficients 


     atomic species   valence    mass     pseudopotential
        C              4.00    12.01100      C( 1.00)
        Cl             7.00    35.45270     Cl( 1.00)
        H              1.00     1.00790      H( 1.00)

     No symmetry found


                                    s                        frac. trans.

      isym =  1     identity                                     

 cryst.   s( 1) = (     1          0          0      )
                  (     0          1          0      )
                  (     0          0          1      )

 cart.    s( 1) = (  1.0000000  0.0000000 -0.0000000 )
                  (  0.0000000  1.0000000  0.0000000 )
                  (  0.0000000  0.0000000  1.0000000 )


   Cartesian axes

     site n.     atom                  positions (alat units)
         1           Cl  tau(   1) = (  16.5728441   1.0955945   1.8044528  )
         2           C   tau(   2) = (  15.0383646   2.0269877   1.9061924  )
         3           C   tau(   3) = (  15.0422483   3.2728112   2.5323757  )
         4           H   tau(   4) = (  15.9298640   3.6658335   3.0248768  )
         5           C   tau(   5) = (  13.8852234   4.0459529   2.4605992  )
         6           H   tau(   6) = (  13.8538365   5.0211217   2.9439924  )
         7           H   tau(   7) = (   6.6394641   2.2320615   0.5839224  )
         8           C   tau(   8) = (   6.6646328   1.3054647   1.1531991  )
         9           H   tau(   9) = (   4.6080124   0.8117020   0.7272711  )
        10           C   tau(  10) = (   5.5317023   0.4915932   1.2069994  )
        11           C   tau(  11) = (   5.5500461  -0.7029613   1.9263431  )
        12           Cl  tau(  12) = (   4.0506191  -1.5026523   1.9930682  )
        13           H   tau(  13) = (  13.8976767   0.5294731   0.8592349  )
        14           C   tau(  14) = (  13.8829969   1.5174745   1.3164212  )
        15           H   tau(  15) = (  11.8281739   1.8952950   0.7878254  )
        16           C   tau(  16) = (  12.7276137   2.2942498   1.2534556  )
        17           C   tau(  17) = (  12.7410188   3.5499974   1.8376859  )
        18           Cl  tau(  18) = (  11.2439197   4.4794637   1.7311404  )
        19           H   tau(  19) = (   6.7096808  -2.0317105   3.2021689  )
        20           C   tau(  20) = (   6.6996279  -1.1302045   2.5911434  )
        21           H   tau(  21) = (   8.7363266  -0.6087162   3.0580030  )
        22           C   tau(  22) = (   7.8245021  -0.3094141   2.5469909  )
        23           C   tau(  23) = (   7.8250428   0.8506835   1.7762892  )
        24           Cl  tau(  24) = (   9.3150037   1.8598295   1.8553976  )

   Crystallographic axes

     site n.     atom                  positions (cryst. coord.)
         1           Cl  tau(   1) = (  1.1740025  0.1878591  0.4845533  )
         2           C   tau(   2) = (  1.0729489  0.3475631  0.5118736  )
         3           C   tau(   3) = (  1.0910257  0.5611816  0.6800238  )
         4           H   tau(   4) = (  1.1651648  0.6285723  0.8122761  )
         5           C   tau(   5) = (  1.0106052  0.6937505  0.6607495  )
         6           H   tau(   6) = (  1.0222306  0.8609605  0.7905561  )
         7           H   tau(   7) = (  0.4663787  0.3827266  0.1568018  )
         8           C   tau(   8) = (  0.4842785  0.2238451  0.3096708  )
         9           H   tau(   9) = (  0.3328431  0.1391807  0.1952955  )
        10           C   tau(  10) = (  0.4090626  0.0842924  0.3241179  )
        11           C   tau(  11) = (  0.4307692 -0.1205352  0.5172847  )
        12           Cl  tau(  12) = (  0.3310940 -0.2576564  0.5352025  )
        13           H   tau(  13) = (  0.9658930  0.0907876  0.2307320  )
        14           C   tau(  14) = (  0.9779047  0.2601980  0.3535012  )
        15           H   tau(  15) = (  0.8236703  0.3249820  0.2115563  )
        16           C   tau(  16) = (  0.8978460  0.3933899  0.3365929  )
        17           C   tau(  17) = (  0.9153743  0.6087101  0.4934774  )
        18           Cl  tau(  18) = (  0.8109276  0.7680836  0.4648665  )
        19           H   tau(  19) = (  0.5456194 -0.3483729  0.8598847  )
        20           C   tau(  20) = (  0.5275559 -0.1937936  0.6958048  )
        21           H   tau(  21) = (  0.6788062 -0.1043752  0.8211716  )
        22           C   tau(  22) = (  0.6025005 -0.0530545  0.6839485  )
        23           C   tau(  23) = (  0.5806121  0.1458648  0.4769904  )
        24           Cl  tau(  24) = (  0.6837948  0.3189008  0.4982336  )

     number of k points=    16
                       cart. coord. in units 2pi/alat
        k(    1) = (   0.0169354   0.0214335   0.0406785), wk =   0.1250000
        k(    2) = (   0.0169354   0.0214335   0.1078115), wk =   0.1250000
        k(    3) = (   0.0169354   0.0214335  -0.0935875), wk =   0.1250000
        k(    4) = (   0.0169354   0.0214335  -0.0264545), wk =   0.1250000
        k(    5) = (   0.0169354   0.0643004   0.0406785), wk =   0.1250000
        k(    6) = (   0.0169354   0.0643004   0.1078115), wk =   0.1250000
        k(    7) = (   0.0169354   0.0643004  -0.0935875), wk =   0.1250000
        k(    8) = (   0.0169354   0.0643004  -0.0264545), wk =   0.1250000
        k(    9) = (  -0.0169354   0.0214335  -0.0406785), wk =   0.1250000
        k(   10) = (  -0.0169354   0.0214335  -0.1078115), wk =   0.1250000
        k(   11) = (  -0.0169354   0.0214335   0.0935875), wk =   0.1250000
        k(   12) = (  -0.0169354   0.0214335   0.0264545), wk =   0.1250000
        k(   13) = (  -0.0169354   0.0643004  -0.0406785), wk =   0.1250000
        k(   14) = (  -0.0169354   0.0643004  -0.1078115), wk =   0.1250000
        k(   15) = (  -0.0169354   0.0643004   0.0935875), wk =   0.1250000
        k(   16) = (  -0.0169354   0.0643004   0.0264545), wk =   0.1250000

                       cryst. coord.
        k(    1) = (   0.2500000   0.1250000   0.1250000), wk =   0.1250000
        k(    2) = (   0.2500000   0.1250000   0.3750000), wk =   0.1250000
        k(    3) = (   0.2500000   0.1250000  -0.3750000), wk =   0.1250000
        k(    4) = (   0.2500000   0.1250000  -0.1250000), wk =   0.1250000
        k(    5) = (   0.2500000   0.3750000   0.1250000), wk =   0.1250000
        k(    6) = (   0.2500000   0.3750000   0.3750000), wk =   0.1250000
        k(    7) = (   0.2500000   0.3750000  -0.3750000), wk =   0.1250000
        k(    8) = (   0.2500000   0.3750000  -0.1250000), wk =   0.1250000
        k(    9) = (  -0.2500000   0.1250000  -0.1250000), wk =   0.1250000
        k(   10) = (  -0.2500000   0.1250000  -0.3750000), wk =   0.1250000
        k(   11) = (  -0.2500000   0.1250000   0.3750000), wk =   0.1250000
        k(   12) = (  -0.2500000   0.1250000   0.1250000), wk =   0.1250000
        k(   13) = (  -0.2500000   0.3750000  -0.1250000), wk =   0.1250000
        k(   14) = (  -0.2500000   0.3750000  -0.3750000), wk =   0.1250000
        k(   15) = (  -0.2500000   0.3750000   0.3750000), wk =   0.1250000
        k(   16) = (  -0.2500000   0.3750000   0.1250000), wk =   0.1250000

     Dense  grid:  1155489 G-vectors     FFT dimensions: ( 288, 120,  80)

     Smooth grid:   292295 G-vectors     FFT dimensions: ( 180,  72,  50)

     Estimated max dynamical RAM per process >     147.21MB

     Estimated total allocated dynamical RAM >    4710.62MB

     Initial potential from superposition of free atoms

     starting charge   83.99939, renormalised to   84.00000
     Starting wfc are   72 randomized atomic wfcs
     Checking if some PAW data can be deallocated... 
       node    0, deallocated PAW data for type:  1
       node    0, deallocated PAW data for type:  3
       node    1, deallocated PAW data for type:  1
       node    1, deallocated PAW data for type:  3
       node    2, deallocated PAW data for type:  2
       node    2, deallocated PAW data for type:  3
       node    3, deallocated PAW data for type:  2
       node    3, deallocated PAW data for type:  3
       node    4, deallocated PAW data for type:  2
       node    4, deallocated PAW data for type:  3
       node    5, deallocated PAW data for type:  2
       node    5, deallocated PAW data for type:  3
       node    6, deallocated PAW data for type:  1
       node    6, deallocated PAW data for type:  2
       node    7, deallocated PAW data for type:  1
       node    7, deallocated PAW data for type:  2
       node    8, deallocated PAW data for type:  2
       node    8, deallocated PAW data for type:  3
       node    9, deallocated PAW data for type:  2
       node    9, deallocated PAW data for type:  3
       node   10, deallocated PAW data for type:  1
       node   10, deallocated PAW data for type:  2
       node   11, deallocated PAW data for type:  1
       node   11, deallocated PAW data for type:  2
       node   12, deallocated PAW data for type:  1
       node   12, deallocated PAW data for type:  2
       node   13, deallocated PAW data for type:  1
       node   13, deallocated PAW data for type:  2
       node   14, deallocated PAW data for type:  2
       node   14, deallocated PAW data for type:  3
       node   15, deallocated PAW data for type:  2
       node   15, deallocated PAW data for type:  3
       node   16, deallocated PAW data for type:  1
       node   16, deallocated PAW data for type:  2
       node   17, deallocated PAW data for type:  2
       node   17, deallocated PAW data for type:  3
       node   18, deallocated PAW data for type:  2
       node   18, deallocated PAW data for type:  3
       node   19, deallocated PAW data for type:  1
       node   19, deallocated PAW data for type:  3
       node   20, deallocated PAW data for type:  1
       node   20, deallocated PAW data for type:  2
       node   21, deallocated PAW data for type:  2
       node   21, deallocated PAW data for type:  3
       node   22, deallocated PAW data for type:  1
       node   22, deallocated PAW data for type:  2
       node   23, deallocated PAW data for type:  2
       node   23, deallocated PAW data for type:  3
       node   24, deallocated PAW data for type:  2
       node   24, deallocated PAW data for type:  3
       node   25, deallocated PAW data for type:  1
       node   25, deallocated PAW data for type:  3
       node   26, deallocated PAW data for type:  1
       node   26, deallocated PAW data for type:  2
       node   27, deallocated PAW data for type:  2
       node   27, deallocated PAW data for type:  3
       node   28, deallocated PAW data for type:  1
       node   28, deallocated PAW data for type:  2
       node   29, deallocated PAW data for type:  2
       node   29, deallocated PAW data for type:  3
       node   30, deallocated PAW data for type:  2
       node   30, deallocated PAW data for type:  3
       node   31, deallocated PAW data for type:  1
       node   31, deallocated PAW data for type:  3

     total cpu time spent up to now is        5.3 secs

     per-process dynamical memory:    20.7 Mb

     Self-consistent Calculation

     iteration #  1     ecut=   100.00 Ry     beta= 0.70
     Davidson diagonalization with overlap
     ethr =  1.00E-04,  avg # of iterations =  5.0

     total cpu time spent up to now is       12.0 secs

     total energy              =    -547.14602363 Ry
     Harris-Foulkes estimate   =    -548.99103549 Ry
     estimated scf accuracy    <       2.70943376 Ry

     iteration #  2     ecut=   100.00 Ry     beta= 0.70
     Davidson diagonalization with overlap
     ethr =  3.23E-03,  avg # of iterations =  3.0

     total cpu time spent up to now is       16.9 secs

     total energy              =    -547.53982946 Ry
     Harris-Foulkes estimate   =    -548.60348233 Ry
     estimated scf accuracy    <       1.91606569 Ry

     iteration #  3     ecut=   100.00 Ry     beta= 0.70
     Davidson diagonalization with overlap
     ethr =  2.28E-03,  avg # of iterations =  3.0

     total cpu time spent up to now is       21.3 secs

     total energy              =    -548.01799928 Ry
     Harris-Foulkes estimate   =    -548.06170049 Ry
     estimated scf accuracy    <       0.08744190 Ry

     iteration #  4     ecut=   100.00 Ry     beta= 0.70
     Davidson diagonalization with overlap
     ethr =  1.04E-04,  avg # of iterations =  4.0

     total cpu time spent up to now is       26.1 secs

     total energy              =    -548.04515925 Ry
     Harris-Foulkes estimate   =    -548.05605226 Ry
     estimated scf accuracy    <       0.02150918 Ry

     iteration #  5     ecut=   100.00 Ry     beta= 0.70
     Davidson diagonalization with overlap
     ethr =  2.56E-05,  avg # of iterations =  3.0

     total cpu time spent up to now is       30.5 secs

     total energy              =    -548.04942155 Ry
     Harris-Foulkes estimate   =    -548.05036157 Ry
     estimated scf accuracy    <       0.00170912 Ry

     iteration #  6     ecut=   100.00 Ry     beta= 0.70
     Davidson diagonalization with overlap
     ethr =  2.03E-06,  avg # of iterations =  4.0

     total cpu time spent up to now is       35.2 secs

     total energy              =    -548.04972193 Ry
     Harris-Foulkes estimate   =    -548.05042826 Ry
     estimated scf accuracy    <       0.00181827 Ry

     iteration #  7     ecut=   100.00 Ry     beta= 0.70
     Davidson diagonalization with overlap
     ethr =  2.03E-06,  avg # of iterations =  4.0

     total cpu time spent up to now is       39.5 secs

     total energy              =    -548.05007336 Ry
     Harris-Foulkes estimate   =    -548.05010994 Ry
     estimated scf accuracy    <       0.00009593 Ry

     iteration #  8     ecut=   100.00 Ry     beta= 0.70
     Davidson diagonalization with overlap
     ethr =  1.14E-07,  avg # of iterations =  4.0

     total cpu time spent up to now is       44.1 secs

     total energy              =    -548.05009417 Ry
     Harris-Foulkes estimate   =    -548.05010319 Ry
     estimated scf accuracy    <       0.00001982 Ry

     iteration #  9     ecut=   100.00 Ry     beta= 0.70
     Davidson diagonalization with overlap
     ethr =  2.36E-08,  avg # of iterations =  4.0

     total cpu time spent up to now is       48.8 secs

     total energy              =    -548.05009877 Ry
     Harris-Foulkes estimate   =    -548.05010023 Ry
     estimated scf accuracy    <       0.00000346 Ry

     iteration # 10     ecut=   100.00 Ry     beta= 0.70
     Davidson diagonalization with overlap
     ethr =  4.11E-09,  avg # of iterations =  4.0

     total cpu time spent up to now is       53.3 secs

     total energy              =    -548.05009947 Ry
     Harris-Foulkes estimate   =    -548.05009957 Ry
     estimated scf accuracy    <       0.00000025 Ry

     iteration # 11     ecut=   100.00 Ry     beta= 0.70
     Davidson diagonalization with overlap
     ethr =  2.92E-10,  avg # of iterations =  4.0

     total cpu time spent up to now is       58.1 secs

     End of self-consistent calculation

          k = 0.0169 0.0214 0.0407 ( 36525 PWs)   bands (ev):

   -16.1300 -15.9804 -15.2759 -15.1614 -13.9355 -13.8595 -12.4003 -12.3174
   -11.3464 -11.2028  -9.0292  -8.9702  -8.2739  -8.1503  -6.4064  -6.3017
    -5.3455  -5.3067  -5.0324  -4.7519  -4.2177  -4.0961  -4.0428  -3.8599
    -3.2136  -3.1503  -2.7363  -2.5961  -2.4737  -2.3205  -2.1309  -2.0475
    -1.3093  -1.1931  -0.9674  -0.8846  -0.8260  -0.6691  -0.0454  -0.0313
     0.5140   0.7258

     occupation numbers 
     1.0000   1.0000   1.0000   1.0000   1.0000   1.0000   1.0000   1.0000
     1.0000   1.0000   1.0000   1.0000   1.0000   1.0000   1.0000   1.0000
     1.0000   1.0000   1.0000   1.0000   1.0000   1.0000   1.0000   1.0000
     1.0000   1.0000   1.0000   1.0000   1.0000   1.0000   1.0000   1.0000
     1.0000   1.0000   1.0000   1.0000   1.0000   1.0000   1.0000   1.0000
     1.0000   1.0000

          k = 0.0169 0.0214 0.1078 ( 36561 PWs)   bands (ev):

   -16.0452 -15.9088 -15.2172 -15.1179 -13.9257 -13.8325 -12.3775 -12.3052
   -11.3527 -11.2118  -8.9925  -8.9365  -8.2262  -8.1503  -6.3918  -6.3049
    -5.3398  -5.3083  -4.9859  -4.8877  -4.2821  -4.2045  -4.1541  -3.9901
    -3.7653  -3.6994  -2.8718  -2.7092  -2.6105  -2.4070  -2.3402  -2.2208
    -1.3538  -1.1992  -1.0773  -1.0495  -0.7888  -0.6552  -0.3258  -0.2463
     0.5655   0.7777

     occupation numbers 
     1.0000   1.0000   1.0000   1.0000   1.0000   1.0000   1.0000   1.0000
     1.0000   1.0000   1.0000   1.0000   1.0000   1.0000   1.0000   1.0000
     1.0000   1.0000   1.0000   1.0000   1.0000   1.0000   1.0000   1.0000
     1.0000   1.0000   1.0000   1.0000   1.0000   1.0000   1.0000   1.0000
     1.0000   1.0000   1.0000   1.0000   1.0000   1.0000   1.0000   1.0000
     1.0000   1.0000

          k = 0.0169 0.0214-0.0936 ( 36547 PWs)   bands (ev):

   -16.0434 -15.9095 -15.2227 -15.1133 -13.9206 -13.8393 -12.3710 -12.3138
   -11.3491 -11.2130  -9.0159  -8.9040  -8.2534  -8.1170  -6.3874  -6.3076
    -5.3490  -5.2948  -5.0780  -4.8151  -4.2946  -4.2181  -4.1204  -4.0267
    -3.7782  -3.6885  -2.7829  -2.6816  -2.6047  -2.4466  -2.3934  -2.3058
    -1.2719  -1.1804  -1.1061  -1.0447  -0.7879  -0.6421  -0.3661  -0.2040
     0.5696   0.7727

     occupation numbers 
     1.0000   1.0000   1.0000   1.0000   1.0000   1.0000   1.0000   1.0000
     1.0000   1.0000   1.0000   1.0000   1.0000   1.0000   1.0000   1.0000
     1.0000   1.0000   1.0000   1.0000   1.0000   1.0000   1.0000   1.0000
     1.0000   1.0000   1.0000   1.0000   1.0000   1.0000   1.0000   1.0000
     1.0000   1.0000   1.0000   1.0000   1.0000   1.0000   1.0000   1.0000
     1.0000   1.0000

          k = 0.0169 0.0214-0.0265 ( 36551 PWs)   bands (ev):

   -16.1292 -15.9796 -15.2830 -15.1559 -13.9307 -13.8653 -12.3946 -12.3267
   -11.3453 -11.1996  -9.0538  -8.9400  -8.3118  -8.0990  -6.4542  -6.2493
    -5.3572  -5.2937  -5.1193  -4.6785  -4.2991  -4.1541  -3.9251  -3.8022
    -3.2249  -3.1770  -2.8264  -2.5923  -2.4184  -2.3304  -2.1671  -2.0482
    -1.2570  -1.1341  -0.9887  -0.9060  -0.8577  -0.6358  -0.0807   0.0009
     0.5316   0.7142

     occupation numbers 
     1.0000   1.0000   1.0000   1.0000   1.0000   1.0000   1.0000   1.0000
     1.0000   1.0000   1.0000   1.0000   1.0000   1.0000   1.0000   1.0000
     1.0000   1.0000   1.0000   1.0000   1.0000   1.0000   1.0000   1.0000
     1.0000   1.0000   1.0000   1.0000   1.0000   1.0000   1.0000   1.0000
     1.0000   1.0000   1.0000   1.0000   1.0000   1.0000   1.0000   1.0000
     1.0000   1.0000

          k = 0.0169 0.0643 0.0407 ( 36518 PWs)   bands (ev):

   -16.1125 -15.9534 -15.2655 -15.1780 -13.9490 -13.8835 -12.4661 -12.3604
   -11.3719 -11.2146  -8.9129  -8.8896  -8.1891  -8.1131  -6.3346  -6.2875
    -5.2987  -5.2617  -5.0743  -4.9551  -4.3626  -4.3420  -4.1174  -3.8493
    -3.2594  -3.2126  -2.6802  -2.5626  -2.3905  -2.2959  -2.0978  -2.0274
    -1.1169  -1.0000  -0.9368  -0.8948  -0.8399  -0.7414   0.0196   0.0383
     0.5909   0.7365

     occupation numbers 
     1.0000   1.0000   1.0000   1.0000   1.0000   1.0000   1.0000   1.0000
     1.0000   1.0000   1.0000   1.0000   1.0000   1.0000   1.0000   1.0000
     1.0000   1.0000   1.0000   1.0000   1.0000   1.0000   1.0000   1.0000
     1.0000   1.0000   1.0000   1.0000   1.0000   1.0000   1.0000   1.0000
     1.0000   1.0000   1.0000   1.0000   1.0000   1.0000   1.0000   1.0000
     1.0000   1.0000

          k = 0.0169 0.0643 0.1078 ( 36558 PWs)   bands (ev):

   -16.0352 -15.8875 -15.2103 -15.1241 -13.9245 -13.8546 -12.4260 -12.3262
   -11.3759 -11.2315  -8.9226  -8.9143  -8.1978  -8.1437  -6.3430  -6.3047
    -5.3100  -5.2933  -4.9828  -4.8627  -4.2852  -4.2480  -4.1330  -3.9924
    -3.8957  -3.8370  -2.7364  -2.6677  -2.5318  -2.5092  -2.3644  -2.3084
    -1.2833  -1.1325  -1.0426  -0.9540  -0.9312  -0.7584  -0.1684  -0.0923
     0.6048   0.7995

     occupation numbers 
     1.0000   1.0000   1.0000   1.0000   1.0000   1.0000   1.0000   1.0000
     1.0000   1.0000   1.0000   1.0000   1.0000   1.0000   1.0000   1.0000
     1.0000   1.0000   1.0000   1.0000   1.0000   1.0000   1.0000   1.0000
     1.0000   1.0000   1.0000   1.0000   1.0000   1.0000   1.0000   1.0000
     1.0000   1.0000   1.0000   1.0000   1.0000   1.0000   1.0000   1.0000
     1.0000   1.0000

          k = 0.0169 0.0643-0.0936 ( 36547 PWs)   bands (ev):

   -16.0324 -15.8899 -15.2099 -15.1248 -13.9239 -13.8566 -12.4196 -12.3343
   -11.3769 -11.2296  -8.9371  -8.8859  -8.2127  -8.1281  -6.3544  -6.3068
    -5.3180  -5.2863  -4.9623  -4.8473  -4.2990  -4.2539  -4.1442  -4.0687
    -3.8798  -3.7835  -2.7268  -2.6883  -2.6561  -2.5139  -2.3224  -2.2429
    -1.2302  -1.1389  -1.0507  -0.9977  -0.8810  -0.7662  -0.2088  -0.0527
     0.6137   0.7973

     occupation numbers 
     1.0000   1.0000   1.0000   1.0000   1.0000   1.0000   1.0000   1.0000
     1.0000   1.0000   1.0000   1.0000   1.0000   1.0000   1.0000   1.0000
     1.0000   1.0000   1.0000   1.0000   1.0000   1.0000   1.0000   1.0000
     1.0000   1.0000   1.0000   1.0000   1.0000   1.0000   1.0000   1.0000
     1.0000   1.0000   1.0000   1.0000   1.0000   1.0000   1.0000   1.0000
     1.0000   1.0000

          k = 0.0169 0.0643-0.0265 ( 36489 PWs)   bands (ev):

   -16.1102 -15.9554 -15.2655 -15.1782 -13.9487 -13.8855 -12.4595 -12.3668
   -11.3747 -11.2135  -8.9310  -8.8569  -8.2041  -8.0907  -6.3786  -6.2808
    -5.3002  -5.2586  -5.0505  -4.9092  -4.3742  -4.2665  -4.2094  -3.9289
    -3.2447  -3.2334  -2.6571  -2.4650  -2.4058  -2.3502  -2.1264  -2.0350
    -1.0907  -1.0305  -0.9530  -0.8631  -0.8306  -0.7131   0.0037   0.0645
     0.5950   0.7238

     occupation numbers 
     1.0000   1.0000   1.0000   1.0000   1.0000   1.0000   1.0000   1.0000
     1.0000   1.0000   1.0000   1.0000   1.0000   1.0000   1.0000   1.0000
     1.0000   1.0000   1.0000   1.0000   1.0000   1.0000   1.0000   1.0000
     1.0000   1.0000   1.0000   1.0000   1.0000   1.0000   1.0000   1.0000
     1.0000   1.0000   1.0000   1.0000   1.0000   1.0000   1.0000   1.0000
     1.0000   1.0000

          k =-0.0169 0.0214-0.0407 ( 36525 PWs)   bands (ev):

   -16.1274 -15.9827 -15.2748 -15.1627 -13.9366 -13.8598 -12.3946 -12.3246
   -11.3496 -11.1982  -9.0547  -8.9347  -8.2834  -8.1371  -6.4196  -6.2856
    -5.3558  -5.2913  -5.0482  -4.7672  -4.2378  -4.1228  -3.9689  -3.8911
    -3.2053  -3.1709  -2.7243  -2.5932  -2.4632  -2.3669  -2.1513  -2.0175
    -1.3012  -1.1908  -0.9582  -0.8895  -0.8103  -0.6564  -0.0785   0.0003
     0.5201   0.7192

     occupation numbers 
     1.0000   1.0000   1.0000   1.0000   1.0000   1.0000   1.0000   1.0000
     1.0000   1.0000   1.0000   1.0000   1.0000   1.0000   1.0000   1.0000
     1.0000   1.0000   1.0000   1.0000   1.0000   1.0000   1.0000   1.0000
     1.0000   1.0000   1.0000   1.0000   1.0000   1.0000   1.0000   1.0000
     1.0000   1.0000   1.0000   1.0000   1.0000   1.0000   1.0000   1.0000
     1.0000   1.0000

          k =-0.0169 0.0214-0.1078 ( 36561 PWs)   bands (ev):

   -16.0424 -15.9112 -15.2165 -15.1189 -13.9255 -13.8340 -12.3708 -12.3139
   -11.3533 -11.2092  -9.0164  -8.9025  -8.2424  -8.1305  -6.3905  -6.3016
    -5.3511  -5.2935  -5.0215  -4.8910  -4.3137  -4.1880  -4.1534  -3.9546
    -3.7975  -3.6739  -2.8885  -2.7026  -2.6177  -2.4187  -2.3361  -2.2348
    -1.3525  -1.1878  -1.0947  -1.0177  -0.7789  -0.6400  -0.3664  -0.2075
     0.5680   0.7728

     occupation numbers 
     1.0000   1.0000   1.0000   1.0000   1.0000   1.0000   1.0000   1.0000
     1.0000   1.0000   1.0000   1.0000   1.0000   1.0000   1.0000   1.0000
     1.0000   1.0000   1.0000   1.0000   1.0000   1.0000   1.0000   1.0000
     1.0000   1.0000   1.0000   1.0000   1.0000   1.0000   1.0000   1.0000
     1.0000   1.0000   1.0000   1.0000   1.0000   1.0000   1.0000   1.0000
     1.0000   1.0000

          k =-0.0169 0.0214 0.0936 ( 36547 PWs)   bands (ev):

   -16.0463 -15.9069 -15.2238 -15.1120 -13.9192 -13.8392 -12.3775 -12.3058
   -11.3477 -11.2156  -8.9929  -8.9377  -8.2470  -8.1267  -6.3993  -6.2951
    -5.3451  -5.3001  -5.0620  -4.8030  -4.2706  -4.2322  -4.1625  -3.9970
    -3.7646  -3.7007  -2.8031  -2.6644  -2.6023  -2.4165  -2.3767  -2.3222
    -1.2824  -1.1766  -1.1157  -1.0492  -0.8068  -0.6574  -0.3201  -0.2475
     0.5724   0.7736

     occupation numbers 
     1.0000   1.0000   1.0000   1.0000   1.0000   1.0000   1.0000   1.0000
     1.0000   1.0000   1.0000   1.0000   1.0000   1.0000   1.0000   1.0000
     1.0000   1.0000   1.0000   1.0000   1.0000   1.0000   1.0000   1.0000
     1.0000   1.0000   1.0000   1.0000   1.0000   1.0000   1.0000   1.0000
     1.0000   1.0000   1.0000   1.0000   1.0000   1.0000   1.0000   1.0000
     1.0000   1.0000

          k =-0.0169 0.0214 0.0265 ( 36551 PWs)   bands (ev):

   -16.1316 -15.9776 -15.2835 -15.1551 -13.9313 -13.8634 -12.4017 -12.3175
   -11.3469 -11.1998  -9.0337  -8.9696  -8.3079  -8.1064  -6.4681  -6.2346
    -5.3531  -5.3002  -5.1257  -4.6427  -4.3089  -4.0879  -3.9436  -3.8551
    -3.2298  -3.1588  -2.8176  -2.5830  -2.4372  -2.2912  -2.1784  -2.0489
    -1.2607  -1.1510  -0.9830  -0.9283  -0.8542  -0.6486  -0.0483  -0.0307
     0.5342   0.7127

     occupation numbers 
     1.0000   1.0000   1.0000   1.0000   1.0000   1.0000   1.0000   1.0000
     1.0000   1.0000   1.0000   1.0000   1.0000   1.0000   1.0000   1.0000
     1.0000   1.0000   1.0000   1.0000   1.0000   1.0000   1.0000   1.0000
     1.0000   1.0000   1.0000   1.0000   1.0000   1.0000   1.0000   1.0000
     1.0000   1.0000   1.0000   1.0000   1.0000   1.0000   1.0000   1.0000
     1.0000   1.0000

          k =-0.0169 0.0643-0.0407 ( 36518 PWs)   bands (ev):

   -16.1099 -15.9559 -15.2638 -15.1797 -13.9501 -13.8836 -12.4610 -12.3671
   -11.3751 -11.2101  -8.9357  -8.8562  -8.1981  -8.1011  -6.3527  -6.2687
    -5.3016  -5.2555  -5.0852  -4.9606  -4.4314  -4.2930  -4.0518  -3.9159
    -3.2480  -3.2306  -2.6641  -2.5656  -2.3729  -2.3389  -2.1315  -1.9918
    -1.1199  -1.0064  -0.9371  -0.8692  -0.8201  -0.7350  -0.0024   0.0607
     0.5989   0.7281

     occupation numbers 
     1.0000   1.0000   1.0000   1.0000   1.0000   1.0000   1.0000   1.0000
     1.0000   1.0000   1.0000   1.0000   1.0000   1.0000   1.0000   1.0000
     1.0000   1.0000   1.0000   1.0000   1.0000   1.0000   1.0000   1.0000
     1.0000   1.0000   1.0000   1.0000   1.0000   1.0000   1.0000   1.0000
     1.0000   1.0000   1.0000   1.0000   1.0000   1.0000   1.0000   1.0000
     1.0000   1.0000

          k =-0.0169 0.0643-0.1078 ( 36558 PWs)   bands (ev):

   -16.0323 -15.8900 -15.2093 -15.1254 -13.9238 -13.8567 -12.4198 -12.3347
   -11.3766 -11.2288  -8.9394  -8.8859  -8.2138  -8.1272  -6.3397  -6.3087
    -5.3166  -5.2782  -4.9678  -4.8947  -4.3184  -4.2427  -4.1253  -3.9739
    -3.9233  -3.8281  -2.7385  -2.6532  -2.5764  -2.4644  -2.4057  -2.3016
    -1.2878  -1.1371  -0.9906  -0.9735  -0.9253  -0.7417  -0.2055  -0.0509
     0.6068   0.7946

     occupation numbers 
     1.0000   1.0000   1.0000   1.0000   1.0000   1.0000   1.0000   1.0000
     1.0000   1.0000   1.0000   1.0000   1.0000   1.0000   1.0000   1.0000
     1.0000   1.0000   1.0000   1.0000   1.0000   1.0000   1.0000   1.0000
     1.0000   1.0000   1.0000   1.0000   1.0000   1.0000   1.0000   1.0000
     1.0000   1.0000   1.0000   1.0000   1.0000   1.0000   1.0000   1.0000
     1.0000   1.0000

          k =-0.0169 0.0643 0.0936 ( 36547 PWs)   bands (ev):

   -16.0354 -15.8872 -15.2113 -15.1233 -13.9224 -13.8567 -12.4257 -12.3264
   -11.3755 -11.2321  -8.9238  -8.9118  -8.2066  -8.1344  -6.3692  -6.2854
    -5.3159  -5.2956  -4.9900  -4.8088  -4.3295  -4.2387  -4.1417  -4.0310
    -3.8792  -3.7821  -2.7376  -2.6892  -2.6577  -2.4956  -2.3080  -2.2457
    -1.2249  -1.1349  -1.0820  -1.0024  -0.8949  -0.7728  -0.1714  -0.0952
     0.6155   0.7989

     occupation numbers 
     1.0000   1.0000   1.0000   1.0000   1.0000   1.0000   1.0000   1.0000
     1.0000   1.0000   1.0000   1.0000   1.0000   1.0000   1.0000   1.0000
     1.0000   1.0000   1.0000   1.0000   1.0000   1.0000   1.0000   1.0000
     1.0000   1.0000   1.0000   1.0000   1.0000   1.0000   1.0000   1.0000
     1.0000   1.0000   1.0000   1.0000   1.0000   1.0000   1.0000   1.0000
     1.0000   1.0000

          k =-0.0169 0.0643 0.0265 ( 36489 PWs)   bands (ev):

   -16.1128 -15.9531 -15.2663 -15.1772 -13.9493 -13.8836 -12.4662 -12.3579
   -11.3763 -11.2136  -8.9156  -8.8834  -8.1911  -8.1059  -6.3926  -6.2636
    -5.3024  -5.2599  -5.0651  -4.8864  -4.3874  -4.2622  -4.1058  -4.0095
    -3.2592  -3.2131  -2.6522  -2.4903  -2.3800  -2.3168  -2.1353  -2.0401
    -1.0858  -1.0421  -0.9345  -0.9136  -0.8250  -0.7246   0.0242   0.0422
     0.5989   0.7211

     occupation numbers 
     1.0000   1.0000   1.0000   1.0000   1.0000   1.0000   1.0000   1.0000
     1.0000   1.0000   1.0000   1.0000   1.0000   1.0000   1.0000   1.0000
     1.0000   1.0000   1.0000   1.0000   1.0000   1.0000   1.0000   1.0000
     1.0000   1.0000   1.0000   1.0000   1.0000   1.0000   1.0000   1.0000
     1.0000   1.0000   1.0000   1.0000   1.0000   1.0000   1.0000   1.0000
     1.0000   1.0000

     highest occupied level (ev):     0.7995

!    total energy              =    -548.05009953 Ry
     Harris-Foulkes estimate   =    -548.05009957 Ry
     estimated scf accuracy    <       0.00000005 Ry

     total all-electron energy =     -4615.893587 Ry

     The total energy is the sum of the following terms:

     one-electron contribution =    -149.04080361 Ry
     hartree contribution      =     105.86747444 Ry
     xc contribution           =    -104.19642626 Ry
     ewald contribution        =    -144.89828570 Ry
     one-center paw contrib.   =    -255.78205841 Ry
      -> PAW hartree energy AE =      19.02422306 Ry
      -> PAW hartree energy PS =     -18.91983532 Ry
      -> PAW xc energy AE      =     -55.62943140 Ry
      -> PAW xc energy PS      =      10.08387885 Ry
      -> total E_H with PAW    =     105.97186218 Ry
      -> total E_XC with PAW   =    -149.74197882 Ry

     convergence has been achieved in  11 iterations
 writing file ./scratch/scf-1842.save/charge-density
 writing file ./scratch/scf-1842.save/charge-density
 writing file ./scratch/scf-1842.save/charge-density
 writing file ./scratch/scf-1842.save/charge-density
 writing file ./scratch/scf-1842.save/charge-density
 writing file ./scratch/scf-1842.save/charge-density
 writing file ./scratch/scf-1842.save/charge-density
 writing file ./scratch/scf-1842.save/charge-density
 writing file ./scratch/scf-1842.save/charge-density
 writing file ./scratch/scf-1842.save/charge-density
 writing file ./scratch/scf-1842.save/charge-density
 writing file ./scratch/scf-1842.save/charge-density
 writing file ./scratch/scf-1842.save/charge-density
 writing file ./scratch/scf-1842.save/charge-density
 writing file ./scratch/scf-1842.save/charge-density
 writing file ./scratch/scf-1842.save/charge-density
 writing file ./scratch/scf-1842.save/charge-density
 writing file ./scratch/scf-1842.save/charge-density
 writing file ./scratch/scf-1842.save/charge-density
 writing file ./scratch/scf-1842.save/charge-density
 writing file ./scratch/scf-1842.save/charge-density
 writing file ./scratch/scf-1842.save/charge-density
 writing file ./scratch/scf-1842.save/charge-density
 writing file ./scratch/scf-1842.save/charge-density
 writing file ./scratch/scf-1842.save/charge-density
 writing file ./scratch/scf-1842.save/charge-density
 writing file ./scratch/scf-1842.save/charge-density
 writing file ./scratch/scf-1842.save/charge-density
 writing file ./scratch/scf-1842.save/charge-density
 writing file ./scratch/scf-1842.save/charge-density
 writing file ./scratch/scf-1842.save/charge-density
 writing file ./scratch/scf-1842.save/charge-density

     Forces acting on atoms (cartesian axes, Ry/au):

     atom    1 type  2   force =    -0.03887867    0.01623651    0.00735512
     atom    2 type  1   force =     0.02700889   -0.01074171    0.00038535
     atom    3 type  1   force =     0.00025594   -0.00159396   -0.01385529
     atom    4 type  3   force =     0.00029668   -0.00143158   -0.00036996
     atom    5 type  1   force =    -0.01387510    0.01023245    0.01678276
     atom    6 type  3   force =     0.00289887    0.00058447   -0.00047994
     atom    7 type  3   force =     0.00094601    0.00212165    0.00177711
     atom    8 type  1   force =     0.00762981   -0.00934746   -0.01305020
     atom    9 type  3   force =     0.00233028    0.00071068   -0.00195968
     atom   10 type  1   force =     0.01109594    0.01646502    0.00280676
     atom   11 type  1   force =     0.01684829    0.02900266   -0.00835522
     atom   12 type  2   force =    -0.02627334   -0.04158769    0.00814769
     atom   13 type  3   force =    -0.00075063    0.00114596   -0.00158010
     atom   14 type  1   force =     0.01198675   -0.00603373   -0.01221148
     atom   15 type  3   force =     0.00281264    0.00202115   -0.00114540
     atom   16 type  1   force =     0.00609986   -0.01639456    0.00716563
     atom   17 type  1   force =    -0.01423997    0.00650600   -0.00837479
     atom   18 type  2   force =     0.02540183    0.00439159    0.01002111
     atom   19 type  3   force =    -0.00030642   -0.00110148   -0.00280330
     atom   20 type  1   force =    -0.00926918    0.00560926    0.00589018
     atom   21 type  3   force =    -0.00143961   -0.00103867    0.00336861
     atom   22 type  1   force =     0.01279285   -0.01094701   -0.01726833
     atom   23 type  1   force =     0.02036372    0.02430934    0.03047177
     atom   24 type  2   force =    -0.04373543   -0.01911889   -0.01271841
     The non-local contrib.  to forces
     atom    1 type  2   force =    -0.34302859    0.20556087    0.03073058
     atom    2 type  1   force =     0.42877294   -0.27740000   -0.00306734
     atom    3 type  1   force =    -0.04029878   -0.04083605   -0.05243297
     atom    4 type  3   force =    -0.06402260   -0.02865843   -0.03592991
     atom    5 type  1   force =    -0.05287814   -0.03850246   -0.01771187
     atom    6 type  3   force =     0.00206680   -0.07003628   -0.03499022
     atom    7 type  3   force =     0.00234626   -0.06669823    0.04136695
     atom    8 type  1   force =     0.05889558   -0.05168766    0.00390988
     atom    9 type  3   force =     0.06670553   -0.02332929    0.03493931
     atom   10 type  1   force =     0.05844821   -0.01392306    0.03598469
     atom   11 type  1   force =    -0.40367141   -0.23914316    0.00648988
     atom   12 type  2   force =     0.35761372    0.16165238   -0.01042206
     atom   13 type  3   force =    -0.00074025    0.07105111    0.03289158
     atom   14 type  1   force =     0.05257199    0.03470949    0.02153925
     atom   15 type  3   force =     0.06540182    0.02932522    0.03403995
     atom   16 type  1   force =     0.06575250    0.02520208    0.05192984
     atom   17 type  1   force =    -0.41458454    0.29478350   -0.03091506
     atom   18 type  2   force =     0.35005167   -0.19526955    0.03060379
     atom   19 type  3   force =    -0.00145240    0.06460200   -0.04425627
     atom   20 type  1   force =    -0.05018948    0.04411972   -0.03609508
     atom   21 type  3   force =    -0.06640333    0.02200134   -0.03721179
     atom   22 type  1   force =    -0.02981202    0.01515436   -0.08309916
     atom   23 type  1   force =     0.40553176    0.30967053    0.04694245
     atom   24 type  2   force =    -0.32898257   -0.22861434   -0.02762079
     The ionic contribution  to forces
     atom    1 type  2   force =     5.59386401   -2.98308089    0.36163767
     atom    2 type  1   force =     3.11314852   -1.67885389    0.63351718
     atom    3 type  1   force =     4.57871867    2.24593043    2.73192592
     atom    4 type  3   force =     2.05249878    0.95941661    1.16902982
     atom    5 type  1   force =     1.28858151    4.38662370    2.12568404
     atom    6 type  3   force =     0.21733685    2.02694278    1.20394910
     atom    7 type  3   force =    -0.39100931    2.01032454   -1.31725683
     atom    8 type  1   force =    -1.43012571    4.56058909   -2.38405980
     atom    9 type  3   force =    -2.11610838    0.96374544   -1.15788518
     atom   10 type  1   force =    -4.41450764    2.29102868   -2.72138635
     atom   11 type  1   force =    -2.35916574   -1.92331170   -0.50942098
     atom   12 type  2   force =    -7.07170246   -4.35244484   -0.70368739
     atom   13 type  3   force =     0.01441052   -2.06066179   -1.04837388
     atom   14 type  1   force =    -0.17507131   -4.41462003   -1.56288150
     atom   15 type  3   force =    -1.74694543   -1.03898311   -1.00855014
     atom   16 type  1   force =    -3.26883229   -2.38454483   -2.14663138
     atom   17 type  1   force =    -1.72968166    1.86325428    0.02561455
     atom   18 type  2   force =    -4.42827693    3.78736928   -0.27169062
     atom   19 type  3   force =     0.05256546   -1.97990885    1.24561657
     atom   20 type  1   force =     0.39280374   -4.48984040    1.93447238
     atom   21 type  3   force =     1.93190518   -0.74899314    1.10004772
     atom   22 type  1   force =     3.52272047   -1.82628082    2.38899621
     atom   23 type  1   force =     2.21116667    1.67819164   -0.48748307
     atom   24 type  2   force =     4.16170648    3.10810781    0.39881596
     The local contribution  to forces
     atom    1 type  2   force =    -5.30524689    2.80306016   -0.38352376
     atom    2 type  1   force =    -3.50345744    1.93798893   -0.63020588
     atom    3 type  1   force =    -4.53702075   -2.20667528   -2.69289443
     atom    4 type  3   force =    -1.98818200   -0.93220131   -1.13347340
     atom    5 type  1   force =    -1.25018876   -4.33659642   -2.09077752
     atom    6 type  3   force =    -0.21650918   -1.95630009   -1.16943525
     atom    7 type  3   force =     0.38959511   -1.94148567    1.27765419
     atom    8 type  1   force =     1.37944973   -4.51697927    2.36615105
     atom    9 type  3   force =     2.05173718   -0.93971254    1.12098882
     atom   10 type  1   force =     4.36648129   -2.26015189    2.68747613
     atom   11 type  1   force =     2.77006161    2.18501880    0.49488011
     atom   12 type  2   force =     6.70094965    4.15429792    0.72201702
     atom   13 type  3   force =    -0.01442150    1.99078672    1.01391222
     atom   14 type  1   force =     0.13509873    4.37245254    1.52879400
     atom   15 type  3   force =     1.68438028    1.01167739    0.97337396
     atom   16 type  1   force =     3.20858280    2.34215598    2.10137523
     atom   17 type  1   force =     2.11921360   -2.14363976   -0.00353462
     atom   18 type  2   force =     4.11873795   -3.59555341    0.25266376
     atom   19 type  3   force =    -0.05142320    1.91421776   -1.20417437
     atom   20 type  1   force =    -0.35252147    4.44978947   -1.89215613
     atom   21 type  3   force =    -1.86692479    0.72594071   -1.05945667
     atom   22 type  1   force =    -3.47913663    1.79970073   -2.32309916
     atom   23 type  1   force =    -2.58509194   -1.95562815    0.47103643
     atom   24 type  2   force =    -3.89115250   -2.90888796   -0.38532183
     The core correction contribution to forces
     atom    1 type  2   force =     0.01534786   -0.00918926   -0.00147657
     atom    2 type  1   force =    -0.01151358    0.00747621    0.00011364
     atom    3 type  1   force =    -0.00111884   -0.00013799   -0.00049014
     atom    4 type  3   force =     0.00000000    0.00000000    0.00000000
     atom    5 type  1   force =     0.00061547   -0.00131351   -0.00041498
     atom    6 type  3   force =     0.00000000    0.00000000    0.00000000
     atom    7 type  3   force =     0.00000000    0.00000000    0.00000000
     atom    8 type  1   force =    -0.00071053   -0.00125614    0.00089898
     atom    9 type  3   force =     0.00000000    0.00000000    0.00000000
     atom   10 type  1   force =     0.00055980   -0.00051474    0.00069136
     atom   11 type  1   force =     0.00960117    0.00642689   -0.00032821
     atom   12 type  2   force =    -0.01314667   -0.00506587    0.00018586
     atom   13 type  3   force =     0.00000000    0.00000000    0.00000000
     atom   14 type  1   force =    -0.00059089    0.00144109    0.00035388
     atom   15 type  3   force =     0.00000000    0.00000000    0.00000000
     atom   16 type  1   force =     0.00066489    0.00070333    0.00049065
     atom   17 type  1   force =     0.01080257   -0.00796952    0.00043215
     atom   18 type  2   force =    -0.01506084    0.00787624   -0.00153634
     atom   19 type  3   force =     0.00000000    0.00000000    0.00000000
     atom   20 type  1   force =     0.00059428    0.00144830   -0.00031945
     atom   21 type  3   force =     0.00000000    0.00000000    0.00000000
     atom   22 type  1   force =    -0.00098160    0.00036574   -0.00002473
     atom   23 type  1   force =    -0.01119515   -0.00790794   -0.00002391
     atom   24 type  2   force =     0.01483131    0.01033067    0.00145892
     The Hubbard contrib.    to forces
     atom    1 type  2   force =     0.00000000    0.00000000    0.00000000
     atom    2 type  1   force =     0.00000000    0.00000000    0.00000000
     atom    3 type  1   force =     0.00000000    0.00000000    0.00000000
     atom    4 type  3   force =     0.00000000    0.00000000    0.00000000
     atom    5 type  1   force =     0.00000000    0.00000000    0.00000000
     atom    6 type  3   force =     0.00000000    0.00000000    0.00000000
     atom    7 type  3   force =     0.00000000    0.00000000    0.00000000
     atom    8 type  1   force =     0.00000000    0.00000000    0.00000000
     atom    9 type  3   force =     0.00000000    0.00000000    0.00000000
     atom   10 type  1   force =     0.00000000    0.00000000    0.00000000
     atom   11 type  1   force =     0.00000000    0.00000000    0.00000000
     atom   12 type  2   force =     0.00000000    0.00000000    0.00000000
     atom   13 type  3   force =     0.00000000    0.00000000    0.00000000
     atom   14 type  1   force =     0.00000000    0.00000000    0.00000000
     atom   15 type  3   force =     0.00000000    0.00000000    0.00000000
     atom   16 type  1   force =     0.00000000    0.00000000    0.00000000
     atom   17 type  1   force =     0.00000000    0.00000000    0.00000000
     atom   18 type  2   force =     0.00000000    0.00000000    0.00000000
     atom   19 type  3   force =     0.00000000    0.00000000    0.00000000
     atom   20 type  1   force =     0.00000000    0.00000000    0.00000000
     atom   21 type  3   force =     0.00000000    0.00000000    0.00000000
     atom   22 type  1   force =     0.00000000    0.00000000    0.00000000
     atom   23 type  1   force =     0.00000000    0.00000000    0.00000000
     atom   24 type  2   force =     0.00000000    0.00000000    0.00000000
     The SCF correction term to forces
     atom    1 type  2   force =     0.00018345   -0.00011470   -0.00001323
     atom    2 type  1   force =     0.00005696    0.00004670    0.00002731
     atom    3 type  1   force =    -0.00002585    0.00012460    0.00003590
     atom    4 type  3   force =     0.00000102    0.00001121    0.00000309
     atom    5 type  1   force =    -0.00000666    0.00002080    0.00000265
     atom    6 type  3   force =     0.00000290   -0.00002228   -0.00000401
     atom    7 type  3   force =     0.00001246   -0.00001933    0.00001236
     atom    8 type  1   force =     0.00011925   -0.00001382    0.00004925
     atom    9 type  3   force =    -0.00000553    0.00000672   -0.00000307
     atom   10 type  1   force =     0.00011279    0.00002569    0.00004049
     atom   11 type  1   force =     0.00002118    0.00001149    0.00002354
     atom   12 type  2   force =     0.00001093   -0.00002763    0.00005382
     atom   13 type  3   force =    -0.00000089   -0.00003041   -0.00001046
     atom   14 type  1   force =    -0.00002327   -0.00001717   -0.00001755
     atom   15 type  3   force =    -0.00002552    0.00000130   -0.00000960
     atom   16 type  1   force =    -0.00006952    0.00008854    0.00000085
     atom   17 type  1   force =     0.00000857    0.00007716    0.00002775
     atom   18 type  2   force =    -0.00005151   -0.00003131   -0.00001991
     atom   19 type  3   force =     0.00000223   -0.00001273    0.00001034
     atom   20 type  1   force =     0.00004226    0.00009182   -0.00001199
     atom   21 type  3   force =    -0.00001815    0.00001208   -0.00001109
     atom   22 type  1   force =     0.00000114    0.00011263   -0.00004194
     atom   23 type  1   force =    -0.00004909   -0.00001708   -0.00000059
     atom   24 type  2   force =    -0.00013964   -0.00005541   -0.00005111

     Total force =     0.121624     Total SCF correction =     0.000435

     Writing output data file scf-1842.save
 writing file ./scratch/scf-1842.save/charge-density
 writing file ./scratch/scf-1842.save/charge-density
 writing file ./scratch/scf-1842.save/charge-density
 writing file ./scratch/scf-1842.save/charge-density
 writing file ./scratch/scf-1842.save/charge-density
 writing file ./scratch/scf-1842.save/charge-density
 writing file ./scratch/scf-1842.save/charge-density
 writing file ./scratch/scf-1842.save/charge-density
 writing file ./scratch/scf-1842.save/charge-density
 writing file ./scratch/scf-1842.save/charge-density
 writing file ./scratch/scf-1842.save/charge-density
 writing file ./scratch/scf-1842.save/charge-density
 writing file ./scratch/scf-1842.save/charge-density
 writing file ./scratch/scf-1842.save/charge-density
 writing file ./scratch/scf-1842.save/charge-density
 writing file ./scratch/scf-1842.save/charge-density
 writing file ./scratch/scf-1842.save/charge-density
 writing file ./scratch/scf-1842.save/charge-density
 writing file ./scratch/scf-1842.save/charge-density
 writing file ./scratch/scf-1842.save/charge-density
 writing file ./scratch/scf-1842.save/charge-density
 writing file ./scratch/scf-1842.save/charge-density
 writing file ./scratch/scf-1842.save/charge-density
 writing file ./scratch/scf-1842.save/charge-density
 writing file ./scratch/scf-1842.save/charge-density
 writing file ./scratch/scf-1842.save/charge-density
 writing file ./scratch/scf-1842.save/charge-density
 writing file ./scratch/scf-1842.save/charge-density
 writing file ./scratch/scf-1842.save/charge-density
 writing file ./scratch/scf-1842.save/charge-density
 writing file ./scratch/scf-1842.save/charge-density
 writing file ./scratch/scf-1842.save/charge-density
 
     init_run     :      4.50s CPU      4.71s WALL (       1 calls)
     electrons    :     50.09s CPU     52.92s WALL (       1 calls)
     forces       :      2.34s CPU      2.48s WALL (       1 calls)

     Called by init_run:
     wfcinit      :      1.62s CPU      1.64s WALL (       1 calls)
     wfcinit:atom :      0.01s CPU      0.02s WALL (      16 calls)
     wfcinit:wfcr :      1.52s CPU      1.52s WALL (      16 calls)
     potinit      :      0.98s CPU      1.01s WALL (       1 calls)

     Called by electrons:
     c_bands      :     39.16s CPU     39.42s WALL (      11 calls)
     sum_band     :      6.85s CPU      8.04s WALL (      11 calls)
     v_of_rho     :      0.89s CPU      0.97s WALL (      12 calls)
     v_h          :      0.05s CPU      0.06s WALL (      12 calls)
     v_xc         :      0.90s CPU      0.98s WALL (      13 calls)
     newd         :      1.55s CPU      2.87s WALL (      12 calls)
     PAW_pot      :      1.66s CPU      1.69s WALL (      12 calls)
     mix_rho      :      0.14s CPU      0.14s WALL (      11 calls)

     Called by c_bands:
     init_us_2    :      0.83s CPU      0.85s WALL (     384 calls)
     cegterg      :     36.87s CPU     37.05s WALL (     176 calls)

     Called by sum_band:
     sum_band:bec :      0.04s CPU      0.02s WALL (     176 calls)
     addusdens    :      1.53s CPU      2.65s WALL (      11 calls)

     Called by *egterg:
     h_psi        :     27.83s CPU     27.94s WALL (     864 calls)
     s_psi        :      1.98s CPU      1.94s WALL (     864 calls)
     g_psi        :      0.16s CPU      0.16s WALL (     672 calls)
     cdiaghg      :      3.44s CPU      3.41s WALL (     848 calls)
     cegterg:over :      1.51s CPU      1.58s WALL (     672 calls)
     cegterg:upda :      1.20s CPU      1.25s WALL (     672 calls)
     cegterg:last :      0.42s CPU      0.43s WALL (     192 calls)

     Called by h_psi:
     h_psi:pot    :     27.58s CPU     27.68s WALL (     864 calls)
     h_psi:calbec :      2.21s CPU      2.23s WALL (     864 calls)
     vloc_psi     :     23.43s CPU     23.55s WALL (     864 calls)
     add_vuspsi   :      1.94s CPU      1.89s WALL (     864 calls)

     General routines
     calbec       :      2.94s CPU      2.96s WALL (    1104 calls)
     fft          :      0.80s CPU      0.88s WALL (     199 calls)
     ffts         :      0.02s CPU      0.03s WALL (      23 calls)
     fftw         :     22.48s CPU     22.62s WALL (   55658 calls)
     interpolate  :      0.13s CPU      0.15s WALL (      23 calls)
     davcio       :      0.00s CPU      0.01s WALL (      16 calls)
 
     Parallel routines
     fft_scatter  :      8.92s CPU      9.04s WALL (   55880 calls)

     PAW routines
     PAW_pot      :      1.66s CPU      1.69s WALL (      12 calls)
 
     PWSCF        :  0m57.64s CPU     1m 1.21s WALL

 
   This run was terminated on:  13:53:49  20May2017            

=------------------------------------------------------------------------------=
   JOB DONE.
=------------------------------------------------------------------------------=
