
     Program PWSCF v.6.1 starts on 22May2017 at 15:56: 8 

     This program is part of the open-source Quantum ESPRESSO suite
     for quantum simulation of materials; please cite
         "P. Giannozzi et al., J. Phys.:Condens. Matter 21 395502 (2009);
          URL http://www.quantum-espresso.org", 
     in publications or presentations arising from this work. More details at
     http://www.quantum-espresso.org/quote

     Parallel version (MPI & OpenMP), running on      32 processor cores
     Number of MPI processes:                32
     Threads/MPI process:                     1
     R & G space division:  proc/nbgrp/npool/nimage =      32
     Waiting for input...
     Reading input from standard input
Warning: card &IONS ignored
Warning: card     ION_TEMPERATURE   = 'INITIAL' ignored
Warning: card     TEMPW             = 586.D0 ignored
Warning: card     TOLP              = 100.D0 ignored
Warning: card     DELTA_T           = 1.D0 ignored
Warning: card     NRAISE            = 1 ignored
Warning: card / ignored
Warning: card &CELL ignored
Warning: card     CELL_DYNAMICS     = 'BFGS' ignored
Warning: card / ignored

     Current dimensions of program PWSCF are:
     Max number of different atomic species (ntypx) = 10
     Max number of k-points (npk) =  40000
     Max angular momentum in pseudopotentials (lmaxx) =  3
               file C.pbe-n-kjpaw_psl.1.0.0.UPF: wavefunction(s)  2S 2P renormalized
               file Cl.pbe-n-kjpaw_psl.1.0.0.UPF: wavefunction(s)  3S 3P renormalized
               file H.pbe-kjpaw_psl.1.0.0.UPF: wavefunction(s)  1S renormalized

     Subspace diagonalization in iterative solution of the eigenvalue problem:
     a serial algorithm will be used

 
     Parallelization info
     --------------------
     sticks:   dense  smooth     PW     G-vecs:    dense   smooth      PW
     Min         764     305     83                36108     9133    1292
     Max         765     306     84                36110     9135    1293
     Sum       24467    9791   2657              1155489   292295   41363
 


     bravais-lattice index     =            0
     lattice parameter (alat)  =       1.8897  a.u.
     unit-cell volume          =    2163.5316 (a.u.)^3
     number of atoms/cell      =           24
     number of atomic types    =            3
     number of electrons       =        84.00
     number of Kohn-Sham states=           42
     kinetic-energy cutoff     =     100.0000  Ry
     charge density cutoff     =    1000.0000  Ry
     convergence threshold     =      1.0E-07
     mixing beta               =       0.7000
     number of iterations used =            8  plain     mixing
     Exchange-correlation      =  SLA  PW   PBX  PBC ( 1  4  3  4 0 0)

     celldm(1)=   1.889726  celldm(2)=   0.000000  celldm(3)=   0.000000
     celldm(4)=   0.000000  celldm(5)=   0.000000  celldm(6)=   0.000000

     crystal axes: (cart. coord. in units of alat)
               a(1) = (  14.762000   0.000000   0.000000 )  
               a(2) = (   0.000000   5.832000   0.000000 )  
               a(3) = (  -1.563876   0.000000   3.723951 )  

     reciprocal axes: (cart. coord. in units 2 pi/alat)
               b(1) = (  0.067741  0.000000  0.028448 )  
               b(2) = (  0.000000  0.171468  0.000000 )  
               b(3) = (  0.000000  0.000000  0.268532 )  


     PseudoPot. # 1 for  C read from file:
     /global/cscratch1/sd/almno10/.data/PSEUDOPOTENTIALS/C.pbe-n-kjpaw_psl.1.0.0.UPF
     MD5 check sum: 2ba8448e293caca687844dde9a1b88a8
     Pseudo is Projector augmented-wave + core cor, Zval =  4.0
     Generated using "atomic" code by A. Dal Corso  v.5.3.0 svn rev. 11974
     Shape of augmentation charge: PSQ
     Using radial grid of 1073 points,  4 beta functions with: 
                l(1) =   0
                l(2) =   0
                l(3) =   1
                l(4) =   1
     Q(r) pseudized with 0 coefficients 


     PseudoPot. # 2 for Cl read from file:
     /global/cscratch1/sd/almno10/.data/PSEUDOPOTENTIALS/Cl.pbe-n-kjpaw_psl.1.0.0.UPF
     MD5 check sum: dca63699d6b897c5771335df08a09219
     Pseudo is Projector augmented-wave + core cor, Zval =  7.0
     Generated using "atomic" code by A. Dal Corso  v.5.3.0 svn rev. 11974
     Shape of augmentation charge: PSQ
     Using radial grid of 1157 points,  6 beta functions with: 
                l(1) =   0
                l(2) =   0
                l(3) =   1
                l(4) =   1
                l(5) =   2
                l(6) =   2
     Q(r) pseudized with 0 coefficients 


     PseudoPot. # 3 for  H read from file:
     /global/cscratch1/sd/almno10/.data/PSEUDOPOTENTIALS/H.pbe-kjpaw_psl.1.0.0.UPF
     MD5 check sum: bc0feb48a24907a0b97fa6ee2d589a29
     Pseudo is Projector augmented-wave, Zval =  1.0
     Generated using "atomic" code by A. Dal Corso  v.5.3.0 svn rev. 11974
     Shape of augmentation charge: PSQ
     Using radial grid of  929 points,  2 beta functions with: 
                l(1) =   0
                l(2) =   0
     Q(r) pseudized with 0 coefficients 


     atomic species   valence    mass     pseudopotential
        C              4.00    12.01100      C( 1.00)
        Cl             7.00    35.45270     Cl( 1.00)
        H              1.00     1.00790      H( 1.00)

     No symmetry found


                                    s                        frac. trans.

      isym =  1     identity                                     

 cryst.   s( 1) = (     1          0          0      )
                  (     0          1          0      )
                  (     0          0          1      )

 cart.    s( 1) = (  1.0000000  0.0000000 -0.0000000 )
                  (  0.0000000  1.0000000  0.0000000 )
                  (  0.0000000  0.0000000  1.0000000 )


   Cartesian axes

     site n.     atom                  positions (alat units)
         1           Cl  tau(   1) = (  16.2414960   0.9486899   1.6275812  )
         2           C   tau(   2) = (  14.9415598   2.1292862   1.8230952  )
         3           C   tau(   3) = (  15.0191905   3.2808065   2.6053198  )
         4           H   tau(   4) = (  15.9018504   3.5516408   3.1819862  )
         5           C   tau(   5) = (  13.8794409   4.0808346   2.6586615  )
         6           H   tau(   6) = (  13.8821847   4.9891113   3.2590050  )
         7           H   tau(   7) = (   6.7234828   2.1037019   0.5932399  )
         8           C   tau(   8) = (   6.7467572   1.1618702   1.1376567  )
         9           H   tau(   9) = (   4.7599747   0.5876291   0.5255819  )
        10           C   tau(  10) = (   5.6411745   0.3114742   1.1025050  )
        11           C   tau(  11) = (   5.7254176  -0.8863128   1.8109358  )
        12           Cl  tau(  12) = (   4.2402157  -1.9258010   2.0656713  )
        13           H   tau(  13) = (  13.7847668   0.9271136   0.4829936  )
        14           C   tau(  14) = (  13.7805766   1.8083178   1.1211164  )
        15           H   tau(  15) = (  11.7830294   2.3939484   0.5615676  )
        16           C   tau(  16) = (  12.6768703   2.6617252   1.1199772  )
        17           C   tau(  17) = (  12.7271512   3.7652490   1.9402020  )
        18           Cl  tau(  18) = (  11.3973220   4.8391473   1.9842609  )
        19           H   tau(  19) = (   6.8991994  -2.1683012   3.0696228  )
        20           C   tau(  20) = (   6.8764471  -1.2281710   2.5206467  )
        21           H   tau(  21) = (   8.8566492  -0.6469068   3.1394219  )
        22           C   tau(  22) = (   7.9691932  -0.3650990   2.5768015  )
        23           C   tau(  23) = (   7.8886137   0.8287960   1.8632032  )
        24           Cl  tau(  24) = (   9.1366887   1.9499816   1.7942743  )

   Crystallographic axes

     site n.     atom                  positions (cryst. coord.)
         1           Cl  tau(   1) = (  1.1465248  0.1626697  0.4370576  )
         2           C   tau(   2) = (  1.0640272  0.3651039  0.4895594  )
         3           C   tau(   3) = (  1.0915388  0.5625526  0.6996117  )
         4           H   tau(   4) = (  1.1677366  0.6089919  0.8544650  )
         5           C   tau(   5) = (  1.0158479  0.6997316  0.7139356  )
         6           H   tau(   6) = (  1.0331124  0.8554718  0.8751470  )
         7           H   tau(   7) = (  0.4723353  0.3607171  0.1593039  )
         8           C   tau(   8) = (  0.4893996  0.1992233  0.3054972  )
         9           H   tau(   9) = (  0.3373996  0.1007594  0.1411355  )
        10           C   tau(  10) = (  0.4135058  0.0534078  0.2960578  )
        11           C   tau(  11) = (  0.4393660 -0.1519741  0.4862941  )
        12           Cl  tau(  12) = (  0.3460030 -0.3302128  0.5546988  )
        13           H   tau(  13) = (  0.9475410  0.1589701  0.1296992  )
        14           C   tau(  14) = (  0.9654105  0.3100682  0.3010556  )
        15           H   tau(  15) = (  0.8141756  0.4104850  0.1507989  )
        16           C   tau(  16) = (  0.8906114  0.4564001  0.3007497  )
        17           C   tau(  17) = (  0.9173513  0.6456188  0.5210063  )
        18           Cl  tau(  18) = (  0.8285201  0.8297578  0.5328375  )
        19           H   tau(  19) = (  0.5546870 -0.3717938  0.8242919  )
        20           C   tau(  20) = (  0.5375284 -0.2105917  0.6768742  )
        21           H   tau(  21) = (  0.6892732 -0.1109237  0.8430351  )
        22           C   tau(  22) = (  0.6131502 -0.0626027  0.6919536  )
        23           C   tau(  23) = (  0.5873911  0.1421118  0.5003296  )
        24           Cl  tau(  24) = (  0.6699766  0.3343590  0.4818200  )

     number of k points=    16
                       cart. coord. in units 2pi/alat
        k(    1) = (   0.0169354   0.0214335   0.0406785), wk =   0.1250000
        k(    2) = (   0.0169354   0.0214335   0.1078115), wk =   0.1250000
        k(    3) = (   0.0169354   0.0214335  -0.0935875), wk =   0.1250000
        k(    4) = (   0.0169354   0.0214335  -0.0264545), wk =   0.1250000
        k(    5) = (   0.0169354   0.0643004   0.0406785), wk =   0.1250000
        k(    6) = (   0.0169354   0.0643004   0.1078115), wk =   0.1250000
        k(    7) = (   0.0169354   0.0643004  -0.0935875), wk =   0.1250000
        k(    8) = (   0.0169354   0.0643004  -0.0264545), wk =   0.1250000
        k(    9) = (  -0.0169354   0.0214335  -0.0406785), wk =   0.1250000
        k(   10) = (  -0.0169354   0.0214335  -0.1078115), wk =   0.1250000
        k(   11) = (  -0.0169354   0.0214335   0.0935875), wk =   0.1250000
        k(   12) = (  -0.0169354   0.0214335   0.0264545), wk =   0.1250000
        k(   13) = (  -0.0169354   0.0643004  -0.0406785), wk =   0.1250000
        k(   14) = (  -0.0169354   0.0643004  -0.1078115), wk =   0.1250000
        k(   15) = (  -0.0169354   0.0643004   0.0935875), wk =   0.1250000
        k(   16) = (  -0.0169354   0.0643004   0.0264545), wk =   0.1250000

                       cryst. coord.
        k(    1) = (   0.2500000   0.1250000   0.1250000), wk =   0.1250000
        k(    2) = (   0.2500000   0.1250000   0.3750000), wk =   0.1250000
        k(    3) = (   0.2500000   0.1250000  -0.3750000), wk =   0.1250000
        k(    4) = (   0.2500000   0.1250000  -0.1250000), wk =   0.1250000
        k(    5) = (   0.2500000   0.3750000   0.1250000), wk =   0.1250000
        k(    6) = (   0.2500000   0.3750000   0.3750000), wk =   0.1250000
        k(    7) = (   0.2500000   0.3750000  -0.3750000), wk =   0.1250000
        k(    8) = (   0.2500000   0.3750000  -0.1250000), wk =   0.1250000
        k(    9) = (  -0.2500000   0.1250000  -0.1250000), wk =   0.1250000
        k(   10) = (  -0.2500000   0.1250000  -0.3750000), wk =   0.1250000
        k(   11) = (  -0.2500000   0.1250000   0.3750000), wk =   0.1250000
        k(   12) = (  -0.2500000   0.1250000   0.1250000), wk =   0.1250000
        k(   13) = (  -0.2500000   0.3750000  -0.1250000), wk =   0.1250000
        k(   14) = (  -0.2500000   0.3750000  -0.3750000), wk =   0.1250000
        k(   15) = (  -0.2500000   0.3750000   0.3750000), wk =   0.1250000
        k(   16) = (  -0.2500000   0.3750000   0.1250000), wk =   0.1250000

     Dense  grid:  1155489 G-vectors     FFT dimensions: ( 288, 120,  80)

     Smooth grid:   292295 G-vectors     FFT dimensions: ( 180,  72,  50)

     Estimated max dynamical RAM per process >     147.21MB

     Estimated total allocated dynamical RAM >    4710.62MB

     Initial potential from superposition of free atoms

     starting charge   83.99939, renormalised to   84.00000
     Starting wfc are   72 randomized atomic wfcs
     Checking if some PAW data can be deallocated... 
       node    0, deallocated PAW data for type:  1
       node    0, deallocated PAW data for type:  3
       node    1, deallocated PAW data for type:  1
       node    1, deallocated PAW data for type:  3
       node    2, deallocated PAW data for type:  2
       node    2, deallocated PAW data for type:  3
       node    3, deallocated PAW data for type:  2
       node    3, deallocated PAW data for type:  3
       node    4, deallocated PAW data for type:  2
       node    4, deallocated PAW data for type:  3
       node    5, deallocated PAW data for type:  2
       node    5, deallocated PAW data for type:  3
       node    6, deallocated PAW data for type:  1
       node    6, deallocated PAW data for type:  2
       node    7, deallocated PAW data for type:  1
       node    7, deallocated PAW data for type:  2
       node    8, deallocated PAW data for type:  2
       node    8, deallocated PAW data for type:  3
       node    9, deallocated PAW data for type:  2
       node    9, deallocated PAW data for type:  3
       node   10, deallocated PAW data for type:  1
       node   10, deallocated PAW data for type:  2
       node   11, deallocated PAW data for type:  1
       node   11, deallocated PAW data for type:  2
       node   12, deallocated PAW data for type:  1
       node   12, deallocated PAW data for type:  2
       node   13, deallocated PAW data for type:  1
       node   13, deallocated PAW data for type:  2
       node   14, deallocated PAW data for type:  2
       node   14, deallocated PAW data for type:  3
       node   15, deallocated PAW data for type:  2
       node   15, deallocated PAW data for type:  3
       node   16, deallocated PAW data for type:  1
       node   16, deallocated PAW data for type:  2
       node   17, deallocated PAW data for type:  2
       node   17, deallocated PAW data for type:  3
       node   18, deallocated PAW data for type:  2
       node   18, deallocated PAW data for type:  3
       node   19, deallocated PAW data for type:  1
       node   19, deallocated PAW data for type:  3
       node   20, deallocated PAW data for type:  1
       node   20, deallocated PAW data for type:  2
       node   21, deallocated PAW data for type:  2
       node   21, deallocated PAW data for type:  3
       node   22, deallocated PAW data for type:  1
       node   22, deallocated PAW data for type:  2
       node   23, deallocated PAW data for type:  2
       node   23, deallocated PAW data for type:  3
       node   24, deallocated PAW data for type:  2
       node   24, deallocated PAW data for type:  3
       node   25, deallocated PAW data for type:  1
       node   25, deallocated PAW data for type:  3
       node   26, deallocated PAW data for type:  1
       node   26, deallocated PAW data for type:  2
       node   27, deallocated PAW data for type:  2
       node   27, deallocated PAW data for type:  3
       node   28, deallocated PAW data for type:  1
       node   28, deallocated PAW data for type:  2
       node   29, deallocated PAW data for type:  2
       node   29, deallocated PAW data for type:  3
       node   30, deallocated PAW data for type:  2
       node   30, deallocated PAW data for type:  3
       node   31, deallocated PAW data for type:  1
       node   31, deallocated PAW data for type:  3

     total cpu time spent up to now is        5.3 secs

     per-process dynamical memory:    20.7 Mb

     Self-consistent Calculation

     iteration #  1     ecut=   100.00 Ry     beta= 0.70
     Davidson diagonalization with overlap
     ethr =  1.00E-04,  avg # of iterations =  5.0

     total cpu time spent up to now is       12.1 secs

     total energy              =    -547.11448041 Ry
     Harris-Foulkes estimate   =    -549.00480945 Ry
     estimated scf accuracy    <       2.75984541 Ry

     iteration #  2     ecut=   100.00 Ry     beta= 0.70
     Davidson diagonalization with overlap
     ethr =  3.29E-03,  avg # of iterations =  3.0

     total cpu time spent up to now is       17.0 secs

     total energy              =    -547.52390833 Ry
     Harris-Foulkes estimate   =    -548.61870619 Ry
     estimated scf accuracy    <       1.97885376 Ry

     iteration #  3     ecut=   100.00 Ry     beta= 0.70
     Davidson diagonalization with overlap
     ethr =  2.36E-03,  avg # of iterations =  3.0

     total cpu time spent up to now is       21.4 secs

     total energy              =    -548.01608199 Ry
     Harris-Foulkes estimate   =    -548.05639794 Ry
     estimated scf accuracy    <       0.08132633 Ry

     iteration #  4     ecut=   100.00 Ry     beta= 0.70
     Davidson diagonalization with overlap
     ethr =  9.68E-05,  avg # of iterations =  4.0

     total cpu time spent up to now is       26.3 secs

     total energy              =    -548.04246186 Ry
     Harris-Foulkes estimate   =    -548.05274157 Ry
     estimated scf accuracy    <       0.02028968 Ry

     iteration #  5     ecut=   100.00 Ry     beta= 0.70
     Davidson diagonalization with overlap
     ethr =  2.42E-05,  avg # of iterations =  3.0

     total cpu time spent up to now is       30.7 secs

     total energy              =    -548.04659220 Ry
     Harris-Foulkes estimate   =    -548.04719199 Ry
     estimated scf accuracy    <       0.00117415 Ry

     iteration #  6     ecut=   100.00 Ry     beta= 0.70
     Davidson diagonalization with overlap
     ethr =  1.40E-06,  avg # of iterations =  4.0

     total cpu time spent up to now is       35.6 secs

     total energy              =    -548.04682199 Ry
     Harris-Foulkes estimate   =    -548.04717498 Ry
     estimated scf accuracy    <       0.00080354 Ry

     iteration #  7     ecut=   100.00 Ry     beta= 0.70
     Davidson diagonalization with overlap
     ethr =  9.57E-07,  avg # of iterations =  4.0

     total cpu time spent up to now is       40.0 secs

     total energy              =    -548.04699503 Ry
     Harris-Foulkes estimate   =    -548.04705595 Ry
     estimated scf accuracy    <       0.00016592 Ry

     iteration #  8     ecut=   100.00 Ry     beta= 0.70
     Davidson diagonalization with overlap
     ethr =  1.98E-07,  avg # of iterations =  4.0

     total cpu time spent up to now is       44.4 secs

     total energy              =    -548.04702548 Ry
     Harris-Foulkes estimate   =    -548.04703454 Ry
     estimated scf accuracy    <       0.00002071 Ry

     iteration #  9     ecut=   100.00 Ry     beta= 0.70
     Davidson diagonalization with overlap
     ethr =  2.46E-08,  avg # of iterations =  4.0

     total cpu time spent up to now is       49.0 secs

     total energy              =    -548.04703028 Ry
     Harris-Foulkes estimate   =    -548.04703104 Ry
     estimated scf accuracy    <       0.00000171 Ry

     iteration # 10     ecut=   100.00 Ry     beta= 0.70
     Davidson diagonalization with overlap
     ethr =  2.03E-09,  avg # of iterations =  4.0

     total cpu time spent up to now is       53.7 secs

     total energy              =    -548.04703070 Ry
     Harris-Foulkes estimate   =    -548.04703090 Ry
     estimated scf accuracy    <       0.00000043 Ry

     iteration # 11     ecut=   100.00 Ry     beta= 0.70
     Davidson diagonalization with overlap
     ethr =  5.13E-10,  avg # of iterations =  4.0

     total cpu time spent up to now is       58.3 secs

     End of self-consistent calculation

          k = 0.0169 0.0214 0.0407 ( 36525 PWs)   bands (ev):

   -16.2946 -16.1472 -15.3983 -15.2325 -13.9367 -13.8679 -12.3423 -12.3195
   -11.2647 -11.2112  -9.0127  -8.9512  -8.2525  -8.1227  -6.3857  -6.2602
    -5.3419  -5.3055  -5.0533  -4.7993  -4.2947  -4.1339  -3.9505  -3.8737
    -3.2412  -3.2028  -2.7298  -2.6282  -2.4116  -2.3347  -2.2060  -2.1343
    -1.2340  -1.1203  -1.0424  -0.9802  -0.9136  -0.8089  -0.0343   0.0311
     0.5676   0.7084

     occupation numbers 
     1.0000   1.0000   1.0000   1.0000   1.0000   1.0000   1.0000   1.0000
     1.0000   1.0000   1.0000   1.0000   1.0000   1.0000   1.0000   1.0000
     1.0000   1.0000   1.0000   1.0000   1.0000   1.0000   1.0000   1.0000
     1.0000   1.0000   1.0000   1.0000   1.0000   1.0000   1.0000   1.0000
     1.0000   1.0000   1.0000   1.0000   1.0000   1.0000   1.0000   1.0000
     1.0000   1.0000

          k = 0.0169 0.0214 0.1078 ( 36561 PWs)   bands (ev):

   -16.2222 -16.0608 -15.3466 -15.1661 -13.9298 -13.8538 -12.3299 -12.3110
   -11.2693 -11.2194  -8.9708  -8.9112  -8.2106  -8.1103  -6.3857  -6.3387
    -5.3470  -5.3127  -5.0731  -4.9405  -4.3297  -4.2136  -4.1159  -4.0072
    -3.8054  -3.6956  -2.8802  -2.7591  -2.5788  -2.4218  -2.3704  -2.3111
    -1.3205  -1.1799  -1.1354  -0.9568  -0.8677  -0.8161  -0.2465  -0.1398
     0.7012   0.8267

     occupation numbers 
     1.0000   1.0000   1.0000   1.0000   1.0000   1.0000   1.0000   1.0000
     1.0000   1.0000   1.0000   1.0000   1.0000   1.0000   1.0000   1.0000
     1.0000   1.0000   1.0000   1.0000   1.0000   1.0000   1.0000   1.0000
     1.0000   1.0000   1.0000   1.0000   1.0000   1.0000   1.0000   1.0000
     1.0000   1.0000   1.0000   1.0000   1.0000   1.0000   1.0000   1.0000
     1.0000   1.0000

          k = 0.0169 0.0214-0.0936 ( 36547 PWs)   bands (ev):

   -16.2194 -16.0657 -15.3437 -15.1674 -13.9174 -13.8643 -12.3352 -12.3048
   -11.2590 -11.2331  -8.9492  -8.9365  -8.1933  -8.1331  -6.4106  -6.3084
    -5.3401  -5.3140  -5.0974  -4.8869  -4.3465  -4.2199  -4.1134  -4.0354
    -3.7829  -3.6975  -2.7942  -2.7221  -2.6270  -2.5056  -2.3474  -2.3208
    -1.2465  -1.2227  -1.1326  -0.9694  -0.9092  -0.8124  -0.2055  -0.1800
     0.7026   0.8267

     occupation numbers 
     1.0000   1.0000   1.0000   1.0000   1.0000   1.0000   1.0000   1.0000
     1.0000   1.0000   1.0000   1.0000   1.0000   1.0000   1.0000   1.0000
     1.0000   1.0000   1.0000   1.0000   1.0000   1.0000   1.0000   1.0000
     1.0000   1.0000   1.0000   1.0000   1.0000   1.0000   1.0000   1.0000
     1.0000   1.0000   1.0000   1.0000   1.0000   1.0000   1.0000   1.0000
     1.0000   1.0000

          k = 0.0169 0.0214-0.0265 ( 36551 PWs)   bands (ev):

   -16.2925 -16.1507 -15.3963 -15.2335 -13.9264 -13.8760 -12.3489 -12.3125
   -11.2601 -11.2182  -9.0061  -8.9643  -8.2573  -8.1161  -6.4280  -6.2102
    -5.3421  -5.3131  -5.1040  -4.7152  -4.3595  -4.0760  -3.9960  -3.7966
    -3.2651  -3.1845  -2.7782  -2.6049  -2.4394  -2.3047  -2.2333  -2.1176
    -1.2067  -1.1412  -1.0569  -0.9924  -0.8844  -0.8369  -0.0161   0.0102
     0.5772   0.6988

     occupation numbers 
     1.0000   1.0000   1.0000   1.0000   1.0000   1.0000   1.0000   1.0000
     1.0000   1.0000   1.0000   1.0000   1.0000   1.0000   1.0000   1.0000
     1.0000   1.0000   1.0000   1.0000   1.0000   1.0000   1.0000   1.0000
     1.0000   1.0000   1.0000   1.0000   1.0000   1.0000   1.0000   1.0000
     1.0000   1.0000   1.0000   1.0000   1.0000   1.0000   1.0000   1.0000
     1.0000   1.0000

          k = 0.0169 0.0643 0.0407 ( 36518 PWs)   bands (ev):

   -16.2651 -16.1263 -15.4054 -15.2415 -13.9722 -13.9038 -12.3819 -12.3511
   -11.2654 -11.2037  -8.9217  -8.8898  -8.1482  -8.0445  -6.3906  -6.3489
    -5.3101  -5.2952  -5.0733  -4.9499  -4.3211  -4.2848  -4.0416  -3.9293
    -3.3076  -3.2811  -2.6327  -2.5999  -2.4106  -2.3543  -2.1913  -2.0984
    -1.0967  -0.9645  -0.9319  -0.8977  -0.8581  -0.8056   0.0183   0.0581
     0.6379   0.6966

     occupation numbers 
     1.0000   1.0000   1.0000   1.0000   1.0000   1.0000   1.0000   1.0000
     1.0000   1.0000   1.0000   1.0000   1.0000   1.0000   1.0000   1.0000
     1.0000   1.0000   1.0000   1.0000   1.0000   1.0000   1.0000   1.0000
     1.0000   1.0000   1.0000   1.0000   1.0000   1.0000   1.0000   1.0000
     1.0000   1.0000   1.0000   1.0000   1.0000   1.0000   1.0000   1.0000
     1.0000   1.0000

          k = 0.0169 0.0643 0.1078 ( 36558 PWs)   bands (ev):

   -16.2037 -16.0490 -15.3460 -15.1702 -13.9431 -13.8753 -12.3490 -12.3221
   -11.2858 -11.2390  -8.9300  -8.9030  -8.1942  -8.1181  -6.3569  -6.3419
    -5.3289  -5.3055  -4.9457  -4.8819  -4.3247  -4.2816  -4.0224  -3.9904
    -3.9558  -3.8851  -2.7466  -2.6842  -2.6445  -2.5768  -2.3791  -2.3188
    -1.2736  -1.1247  -1.0259  -1.0115  -0.9191  -0.8367  -0.0706   0.0258
     0.7169   0.7910

     occupation numbers 
     1.0000   1.0000   1.0000   1.0000   1.0000   1.0000   1.0000   1.0000
     1.0000   1.0000   1.0000   1.0000   1.0000   1.0000   1.0000   1.0000
     1.0000   1.0000   1.0000   1.0000   1.0000   1.0000   1.0000   1.0000
     1.0000   1.0000   1.0000   1.0000   1.0000   1.0000   1.0000   1.0000
     1.0000   1.0000   1.0000   1.0000   1.0000   1.0000   1.0000   1.0000
     1.0000   1.0000

          k = 0.0169 0.0643-0.0936 ( 36547 PWs)   bands (ev):

   -16.2004 -16.0545 -15.3423 -15.1721 -13.9333 -13.8831 -12.3550 -12.3148
   -11.2786 -11.2504  -8.9324  -8.9035  -8.1745  -8.1416  -6.3837  -6.3131
    -5.3315  -5.3152  -4.9647  -4.8135  -4.3706  -4.2722  -4.0885  -3.9474
    -3.9137  -3.8556  -2.7781  -2.7297  -2.6743  -2.5568  -2.3540  -2.2684
    -1.2222  -1.1212  -1.0911  -1.0350  -0.8974  -0.8670  -0.0387  -0.0115
     0.7162   0.7984

     occupation numbers 
     1.0000   1.0000   1.0000   1.0000   1.0000   1.0000   1.0000   1.0000
     1.0000   1.0000   1.0000   1.0000   1.0000   1.0000   1.0000   1.0000
     1.0000   1.0000   1.0000   1.0000   1.0000   1.0000   1.0000   1.0000
     1.0000   1.0000   1.0000   1.0000   1.0000   1.0000   1.0000   1.0000
     1.0000   1.0000   1.0000   1.0000   1.0000   1.0000   1.0000   1.0000
     1.0000   1.0000

          k = 0.0169 0.0643-0.0265 ( 36489 PWs)   bands (ev):

   -16.2622 -16.1310 -15.4021 -15.2433 -13.9639 -13.9106 -12.3875 -12.3429
   -11.2599 -11.2150  -8.9194  -8.8933  -8.1252  -8.0698  -6.4241  -6.3328
    -5.3155  -5.2875  -5.0538  -4.8997  -4.3624  -4.2406  -4.0831  -3.9434
    -3.3376  -3.2504  -2.6255  -2.5385  -2.4261  -2.3623  -2.1905  -2.1075
    -1.1182  -1.0234  -0.9426  -0.8770  -0.8424  -0.7877   0.0127   0.0669
     0.6328   0.6927

     occupation numbers 
     1.0000   1.0000   1.0000   1.0000   1.0000   1.0000   1.0000   1.0000
     1.0000   1.0000   1.0000   1.0000   1.0000   1.0000   1.0000   1.0000
     1.0000   1.0000   1.0000   1.0000   1.0000   1.0000   1.0000   1.0000
     1.0000   1.0000   1.0000   1.0000   1.0000   1.0000   1.0000   1.0000
     1.0000   1.0000   1.0000   1.0000   1.0000   1.0000   1.0000   1.0000
     1.0000   1.0000

          k =-0.0169 0.0214-0.0407 ( 36525 PWs)   bands (ev):

   -16.2920 -16.1515 -15.3954 -15.2340 -13.9286 -13.8742 -12.3481 -12.3125
   -11.2583 -11.2213  -8.9935  -8.9734  -8.2364  -8.1452  -6.3931  -6.2464
    -5.3374  -5.3090  -5.0458  -4.7960  -4.2997  -4.1256  -4.0010  -3.8091
    -3.2655  -3.1720  -2.7160  -2.6554  -2.4269  -2.3162  -2.2184  -2.1170
    -1.2322  -1.1366  -1.0461  -0.9860  -0.9017  -0.8278  -0.0135   0.0103
     0.5631   0.7087

     occupation numbers 
     1.0000   1.0000   1.0000   1.0000   1.0000   1.0000   1.0000   1.0000
     1.0000   1.0000   1.0000   1.0000   1.0000   1.0000   1.0000   1.0000
     1.0000   1.0000   1.0000   1.0000   1.0000   1.0000   1.0000   1.0000
     1.0000   1.0000   1.0000   1.0000   1.0000   1.0000   1.0000   1.0000
     1.0000   1.0000   1.0000   1.0000   1.0000   1.0000   1.0000   1.0000
     1.0000   1.0000

          k =-0.0169 0.0214-0.1078 ( 36561 PWs)   bands (ev):

   -16.2192 -16.0660 -15.3430 -15.1679 -13.9216 -13.8602 -12.3356 -12.3041
   -11.2644 -11.2282  -8.9531  -8.9318  -8.1862  -8.1417  -6.4002  -6.3180
    -5.3447  -5.3112  -5.0600  -4.9393  -4.3335  -4.2128  -4.1353  -3.9970
    -3.7915  -3.6954  -2.8658  -2.7558  -2.5832  -2.4643  -2.3265  -2.3132
    -1.3216  -1.2038  -1.1206  -0.9643  -0.8733  -0.8259  -0.2132  -0.1772
     0.6974   0.8318

     occupation numbers 
     1.0000   1.0000   1.0000   1.0000   1.0000   1.0000   1.0000   1.0000
     1.0000   1.0000   1.0000   1.0000   1.0000   1.0000   1.0000   1.0000
     1.0000   1.0000   1.0000   1.0000   1.0000   1.0000   1.0000   1.0000
     1.0000   1.0000   1.0000   1.0000   1.0000   1.0000   1.0000   1.0000
     1.0000   1.0000   1.0000   1.0000   1.0000   1.0000   1.0000   1.0000
     1.0000   1.0000

          k =-0.0169 0.0214 0.0936 ( 36547 PWs)   bands (ev):

   -16.2224 -16.0605 -15.3473 -15.1656 -13.9270 -13.8567 -12.3292 -12.3119
   -11.2668 -11.2215  -8.9697  -8.9132  -8.2128  -8.1066  -6.4024  -6.3229
    -5.3389  -5.3186  -5.1095  -4.8893  -4.3395  -4.2126  -4.1274  -4.0245
    -3.7927  -3.7025  -2.7956  -2.7226  -2.6405  -2.4782  -2.3614  -2.3290
    -1.2668  -1.1760  -1.1567  -0.9681  -0.8857  -0.8066  -0.2435  -0.1367
     0.7057   0.8209

     occupation numbers 
     1.0000   1.0000   1.0000   1.0000   1.0000   1.0000   1.0000   1.0000
     1.0000   1.0000   1.0000   1.0000   1.0000   1.0000   1.0000   1.0000
     1.0000   1.0000   1.0000   1.0000   1.0000   1.0000   1.0000   1.0000
     1.0000   1.0000   1.0000   1.0000   1.0000   1.0000   1.0000   1.0000
     1.0000   1.0000   1.0000   1.0000   1.0000   1.0000   1.0000   1.0000
     1.0000   1.0000

          k =-0.0169 0.0214 0.0265 ( 36551 PWs)   bands (ev):

   -16.2951 -16.1464 -15.3994 -15.2319 -13.9359 -13.8682 -12.3424 -12.3205
   -11.2651 -11.2092  -9.0185  -8.9493  -8.2663  -8.1005  -6.4247  -6.2194
    -5.3442  -5.3112  -5.1094  -4.7248  -4.3594  -4.0739  -3.9582  -3.8483
    -3.2498  -3.2055  -2.7911  -2.5791  -2.4344  -2.3165  -2.2141  -2.1414
    -1.2046  -1.1323  -1.0524  -0.9803  -0.9048  -0.8125  -0.0355   0.0310
     0.5777   0.7013

     occupation numbers 
     1.0000   1.0000   1.0000   1.0000   1.0000   1.0000   1.0000   1.0000
     1.0000   1.0000   1.0000   1.0000   1.0000   1.0000   1.0000   1.0000
     1.0000   1.0000   1.0000   1.0000   1.0000   1.0000   1.0000   1.0000
     1.0000   1.0000   1.0000   1.0000   1.0000   1.0000   1.0000   1.0000
     1.0000   1.0000   1.0000   1.0000   1.0000   1.0000   1.0000   1.0000
     1.0000   1.0000

          k =-0.0169 0.0643-0.0407 ( 36518 PWs)   bands (ev):

   -16.2621 -16.1311 -15.4021 -15.2433 -13.9642 -13.9100 -12.3875 -12.3441
   -11.2581 -11.2148  -8.9192  -8.8955  -8.1196  -8.0791  -6.4026  -6.3311
    -5.3177  -5.2886  -5.0698  -4.9400  -4.3453  -4.2632  -4.0335  -3.9239
    -3.3379  -3.2470  -2.6386  -2.6026  -2.4254  -2.3338  -2.1670  -2.1153
    -1.0768  -0.9846  -0.9602  -0.8923  -0.8589  -0.8130   0.0114   0.0654
     0.6291   0.6997

     occupation numbers 
     1.0000   1.0000   1.0000   1.0000   1.0000   1.0000   1.0000   1.0000
     1.0000   1.0000   1.0000   1.0000   1.0000   1.0000   1.0000   1.0000
     1.0000   1.0000   1.0000   1.0000   1.0000   1.0000   1.0000   1.0000
     1.0000   1.0000   1.0000   1.0000   1.0000   1.0000   1.0000   1.0000
     1.0000   1.0000   1.0000   1.0000   1.0000   1.0000   1.0000   1.0000
     1.0000   1.0000

          k =-0.0169 0.0643-0.1078 ( 36558 PWs)   bands (ev):

   -16.2004 -16.0545 -15.3422 -15.1721 -13.9342 -13.8823 -12.3552 -12.3147
   -11.2798 -11.2489  -8.9332  -8.9035  -8.1696  -8.1471  -6.3796  -6.3116
    -5.3278  -5.3108  -4.9655  -4.8517  -4.3378  -4.2588  -4.0952  -3.9648
    -3.9230  -3.8556  -2.7640  -2.6969  -2.6334  -2.5609  -2.3973  -2.3006
    -1.2652  -1.1298  -1.0476  -1.0111  -0.9404  -0.8300  -0.0320  -0.0170
     0.7149   0.7941

     occupation numbers 
     1.0000   1.0000   1.0000   1.0000   1.0000   1.0000   1.0000   1.0000
     1.0000   1.0000   1.0000   1.0000   1.0000   1.0000   1.0000   1.0000
     1.0000   1.0000   1.0000   1.0000   1.0000   1.0000   1.0000   1.0000
     1.0000   1.0000   1.0000   1.0000   1.0000   1.0000   1.0000   1.0000
     1.0000   1.0000   1.0000   1.0000   1.0000   1.0000   1.0000   1.0000
     1.0000   1.0000

          k =-0.0169 0.0643 0.0936 ( 36547 PWs)   bands (ev):

   -16.2037 -16.0490 -15.3462 -15.1700 -13.9430 -13.8755 -12.3489 -12.3221
   -11.2862 -11.2389  -8.9288  -8.9035  -8.1943  -8.1174  -6.3680  -6.3365
    -5.3293  -5.3139  -4.9455  -4.8437  -4.3463  -4.3078  -4.0256  -3.9726
    -3.9343  -3.8838  -2.7587  -2.7354  -2.6660  -2.5720  -2.3256  -2.3019
    -1.2401  -1.0953  -1.0820  -1.0312  -0.9197  -0.8321  -0.0717   0.0261
     0.7231   0.7895

     occupation numbers 
     1.0000   1.0000   1.0000   1.0000   1.0000   1.0000   1.0000   1.0000
     1.0000   1.0000   1.0000   1.0000   1.0000   1.0000   1.0000   1.0000
     1.0000   1.0000   1.0000   1.0000   1.0000   1.0000   1.0000   1.0000
     1.0000   1.0000   1.0000   1.0000   1.0000   1.0000   1.0000   1.0000
     1.0000   1.0000   1.0000   1.0000   1.0000   1.0000   1.0000   1.0000
     1.0000   1.0000

          k =-0.0169 0.0643 0.0265 ( 36489 PWs)   bands (ev):

   -16.2652 -16.1261 -15.4056 -15.2413 -13.9731 -13.9032 -12.3810 -12.3509
   -11.2663 -11.2047  -8.9221  -8.8875  -8.1484  -8.0404  -6.4199  -6.3425
    -5.3078  -5.2931  -5.0508  -4.9179  -4.3622  -4.2580  -4.0471  -3.9705
    -3.3115  -3.2789  -2.6241  -2.5406  -2.4258  -2.3696  -2.1805  -2.1177
    -1.1295  -1.0003  -0.9498  -0.8640  -0.8387  -0.7776   0.0218   0.0580
     0.6358   0.6946

     occupation numbers 
     1.0000   1.0000   1.0000   1.0000   1.0000   1.0000   1.0000   1.0000
     1.0000   1.0000   1.0000   1.0000   1.0000   1.0000   1.0000   1.0000
     1.0000   1.0000   1.0000   1.0000   1.0000   1.0000   1.0000   1.0000
     1.0000   1.0000   1.0000   1.0000   1.0000   1.0000   1.0000   1.0000
     1.0000   1.0000   1.0000   1.0000   1.0000   1.0000   1.0000   1.0000
     1.0000   1.0000

     highest occupied level (ev):     0.8318

!    total energy              =    -548.04703079 Ry
     Harris-Foulkes estimate   =    -548.04703082 Ry
     estimated scf accuracy    <       0.00000004 Ry

     total all-electron energy =     -4615.890519 Ry

     The total energy is the sum of the following terms:

     one-electron contribution =    -157.47588438 Ry
     hartree contribution      =     110.08700942 Ry
     xc contribution           =    -104.26746254 Ry
     ewald contribution        =    -140.60605751 Ry
     one-center paw contrib.   =    -255.78463579 Ry
      -> PAW hartree energy AE =      19.16805000 Ry
      -> PAW hartree energy PS =     -19.06344099 Ry
      -> PAW xc energy AE      =     -55.65630101 Ry
      -> PAW xc energy PS      =      10.10992717 Ry
      -> total E_H with PAW    =     110.19161843 Ry
      -> total E_XC with PAW   =    -149.81383638 Ry

     convergence has been achieved in  11 iterations
 writing file ./scratch/scf-1425.save/charge-density
 writing file ./scratch/scf-1425.save/charge-density
 writing file ./scratch/scf-1425.save/charge-density
 writing file ./scratch/scf-1425.save/charge-density
 writing file ./scratch/scf-1425.save/charge-density
 writing file ./scratch/scf-1425.save/charge-density
 writing file ./scratch/scf-1425.save/charge-density
 writing file ./scratch/scf-1425.save/charge-density
 writing file ./scratch/scf-1425.save/charge-density
 writing file ./scratch/scf-1425.save/charge-density
 writing file ./scratch/scf-1425.save/charge-density
 writing file ./scratch/scf-1425.save/charge-density
 writing file ./scratch/scf-1425.save/charge-density
 writing file ./scratch/scf-1425.save/charge-density
 writing file ./scratch/scf-1425.save/charge-density
 writing file ./scratch/scf-1425.save/charge-density
 writing file ./scratch/scf-1425.save/charge-density
 writing file ./scratch/scf-1425.save/charge-density
 writing file ./scratch/scf-1425.save/charge-density
 writing file ./scratch/scf-1425.save/charge-density
 writing file ./scratch/scf-1425.save/charge-density
 writing file ./scratch/scf-1425.save/charge-density
 writing file ./scratch/scf-1425.save/charge-density
 writing file ./scratch/scf-1425.save/charge-density
 writing file ./scratch/scf-1425.save/charge-density
 writing file ./scratch/scf-1425.save/charge-density
 writing file ./scratch/scf-1425.save/charge-density
 writing file ./scratch/scf-1425.save/charge-density
 writing file ./scratch/scf-1425.save/charge-density
 writing file ./scratch/scf-1425.save/charge-density
 writing file ./scratch/scf-1425.save/charge-density
 writing file ./scratch/scf-1425.save/charge-density

     Forces acting on atoms (cartesian axes, Ry/au):

     atom    1 type  2   force =     0.00353341    0.02185013    0.01662047
     atom    2 type  1   force =    -0.00216906   -0.02302039   -0.00952876
     atom    3 type  1   force =    -0.00394240   -0.01067660   -0.00242834
     atom    4 type  3   force =     0.00195683   -0.00247699   -0.00224413
     atom    5 type  1   force =     0.00183478    0.01473535    0.00714326
     atom    6 type  3   force =     0.00374214   -0.00079630    0.00232746
     atom    7 type  3   force =    -0.00284657   -0.00029304   -0.00218337
     atom    8 type  1   force =    -0.01628350   -0.00660281   -0.00750009
     atom    9 type  3   force =    -0.00221377   -0.00109010    0.00356752
     atom   10 type  1   force =     0.00081099   -0.00639274    0.00181664
     atom   11 type  1   force =    -0.03299920   -0.01191455    0.02283846
     atom   12 type  2   force =     0.04440581    0.02790534   -0.02188533
     atom   13 type  3   force =    -0.00464678   -0.00254930    0.00191987
     atom   14 type  1   force =     0.00093980    0.00500168   -0.01861798
     atom   15 type  3   force =     0.00112922    0.00356665   -0.00298716
     atom   16 type  1   force =     0.00576554   -0.03733770    0.00728985
     atom   17 type  1   force =     0.02585757    0.01077820    0.00007162
     atom   18 type  2   force =    -0.02452894    0.02049760    0.00451586
     atom   19 type  3   force =     0.00171792    0.00166374    0.00206508
     atom   20 type  1   force =    -0.01201747   -0.01169915    0.00827573
     atom   21 type  3   force =    -0.00076394    0.00285772    0.00017346
     atom   22 type  1   force =    -0.00448692   -0.00334793   -0.01321092
     atom   23 type  1   force =    -0.04284143   -0.02438542   -0.00567528
     atom   24 type  2   force =     0.05804596    0.03372664    0.00763608
     The non-local contrib.  to forces
     atom    1 type  2   force =    -0.27536465    0.27837594    0.05979084
     atom    2 type  1   force =     0.37703164   -0.33758440   -0.03614236
     atom    3 type  1   force =    -0.03817765   -0.06195842   -0.05210768
     atom    4 type  3   force =    -0.06356055   -0.01988729   -0.04211842
     atom    5 type  1   force =    -0.02951725   -0.03848437   -0.03458996
     atom    6 type  3   force =    -0.00050132   -0.06552686   -0.04335429
     atom    7 type  3   force =     0.00218691   -0.06810924    0.03954510
     atom    8 type  1   force =     0.00283522   -0.05116329    0.03187279
     atom    9 type  3   force =     0.06347720   -0.02015182    0.04213802
     atom   10 type  1   force =     0.03826372   -0.06758234    0.03330855
     atom   11 type  1   force =    -0.42652759   -0.30821892    0.06440235
     atom   12 type  2   force =     0.31853591    0.21815020   -0.07560878
     atom   13 type  3   force =    -0.00022698    0.06344393    0.04646611
     atom   14 type  1   force =     0.02882730    0.04763681    0.01289747
     atom   15 type  3   force =     0.06466033    0.02009618    0.04062185
     atom   16 type  1   force =     0.03320726   -0.00936181    0.06202560
     atom   17 type  1   force =    -0.36105614    0.33813247    0.01570140
     atom   18 type  2   force =     0.30207660   -0.24873165   -0.00540050
     atom   19 type  3   force =    -0.00178328    0.06771622   -0.03951073
     atom   20 type  1   force =    -0.04062670    0.02312753   -0.04551736
     atom   21 type  3   force =    -0.06410545    0.02096462   -0.04108813
     atom   22 type  1   force =    -0.05035807    0.04119828   -0.06000125
     atom   23 type  1   force =     0.34265156    0.30454093   -0.00966167
     atom   24 type  2   force =    -0.27693026   -0.27196748    0.02886079
     The ionic contribution  to forces
     atom    1 type  2   force =     7.41202196   -4.22355558    1.03583457
     atom    2 type  1   force =     3.76201680   -1.52307993    0.95320076
     atom    3 type  1   force =     5.65250699    1.76748398    3.07807321
     atom    4 type  3   force =     2.25848531    0.69264647    1.36995924
     atom    5 type  1   force =     2.13128621    3.89528663    2.97192488
     atom    6 type  3   force =     0.51556122    1.92868909    1.41872399
     atom    7 type  3   force =    -0.59545179    1.95273160   -1.38468581
     atom    8 type  1   force =    -2.35833133    3.89333837   -2.83567855
     atom    9 type  3   force =    -2.24601122    0.75355807   -1.38017266
     atom   10 type  1   force =    -5.49756718    1.82306524   -3.11723197
     atom   11 type  1   force =    -3.67927947   -2.08508514   -1.23436600
     atom   12 type  2   force =    -6.84118555   -3.59270079   -0.75314300
     atom   13 type  3   force =    -0.06374939   -1.91763783   -1.30370511
     atom   14 type  1   force =    -0.33906032   -4.10148231   -1.82392414
     atom   15 type  3   force =    -1.85878789   -0.70687230   -1.18054964
     atom   16 type  1   force =    -3.38417068   -1.75360464   -2.70776058
     atom   17 type  1   force =    -1.41052054    1.50248912    0.33290511
     atom   18 type  2   force =    -4.65371279    4.42213212   -0.05030014
     atom   19 type  3   force =    -0.00859163   -1.93562726    1.13763477
     atom   20 type  1   force =     0.01123476   -4.00760198    1.71195946
     atom   21 type  3   force =     1.79516263   -0.66111830    1.18919054
     atom   22 type  1   force =     3.33721101   -1.69090628    2.43825983
     atom   23 type  1   force =     1.20351743    1.20692344    0.20699565
     atom   24 type  2   force =     4.85741549    4.36092823   -0.07314441
     The local contribution  to forces
     atom    1 type  2   force =    -7.14437613    3.97929195   -1.07600813
     atom    2 type  1   force =    -4.13084657    1.82925780   -0.92723903
     atom    3 type  1   force =    -5.61671857   -1.71659261   -3.02808781
     atom    4 type  3   force =    -2.19297367   -0.67524876   -1.33009243
     atom    5 type  1   force =    -2.09997532   -3.84120669   -2.92941779
     atom    6 type  3   force =    -0.51129568   -1.86394826   -1.37302989
     atom    7 type  3   force =     0.59042547   -1.88491084    1.34295947
     atom    8 type  1   force =     2.33895258   -3.84791146    2.79572160
     atom    9 type  3   force =     2.18030339   -0.73448826    1.34159169
     atom   10 type  1   force =     5.45883491   -1.76226131    3.08500911
     atom   11 type  1   force =     4.06135699    2.37264379    1.19375638
     atom   12 type  2   force =     6.58182598    3.41253407    0.80290316
     atom   13 type  3   force =     0.05934230    1.85164793    1.25916885
     atom   14 type  1   force =     0.31122325    4.05770728    1.79185656
     atom   15 type  3   force =     1.79524257    0.69032902    1.13693086
     atom   16 type  1   force =     3.35560572    1.72455322    2.65199669
     atom   17 type  1   force =     1.78824162   -1.82156928   -0.34749147
     atom   18 type  2   force =     4.33809594   -4.16193795    0.06016235
     atom   19 type  3   force =     0.01209920    1.86958175   -1.09606196
     atom   20 type  1   force =     0.01719335    3.97135238   -1.65799780
     atom   21 type  3   force =    -1.73184214    0.64301742   -1.14793990
     atom   22 type  1   force =    -3.29039244    1.64643538   -2.39106229
     atom   23 type  1   force =    -1.58052976   -1.52885891   -0.20292255
     atom   24 type  2   force =    -4.53141899   -4.06469768    0.05316787
     The core correction contribution to forces
     atom    1 type  2   force =     0.01119851   -0.01213868   -0.00294441
     atom    2 type  1   force =    -0.01028045    0.00837505    0.00069864
     atom    3 type  1   force =    -0.00143993    0.00032159   -0.00029144
     atom    4 type  3   force =     0.00000000    0.00000000    0.00000000
     atom    5 type  1   force =     0.00022225   -0.00085951   -0.00069944
     atom    6 type  3   force =     0.00000000    0.00000000    0.00000000
     atom    7 type  3   force =     0.00000000    0.00000000    0.00000000
     atom    8 type  1   force =     0.00034799   -0.00083710    0.00061409
     atom    9 type  3   force =     0.00000000    0.00000000    0.00000000
     atom   10 type  1   force =     0.00128391    0.00042948    0.00071189
     atom   11 type  1   force =     0.01149621    0.00871111   -0.00092954
     atom   12 type  2   force =    -0.01492461   -0.01017488    0.00392139
     atom   13 type  3   force =     0.00000000    0.00000000    0.00000000
     atom   14 type  1   force =     0.00006994    0.00107721    0.00059243
     atom   15 type  3   force =     0.00000000    0.00000000    0.00000000
     atom   16 type  1   force =     0.00113328    0.00096360    0.00098379
     atom   17 type  1   force =     0.00921436   -0.00826251   -0.00103364
     atom   18 type  2   force =    -0.01114909    0.00916703    0.00000674
     atom   19 type  3   force =     0.00000000    0.00000000    0.00000000
     atom   20 type  1   force =     0.00028168    0.00142491   -0.00013131
     atom   21 type  3   force =     0.00000000    0.00000000    0.00000000
     atom   22 type  1   force =    -0.00095969   -0.00006975   -0.00041726
     atom   23 type  1   force =    -0.00847068   -0.00700824   -0.00007251
     atom   24 type  2   force =     0.00881597    0.00939263   -0.00127277
     The Hubbard contrib.    to forces
     atom    1 type  2   force =     0.00000000    0.00000000    0.00000000
     atom    2 type  1   force =     0.00000000    0.00000000    0.00000000
     atom    3 type  1   force =     0.00000000    0.00000000    0.00000000
     atom    4 type  3   force =     0.00000000    0.00000000    0.00000000
     atom    5 type  1   force =     0.00000000    0.00000000    0.00000000
     atom    6 type  3   force =     0.00000000    0.00000000    0.00000000
     atom    7 type  3   force =     0.00000000    0.00000000    0.00000000
     atom    8 type  1   force =     0.00000000    0.00000000    0.00000000
     atom    9 type  3   force =     0.00000000    0.00000000    0.00000000
     atom   10 type  1   force =     0.00000000    0.00000000    0.00000000
     atom   11 type  1   force =     0.00000000    0.00000000    0.00000000
     atom   12 type  2   force =     0.00000000    0.00000000    0.00000000
     atom   13 type  3   force =     0.00000000    0.00000000    0.00000000
     atom   14 type  1   force =     0.00000000    0.00000000    0.00000000
     atom   15 type  3   force =     0.00000000    0.00000000    0.00000000
     atom   16 type  1   force =     0.00000000    0.00000000    0.00000000
     atom   17 type  1   force =     0.00000000    0.00000000    0.00000000
     atom   18 type  2   force =     0.00000000    0.00000000    0.00000000
     atom   19 type  3   force =     0.00000000    0.00000000    0.00000000
     atom   20 type  1   force =     0.00000000    0.00000000    0.00000000
     atom   21 type  3   force =     0.00000000    0.00000000    0.00000000
     atom   22 type  1   force =     0.00000000    0.00000000    0.00000000
     atom   23 type  1   force =     0.00000000    0.00000000    0.00000000
     atom   24 type  2   force =     0.00000000    0.00000000    0.00000000
     The SCF correction term to forces
     atom    1 type  2   force =     0.00005296   -0.00012387   -0.00005253
     atom    2 type  1   force =    -0.00009123    0.00001072   -0.00004691
     atom    3 type  1   force =    -0.00011399    0.00006849   -0.00001476
     atom    4 type  3   force =     0.00000499    0.00001222    0.00000733
     atom    5 type  1   force =    -0.00018186   -0.00000107   -0.00007456
     atom    6 type  3   force =    -0.00002283   -0.00001063   -0.00001249
     atom    7 type  3   force =    -0.00000792   -0.00000492   -0.00000226
     atom    8 type  1   force =    -0.00008872   -0.00002970   -0.00003016
     atom    9 type  3   force =     0.00001610   -0.00000845    0.00001032
     atom   10 type  1   force =    -0.00000512   -0.00004418    0.00001892
     atom   11 type  1   force =    -0.00004609    0.00003424   -0.00002488
     atom   12 type  2   force =     0.00015331    0.00009637    0.00004177
     atom   13 type  3   force =    -0.00001346   -0.00000370   -0.00001012
     atom   14 type  1   force =    -0.00012113    0.00006232   -0.00004043
     atom   15 type  3   force =     0.00001346    0.00001338    0.00000962
     atom   16 type  1   force =    -0.00001079    0.00011156    0.00004421
     atom   17 type  1   force =    -0.00002248   -0.00001196   -0.00000992
     atom   18 type  2   force =     0.00015965   -0.00013231    0.00004728
     atom   19 type  3   force =    -0.00000711   -0.00000734    0.00000287
     atom   20 type  1   force =    -0.00010131   -0.00000235   -0.00003740
     atom   21 type  3   force =     0.00002026   -0.00000639    0.00001082
     atom   22 type  1   force =     0.00001153   -0.00000593    0.00000991
     atom   23 type  1   force =    -0.00001074    0.00001699   -0.00001433
     atom   24 type  2   force =     0.00016299    0.00007057    0.00002446

     Total force =     0.136359     Total SCF correction =     0.000517

     Writing output data file scf-1425.save
 writing file ./scratch/scf-1425.save/charge-density
 writing file ./scratch/scf-1425.save/charge-density
 writing file ./scratch/scf-1425.save/charge-density
 writing file ./scratch/scf-1425.save/charge-density
 writing file ./scratch/scf-1425.save/charge-density
 writing file ./scratch/scf-1425.save/charge-density
 writing file ./scratch/scf-1425.save/charge-density
 writing file ./scratch/scf-1425.save/charge-density
 writing file ./scratch/scf-1425.save/charge-density
 writing file ./scratch/scf-1425.save/charge-density
 writing file ./scratch/scf-1425.save/charge-density
 writing file ./scratch/scf-1425.save/charge-density
 writing file ./scratch/scf-1425.save/charge-density
 writing file ./scratch/scf-1425.save/charge-density
 writing file ./scratch/scf-1425.save/charge-density
 writing file ./scratch/scf-1425.save/charge-density
 writing file ./scratch/scf-1425.save/charge-density
 writing file ./scratch/scf-1425.save/charge-density
 writing file ./scratch/scf-1425.save/charge-density
 writing file ./scratch/scf-1425.save/charge-density
 writing file ./scratch/scf-1425.save/charge-density
 writing file ./scratch/scf-1425.save/charge-density
 writing file ./scratch/scf-1425.save/charge-density
 writing file ./scratch/scf-1425.save/charge-density
 writing file ./scratch/scf-1425.save/charge-density
 writing file ./scratch/scf-1425.save/charge-density
 writing file ./scratch/scf-1425.save/charge-density
 writing file ./scratch/scf-1425.save/charge-density
 writing file ./scratch/scf-1425.save/charge-density
 writing file ./scratch/scf-1425.save/charge-density
 writing file ./scratch/scf-1425.save/charge-density
 writing file ./scratch/scf-1425.save/charge-density
 
     init_run     :      4.39s CPU      4.60s WALL (       1 calls)
     electrons    :     50.34s CPU     53.22s WALL (       1 calls)
     forces       :      2.33s CPU      2.47s WALL (       1 calls)

     Called by init_run:
     wfcinit      :      1.62s CPU      1.64s WALL (       1 calls)
     wfcinit:atom :      0.01s CPU      0.02s WALL (      16 calls)
     wfcinit:wfcr :      1.50s CPU      1.51s WALL (      16 calls)
     potinit      :      0.89s CPU      0.91s WALL (       1 calls)

     Called by electrons:
     c_bands      :     39.34s CPU     39.61s WALL (      11 calls)
     sum_band     :      6.90s CPU      8.12s WALL (      11 calls)
     v_of_rho     :      0.93s CPU      0.97s WALL (      12 calls)
     v_h          :      0.06s CPU      0.06s WALL (      12 calls)
     v_xc         :      0.94s CPU      0.98s WALL (      13 calls)
     newd         :      1.52s CPU      2.86s WALL (      12 calls)
     PAW_pot      :      1.64s CPU      1.69s WALL (      12 calls)
     mix_rho      :      0.14s CPU      0.14s WALL (      11 calls)

     Called by c_bands:
     init_us_2    :      0.82s CPU      0.86s WALL (     384 calls)
     cegterg      :     36.95s CPU     37.25s WALL (     176 calls)

     Called by sum_band:
     sum_band:bec :      0.00s CPU      0.02s WALL (     176 calls)
     addusdens    :      1.53s CPU      2.70s WALL (      11 calls)

     Called by *egterg:
     h_psi        :     27.56s CPU     27.79s WALL (     864 calls)
     s_psi        :      2.11s CPU      2.03s WALL (     864 calls)
     g_psi        :      0.11s CPU      0.16s WALL (     672 calls)
     cdiaghg      :      3.73s CPU      3.44s WALL (     848 calls)
     cegterg:over :      1.60s CPU      1.69s WALL (     672 calls)
     cegterg:upda :      1.20s CPU      1.28s WALL (     672 calls)
     cegterg:last :      0.36s CPU      0.44s WALL (     192 calls)

     Called by h_psi:
     h_psi:pot    :     27.35s CPU     27.52s WALL (     864 calls)
     h_psi:calbec :      2.56s CPU      2.26s WALL (     864 calls)
     vloc_psi     :     23.00s CPU     23.28s WALL (     864 calls)
     add_vuspsi   :      1.79s CPU      1.98s WALL (     864 calls)

     General routines
     calbec       :      3.38s CPU      3.01s WALL (    1104 calls)
     fft          :      0.76s CPU      0.78s WALL (     199 calls)
     ffts         :      0.02s CPU      0.03s WALL (      23 calls)
     fftw         :     20.99s CPU     21.28s WALL (   55690 calls)
     interpolate  :      0.14s CPU      0.15s WALL (      23 calls)
     davcio       :      0.00s CPU      0.01s WALL (      16 calls)
 
     Parallel routines
     fft_scatter  :      7.42s CPU      7.46s WALL (   55912 calls)

     PAW routines
     PAW_pot      :      1.64s CPU      1.69s WALL (      12 calls)
 
     PWSCF        :  0m57.72s CPU     1m 1.57s WALL

 
   This run was terminated on:  15:57: 9  22May2017            

=------------------------------------------------------------------------------=
   JOB DONE.
=------------------------------------------------------------------------------=
