
     Program PWSCF v.6.1 starts on 20May2017 at 13:29: 4 

     This program is part of the open-source Quantum ESPRESSO suite
     for quantum simulation of materials; please cite
         "P. Giannozzi et al., J. Phys.:Condens. Matter 21 395502 (2009);
          URL http://www.quantum-espresso.org", 
     in publications or presentations arising from this work. More details at
     http://www.quantum-espresso.org/quote

     Parallel version (MPI & OpenMP), running on      32 processor cores
     Number of MPI processes:                32
     Threads/MPI process:                     1
     R & G space division:  proc/nbgrp/npool/nimage =      32
     Waiting for input...
     Reading input from standard input
Warning: card &IONS ignored
Warning: card     ION_TEMPERATURE   = 'INITIAL' ignored
Warning: card     TEMPW             = 586.D0 ignored
Warning: card     TOLP              = 100.D0 ignored
Warning: card     DELTA_T           = 1.D0 ignored
Warning: card     NRAISE            = 1 ignored
Warning: card / ignored
Warning: card &CELL ignored
Warning: card     CELL_DYNAMICS     = 'BFGS' ignored
Warning: card / ignored

     Current dimensions of program PWSCF are:
     Max number of different atomic species (ntypx) = 10
     Max number of k-points (npk) =  40000
     Max angular momentum in pseudopotentials (lmaxx) =  3
               file C.pbe-n-kjpaw_psl.1.0.0.UPF: wavefunction(s)  2S 2P renormalized
               file Cl.pbe-n-kjpaw_psl.1.0.0.UPF: wavefunction(s)  3S 3P renormalized
               file H.pbe-kjpaw_psl.1.0.0.UPF: wavefunction(s)  1S renormalized

     Subspace diagonalization in iterative solution of the eigenvalue problem:
     a serial algorithm will be used

 
     Parallelization info
     --------------------
     sticks:   dense  smooth     PW     G-vecs:    dense   smooth      PW
     Min         764     305     83                36108     9133    1292
     Max         765     306     84                36110     9135    1293
     Sum       24467    9791   2657              1155489   292295   41363
 


     bravais-lattice index     =            0
     lattice parameter (alat)  =       1.8897  a.u.
     unit-cell volume          =    2163.5316 (a.u.)^3
     number of atoms/cell      =           24
     number of atomic types    =            3
     number of electrons       =        84.00
     number of Kohn-Sham states=           42
     kinetic-energy cutoff     =     100.0000  Ry
     charge density cutoff     =    1000.0000  Ry
     convergence threshold     =      1.0E-07
     mixing beta               =       0.7000
     number of iterations used =            8  plain     mixing
     Exchange-correlation      =  SLA  PW   PBX  PBC ( 1  4  3  4 0 0)

     celldm(1)=   1.889726  celldm(2)=   0.000000  celldm(3)=   0.000000
     celldm(4)=   0.000000  celldm(5)=   0.000000  celldm(6)=   0.000000

     crystal axes: (cart. coord. in units of alat)
               a(1) = (  14.762000   0.000000   0.000000 )  
               a(2) = (   0.000000   5.832000   0.000000 )  
               a(3) = (  -1.563876   0.000000   3.723951 )  

     reciprocal axes: (cart. coord. in units 2 pi/alat)
               b(1) = (  0.067741  0.000000  0.028448 )  
               b(2) = (  0.000000  0.171468  0.000000 )  
               b(3) = (  0.000000  0.000000  0.268532 )  


     PseudoPot. # 1 for  C read from file:
     /global/cscratch1/sd/almno10/.data/PSEUDOPOTENTIALS/C.pbe-n-kjpaw_psl.1.0.0.UPF
     MD5 check sum: 2ba8448e293caca687844dde9a1b88a8
     Pseudo is Projector augmented-wave + core cor, Zval =  4.0
     Generated using "atomic" code by A. Dal Corso  v.5.3.0 svn rev. 11974
     Shape of augmentation charge: PSQ
     Using radial grid of 1073 points,  4 beta functions with: 
                l(1) =   0
                l(2) =   0
                l(3) =   1
                l(4) =   1
     Q(r) pseudized with 0 coefficients 


     PseudoPot. # 2 for Cl read from file:
     /global/cscratch1/sd/almno10/.data/PSEUDOPOTENTIALS/Cl.pbe-n-kjpaw_psl.1.0.0.UPF
     MD5 check sum: dca63699d6b897c5771335df08a09219
     Pseudo is Projector augmented-wave + core cor, Zval =  7.0
     Generated using "atomic" code by A. Dal Corso  v.5.3.0 svn rev. 11974
     Shape of augmentation charge: PSQ
     Using radial grid of 1157 points,  6 beta functions with: 
                l(1) =   0
                l(2) =   0
                l(3) =   1
                l(4) =   1
                l(5) =   2
                l(6) =   2
     Q(r) pseudized with 0 coefficients 


     PseudoPot. # 3 for  H read from file:
     /global/cscratch1/sd/almno10/.data/PSEUDOPOTENTIALS/H.pbe-kjpaw_psl.1.0.0.UPF
     MD5 check sum: bc0feb48a24907a0b97fa6ee2d589a29
     Pseudo is Projector augmented-wave, Zval =  1.0
     Generated using "atomic" code by A. Dal Corso  v.5.3.0 svn rev. 11974
     Shape of augmentation charge: PSQ
     Using radial grid of  929 points,  2 beta functions with: 
                l(1) =   0
                l(2) =   0
     Q(r) pseudized with 0 coefficients 


     atomic species   valence    mass     pseudopotential
        C              4.00    12.01100      C( 1.00)
        Cl             7.00    35.45270     Cl( 1.00)
        H              1.00     1.00790      H( 1.00)

     No symmetry found


                                    s                        frac. trans.

      isym =  1     identity                                     

 cryst.   s( 1) = (     1          0          0      )
                  (     0          1          0      )
                  (     0          0          1      )

 cart.    s( 1) = (  1.0000000  0.0000000 -0.0000000 )
                  (  0.0000000  1.0000000  0.0000000 )
                  (  0.0000000  0.0000000  1.0000000 )


   Cartesian axes

     site n.     atom                  positions (alat units)
         1           Cl  tau(   1) = (  16.4858316   1.2764854   2.0612278  )
         2           C   tau(   2) = (  15.0009907   2.3599448   1.9438203  )
         3           C   tau(   3) = (  14.9645485   3.4730352   2.7828528  )
         4           H   tau(   4) = (  15.7748671   3.6571916   3.4866169  )
         5           C   tau(   5) = (  13.9737004   4.4358391   2.5927580  )
         6           H   tau(   6) = (  13.9314206   5.3063750   3.2450317  )
         7           H   tau(   7) = (   6.2373002   1.8098552   0.7372652  )
         8           C   tau(   8) = (   6.3913608   0.8857624   1.2907940  )
         9           H   tau(   9) = (   4.3295680   0.2700149   1.1409865  )
        10           C   tau(  10) = (   5.3345723  -0.0093596   1.4560124  )
        11           C   tau(  11) = (   5.5180745  -1.2011312   2.1564637  )
        12           Cl  tau(  12) = (   4.0443485  -2.0940007   2.4489335  )
        13           H   tau(  13) = (  13.9263764   1.1472480   0.5088786  )
        14           C   tau(  14) = (  13.9582542   2.0861310   1.0585609  )
        15           H   tau(  15) = (  12.0632675   2.7757027   0.2970949  )
        16           C   tau(  16) = (  12.8820338   2.9712709   0.9850843  )
        17           C   tau(  17) = (  12.9419381   4.1758167   1.6909352  )
        18           Cl  tau(  18) = (  11.6469551   5.2377100   1.4111696  )
        19           H   tau(  19) = (   6.9500880  -2.5536952   3.0881769  )
        20           C   tau(  20) = (   6.7881130  -1.6195625   2.5528550  )
        21           H   tau(  21) = (   8.8507167  -1.0102233   2.6794674  )
        22           C   tau(  22) = (   7.8441777  -0.7269073   2.3795239  )
        23           C   tau(  23) = (   7.6574667   0.4773925   1.7041260  )
        24           Cl  tau(  24) = (   9.0626727   1.4828543   1.4336686  )

   Crystallographic axes

     site n.     atom                  positions (cryst. coord.)
         1           Cl  tau(   1) = (  1.1754129  0.2188761  0.5535056  )
         2           C   tau(   2) = (  1.0714876  0.4046545  0.5219779  )
         3           C   tau(   3) = (  1.0928878  0.5955136  0.7472849  )
         4           H   tau(   4) = (  1.1678007  0.6270905  0.9362681  )
         5           C   tau(   5) = (  1.0203584  0.7606034  0.6962384  )
         6           H   tau(   6) = (  1.0360502  0.9098722  0.8713948  )
         7           H   tau(   7) = (  0.4434978  0.3103318  0.1979793  )
         8           C   tau(   8) = (  0.4696810  0.1518797  0.3466195  )
         9           H   tau(   9) = (  0.3257503  0.0462988  0.3063914  )
        10           C   tau(  10) = (  0.4027927 -0.0016049  0.3909859  )
        11           C   tau(  11) = (  0.4351499 -0.2059553  0.5790794  )
        12           Cl  tau(  12) = (  0.3436377 -0.3590536  0.6576169  )
        13           H   tau(  13) = (  0.9578702  0.1967160  0.1366502  )
        14           C   tau(  14) = (  0.9756671  0.3577042  0.2842574  )
        15           H   tau(  15) = (  0.8256356  0.4759435  0.0797795  )
        16           C   tau(  16) = (  0.9006720  0.5094772  0.2645266  )
        17           C   tau(  17) = (  0.9248101  0.7160180  0.4540702  )
        18           Cl  tau(  18) = (  0.8291273  0.8980984  0.3789441  )
        19           H   tau(  19) = (  0.5586621 -0.4378764  0.8292742  )
        20           C   tau(  20) = (  0.5324608 -0.2777028  0.6855232  )
        21           H   tau(  21) = (  0.6757865 -0.1732207  0.7195227  )
        22           C   tau(  22) = (  0.5990692 -0.1246412  0.6389782  )
        23           C   tau(  23) = (  0.5672074  0.0818574  0.4576123  )
        24           Cl  tau(  24) = (  0.6547042  0.2542617  0.3849859  )

     number of k points=    16
                       cart. coord. in units 2pi/alat
        k(    1) = (   0.0169354   0.0214335   0.0406785), wk =   0.1250000
        k(    2) = (   0.0169354   0.0214335   0.1078115), wk =   0.1250000
        k(    3) = (   0.0169354   0.0214335  -0.0935875), wk =   0.1250000
        k(    4) = (   0.0169354   0.0214335  -0.0264545), wk =   0.1250000
        k(    5) = (   0.0169354   0.0643004   0.0406785), wk =   0.1250000
        k(    6) = (   0.0169354   0.0643004   0.1078115), wk =   0.1250000
        k(    7) = (   0.0169354   0.0643004  -0.0935875), wk =   0.1250000
        k(    8) = (   0.0169354   0.0643004  -0.0264545), wk =   0.1250000
        k(    9) = (  -0.0169354   0.0214335  -0.0406785), wk =   0.1250000
        k(   10) = (  -0.0169354   0.0214335  -0.1078115), wk =   0.1250000
        k(   11) = (  -0.0169354   0.0214335   0.0935875), wk =   0.1250000
        k(   12) = (  -0.0169354   0.0214335   0.0264545), wk =   0.1250000
        k(   13) = (  -0.0169354   0.0643004  -0.0406785), wk =   0.1250000
        k(   14) = (  -0.0169354   0.0643004  -0.1078115), wk =   0.1250000
        k(   15) = (  -0.0169354   0.0643004   0.0935875), wk =   0.1250000
        k(   16) = (  -0.0169354   0.0643004   0.0264545), wk =   0.1250000

                       cryst. coord.
        k(    1) = (   0.2500000   0.1250000   0.1250000), wk =   0.1250000
        k(    2) = (   0.2500000   0.1250000   0.3750000), wk =   0.1250000
        k(    3) = (   0.2500000   0.1250000  -0.3750000), wk =   0.1250000
        k(    4) = (   0.2500000   0.1250000  -0.1250000), wk =   0.1250000
        k(    5) = (   0.2500000   0.3750000   0.1250000), wk =   0.1250000
        k(    6) = (   0.2500000   0.3750000   0.3750000), wk =   0.1250000
        k(    7) = (   0.2500000   0.3750000  -0.3750000), wk =   0.1250000
        k(    8) = (   0.2500000   0.3750000  -0.1250000), wk =   0.1250000
        k(    9) = (  -0.2500000   0.1250000  -0.1250000), wk =   0.1250000
        k(   10) = (  -0.2500000   0.1250000  -0.3750000), wk =   0.1250000
        k(   11) = (  -0.2500000   0.1250000   0.3750000), wk =   0.1250000
        k(   12) = (  -0.2500000   0.1250000   0.1250000), wk =   0.1250000
        k(   13) = (  -0.2500000   0.3750000  -0.1250000), wk =   0.1250000
        k(   14) = (  -0.2500000   0.3750000  -0.3750000), wk =   0.1250000
        k(   15) = (  -0.2500000   0.3750000   0.3750000), wk =   0.1250000
        k(   16) = (  -0.2500000   0.3750000   0.1250000), wk =   0.1250000

     Dense  grid:  1155489 G-vectors     FFT dimensions: ( 288, 120,  80)

     Smooth grid:   292295 G-vectors     FFT dimensions: ( 180,  72,  50)

     Estimated max dynamical RAM per process >     147.21MB

     Estimated total allocated dynamical RAM >    4710.62MB

     Initial potential from superposition of free atoms

     starting charge   83.99939, renormalised to   84.00000
     Starting wfc are   72 randomized atomic wfcs
     Checking if some PAW data can be deallocated... 
       node    0, deallocated PAW data for type:  1
       node    0, deallocated PAW data for type:  3
       node    1, deallocated PAW data for type:  1
       node    1, deallocated PAW data for type:  3
       node    2, deallocated PAW data for type:  2
       node    2, deallocated PAW data for type:  3
       node    3, deallocated PAW data for type:  2
       node    3, deallocated PAW data for type:  3
       node    4, deallocated PAW data for type:  2
       node    4, deallocated PAW data for type:  3
       node    5, deallocated PAW data for type:  2
       node    5, deallocated PAW data for type:  3
       node    6, deallocated PAW data for type:  1
       node    6, deallocated PAW data for type:  2
       node    7, deallocated PAW data for type:  1
       node    7, deallocated PAW data for type:  2
       node    8, deallocated PAW data for type:  2
       node    8, deallocated PAW data for type:  3
       node    9, deallocated PAW data for type:  2
       node    9, deallocated PAW data for type:  3
       node   10, deallocated PAW data for type:  1
       node   10, deallocated PAW data for type:  2
       node   11, deallocated PAW data for type:  1
       node   11, deallocated PAW data for type:  2
       node   12, deallocated PAW data for type:  1
       node   12, deallocated PAW data for type:  2
       node   13, deallocated PAW data for type:  1
       node   13, deallocated PAW data for type:  2
       node   14, deallocated PAW data for type:  2
       node   14, deallocated PAW data for type:  3
       node   15, deallocated PAW data for type:  2
       node   15, deallocated PAW data for type:  3
       node   16, deallocated PAW data for type:  1
       node   16, deallocated PAW data for type:  2
       node   17, deallocated PAW data for type:  2
       node   17, deallocated PAW data for type:  3
       node   18, deallocated PAW data for type:  2
       node   18, deallocated PAW data for type:  3
       node   19, deallocated PAW data for type:  1
       node   19, deallocated PAW data for type:  3
       node   20, deallocated PAW data for type:  1
       node   20, deallocated PAW data for type:  2
       node   21, deallocated PAW data for type:  2
       node   21, deallocated PAW data for type:  3
       node   22, deallocated PAW data for type:  1
       node   22, deallocated PAW data for type:  2
       node   23, deallocated PAW data for type:  2
       node   23, deallocated PAW data for type:  3
       node   24, deallocated PAW data for type:  2
       node   24, deallocated PAW data for type:  3
       node   25, deallocated PAW data for type:  1
       node   25, deallocated PAW data for type:  3
       node   26, deallocated PAW data for type:  1
       node   26, deallocated PAW data for type:  2
       node   27, deallocated PAW data for type:  2
       node   27, deallocated PAW data for type:  3
       node   28, deallocated PAW data for type:  1
       node   28, deallocated PAW data for type:  2
       node   29, deallocated PAW data for type:  2
       node   29, deallocated PAW data for type:  3
       node   30, deallocated PAW data for type:  2
       node   30, deallocated PAW data for type:  3
       node   31, deallocated PAW data for type:  1
       node   31, deallocated PAW data for type:  3

     total cpu time spent up to now is        5.2 secs

     per-process dynamical memory:    20.7 Mb

     Self-consistent Calculation

     iteration #  1     ecut=   100.00 Ry     beta= 0.70
     Davidson diagonalization with overlap
     ethr =  1.00E-04,  avg # of iterations =  5.0

     total cpu time spent up to now is       11.8 secs

     total energy              =    -547.12524711 Ry
     Harris-Foulkes estimate   =    -548.98705904 Ry
     estimated scf accuracy    <       2.72562215 Ry

     iteration #  2     ecut=   100.00 Ry     beta= 0.70
     Davidson diagonalization with overlap
     ethr =  3.24E-03,  avg # of iterations =  3.0

     total cpu time spent up to now is       16.7 secs

     total energy              =    -547.52276756 Ry
     Harris-Foulkes estimate   =    -548.60672573 Ry
     estimated scf accuracy    <       1.95964611 Ry

     iteration #  3     ecut=   100.00 Ry     beta= 0.70
     Davidson diagonalization with overlap
     ethr =  2.33E-03,  avg # of iterations =  3.0

     total cpu time spent up to now is       21.0 secs

     total energy              =    -548.00935484 Ry
     Harris-Foulkes estimate   =    -548.05256155 Ry
     estimated scf accuracy    <       0.08653226 Ry

     iteration #  4     ecut=   100.00 Ry     beta= 0.70
     Davidson diagonalization with overlap
     ethr =  1.03E-04,  avg # of iterations =  4.0

     total cpu time spent up to now is       25.8 secs

     total energy              =    -548.03693693 Ry
     Harris-Foulkes estimate   =    -548.04802347 Ry
     estimated scf accuracy    <       0.02208329 Ry

     iteration #  5     ecut=   100.00 Ry     beta= 0.70
     Davidson diagonalization with overlap
     ethr =  2.63E-05,  avg # of iterations =  3.0

     total cpu time spent up to now is       30.1 secs

     total energy              =    -548.04149614 Ry
     Harris-Foulkes estimate   =    -548.04186604 Ry
     estimated scf accuracy    <       0.00081663 Ry

     iteration #  6     ecut=   100.00 Ry     beta= 0.70
     Davidson diagonalization with overlap
     ethr =  9.72E-07,  avg # of iterations =  3.9

     total cpu time spent up to now is       34.9 secs

     total energy              =    -548.04175046 Ry
     Harris-Foulkes estimate   =    -548.04180849 Ry
     estimated scf accuracy    <       0.00011625 Ry

     iteration #  7     ecut=   100.00 Ry     beta= 0.70
     Davidson diagonalization with overlap
     ethr =  1.38E-07,  avg # of iterations =  4.0

     total cpu time spent up to now is       39.5 secs

     total energy              =    -548.04178106 Ry
     Harris-Foulkes estimate   =    -548.04179630 Ry
     estimated scf accuracy    <       0.00003395 Ry

     iteration #  8     ecut=   100.00 Ry     beta= 0.70
     Davidson diagonalization with overlap
     ethr =  4.04E-08,  avg # of iterations =  4.0

     total cpu time spent up to now is       44.1 secs

     total energy              =    -548.04178887 Ry
     Harris-Foulkes estimate   =    -548.04179084 Ry
     estimated scf accuracy    <       0.00000451 Ry

     iteration #  9     ecut=   100.00 Ry     beta= 0.70
     Davidson diagonalization with overlap
     ethr =  5.37E-09,  avg # of iterations =  4.0

     total cpu time spent up to now is       48.7 secs

     total energy              =    -548.04178970 Ry
     Harris-Foulkes estimate   =    -548.04179061 Ry
     estimated scf accuracy    <       0.00000225 Ry

     iteration # 10     ecut=   100.00 Ry     beta= 0.70
     Davidson diagonalization with overlap
     ethr =  2.67E-09,  avg # of iterations =  4.0

     total cpu time spent up to now is       53.0 secs

     total energy              =    -548.04179015 Ry
     Harris-Foulkes estimate   =    -548.04179025 Ry
     estimated scf accuracy    <       0.00000025 Ry

     iteration # 11     ecut=   100.00 Ry     beta= 0.70
     Davidson diagonalization with overlap
     ethr =  2.97E-10,  avg # of iterations =  4.0

     total cpu time spent up to now is       57.5 secs

     End of self-consistent calculation

          k = 0.0169 0.0214 0.0407 ( 36525 PWs)   bands (ev):

   -16.1901 -15.9977 -15.3218 -15.1871 -13.9039 -13.8395 -12.3997 -12.2668
   -11.3349 -11.1450  -9.0117  -8.9140  -8.2500  -8.1274  -6.3672  -6.2011
    -5.3473  -5.2501  -5.0401  -4.7600  -4.1888  -4.1498  -4.1092  -3.8289
    -3.2867  -3.0453  -2.7345  -2.6085  -2.4595  -2.2205  -2.0997  -2.0746
    -1.2257  -1.1437  -1.0437  -0.9389  -0.8510  -0.7623  -0.1879   0.1309
     0.5389   0.7390

     occupation numbers 
     1.0000   1.0000   1.0000   1.0000   1.0000   1.0000   1.0000   1.0000
     1.0000   1.0000   1.0000   1.0000   1.0000   1.0000   1.0000   1.0000
     1.0000   1.0000   1.0000   1.0000   1.0000   1.0000   1.0000   1.0000
     1.0000   1.0000   1.0000   1.0000   1.0000   1.0000   1.0000   1.0000
     1.0000   1.0000   1.0000   1.0000   1.0000   1.0000   1.0000   1.0000
     1.0000   1.0000

          k = 0.0169 0.0214 0.1078 ( 36561 PWs)   bands (ev):

   -16.1227 -15.8880 -15.2668 -15.1282 -13.8976 -13.8346 -12.4240 -12.2225
   -11.3091 -11.1899  -8.9902  -8.8850  -8.2283  -8.0898  -6.3668  -6.2672
    -5.3525  -5.2425  -5.0559  -4.8852  -4.3439  -4.2130  -4.1130  -3.9346
    -3.7909  -3.6898  -2.8433  -2.6577  -2.6176  -2.3800  -2.3275  -2.2646
    -1.3230  -1.1689  -1.0736  -0.9642  -0.8854  -0.7404  -0.2879  -0.1350
     0.5153   0.9823

     occupation numbers 
     1.0000   1.0000   1.0000   1.0000   1.0000   1.0000   1.0000   1.0000
     1.0000   1.0000   1.0000   1.0000   1.0000   1.0000   1.0000   1.0000
     1.0000   1.0000   1.0000   1.0000   1.0000   1.0000   1.0000   1.0000
     1.0000   1.0000   1.0000   1.0000   1.0000   1.0000   1.0000   1.0000
     1.0000   1.0000   1.0000   1.0000   1.0000   1.0000   1.0000   1.0000
     1.0000   1.0000

          k = 0.0169 0.0214-0.0936 ( 36547 PWs)   bands (ev):

   -16.1250 -15.8790 -15.2763 -15.1255 -13.9019 -13.8386 -12.4155 -12.2272
   -11.3052 -11.1792  -9.0187  -8.8533  -8.2576  -8.0415  -6.3740  -6.3359
    -5.3630  -5.2357  -5.0678  -4.8898  -4.2584  -4.1733  -4.1365  -3.9719
    -3.7507  -3.7158  -2.7760  -2.7186  -2.5920  -2.4238  -2.3831  -2.2963
    -1.3169  -1.1478  -1.0831  -0.9811  -0.8375  -0.7232  -0.2142  -0.1512
     0.5261   0.9744

     occupation numbers 
     1.0000   1.0000   1.0000   1.0000   1.0000   1.0000   1.0000   1.0000
     1.0000   1.0000   1.0000   1.0000   1.0000   1.0000   1.0000   1.0000
     1.0000   1.0000   1.0000   1.0000   1.0000   1.0000   1.0000   1.0000
     1.0000   1.0000   1.0000   1.0000   1.0000   1.0000   1.0000   1.0000
     1.0000   1.0000   1.0000   1.0000   1.0000   1.0000   1.0000   1.0000
     1.0000   1.0000

          k = 0.0169 0.0214-0.0265 ( 36551 PWs)   bands (ev):

   -16.1928 -15.9895 -15.3312 -15.1833 -13.9010 -13.8507 -12.3914 -12.2711
   -11.3336 -11.1320  -9.0419  -8.8849  -8.2823  -8.0710  -6.3921  -6.2504
    -5.3616  -5.2364  -5.0896  -4.7174  -4.2007  -4.1288  -4.0106  -3.8413
    -3.2727  -3.0722  -2.8122  -2.5936  -2.4305  -2.2908  -2.1578  -2.0292
    -1.2028  -1.1177  -1.0234  -0.9728  -0.8666  -0.7074  -0.1928   0.1907
     0.5426   0.7348

     occupation numbers 
     1.0000   1.0000   1.0000   1.0000   1.0000   1.0000   1.0000   1.0000
     1.0000   1.0000   1.0000   1.0000   1.0000   1.0000   1.0000   1.0000
     1.0000   1.0000   1.0000   1.0000   1.0000   1.0000   1.0000   1.0000
     1.0000   1.0000   1.0000   1.0000   1.0000   1.0000   1.0000   1.0000
     1.0000   1.0000   1.0000   1.0000   1.0000   1.0000   1.0000   1.0000
     1.0000   1.0000

          k = 0.0169 0.0643 0.0407 ( 36518 PWs)   bands (ev):

   -16.1630 -15.9658 -15.3326 -15.1982 -13.9383 -13.8737 -12.4361 -12.3141
   -11.3401 -11.1465  -8.9253  -8.8046  -8.1744  -8.0595  -6.3679  -6.2361
    -5.3257  -5.1877  -5.0733  -4.9041  -4.3610  -4.2818  -4.1122  -3.8708
    -3.3674  -3.1080  -2.6671  -2.5770  -2.4403  -2.3193  -2.1088  -2.0393
    -1.0811  -1.0000  -0.9290  -0.8528  -0.8091  -0.7440  -0.1468   0.1816
     0.5938   0.7601

     occupation numbers 
     1.0000   1.0000   1.0000   1.0000   1.0000   1.0000   1.0000   1.0000
     1.0000   1.0000   1.0000   1.0000   1.0000   1.0000   1.0000   1.0000
     1.0000   1.0000   1.0000   1.0000   1.0000   1.0000   1.0000   1.0000
     1.0000   1.0000   1.0000   1.0000   1.0000   1.0000   1.0000   1.0000
     1.0000   1.0000   1.0000   1.0000   1.0000   1.0000   1.0000   1.0000
     1.0000   1.0000

          k = 0.0169 0.0643 0.1078 ( 36558 PWs)   bands (ev):

   -16.1018 -15.8726 -15.2653 -15.1364 -13.9062 -13.8591 -12.4387 -12.2562
   -11.3171 -11.2198  -8.9634  -8.8404  -8.2061  -8.1013  -6.3743  -6.1937
    -5.3452  -5.2145  -4.9747  -4.8042  -4.3016  -4.2403  -4.1347  -4.0013
    -3.9200  -3.8303  -2.7334  -2.6683  -2.5494  -2.5301  -2.4228  -2.1670
    -1.2881  -1.1462  -1.0323  -0.9831  -0.9018  -0.7909  -0.1043  -0.0009
     0.5118   1.0085

     occupation numbers 
     1.0000   1.0000   1.0000   1.0000   1.0000   1.0000   1.0000   1.0000
     1.0000   1.0000   1.0000   1.0000   1.0000   1.0000   1.0000   1.0000
     1.0000   1.0000   1.0000   1.0000   1.0000   1.0000   1.0000   1.0000
     1.0000   1.0000   1.0000   1.0000   1.0000   1.0000   1.0000   1.0000
     1.0000   1.0000   1.0000   1.0000   1.0000   1.0000   1.0000   1.0000
     1.0000   1.0000

          k = 0.0169 0.0643-0.0936 ( 36547 PWs)   bands (ev):

   -16.1041 -15.8636 -15.2742 -15.1343 -13.9142 -13.8597 -12.4302 -12.2597
   -11.3155 -11.2088  -8.9918  -8.8058  -8.2331  -8.0576  -6.3883  -6.2631
    -5.3542  -5.2119  -4.9320  -4.8517  -4.2566  -4.1976  -4.0987  -4.0413
    -3.8936  -3.8501  -2.7491  -2.6851  -2.6216  -2.4934  -2.3788  -2.2538
    -1.2453  -1.1412  -1.0471  -0.9485  -0.9169  -0.7736  -0.0413  -0.0151
     0.5236   1.0022

     occupation numbers 
     1.0000   1.0000   1.0000   1.0000   1.0000   1.0000   1.0000   1.0000
     1.0000   1.0000   1.0000   1.0000   1.0000   1.0000   1.0000   1.0000
     1.0000   1.0000   1.0000   1.0000   1.0000   1.0000   1.0000   1.0000
     1.0000   1.0000   1.0000   1.0000   1.0000   1.0000   1.0000   1.0000
     1.0000   1.0000   1.0000   1.0000   1.0000   1.0000   1.0000   1.0000
     1.0000   1.0000

          k = 0.0169 0.0643-0.0265 ( 36489 PWs)   bands (ev):

   -16.1654 -15.9578 -15.3408 -15.1956 -13.9398 -13.8806 -12.4277 -12.3170
   -11.3412 -11.1340  -8.9527  -8.7746  -8.1953  -8.0132  -6.3949  -6.3043
    -5.3260  -5.2033  -5.0492  -4.8979  -4.3004  -4.2101  -4.1244  -3.9496
    -3.3413  -3.1424  -2.6734  -2.5015  -2.4539  -2.4124  -2.1328  -2.0313
    -1.1006  -0.9930  -0.8979  -0.8786  -0.8009  -0.6920  -0.1453   0.2439
     0.5972   0.7516

     occupation numbers 
     1.0000   1.0000   1.0000   1.0000   1.0000   1.0000   1.0000   1.0000
     1.0000   1.0000   1.0000   1.0000   1.0000   1.0000   1.0000   1.0000
     1.0000   1.0000   1.0000   1.0000   1.0000   1.0000   1.0000   1.0000
     1.0000   1.0000   1.0000   1.0000   1.0000   1.0000   1.0000   1.0000
     1.0000   1.0000   1.0000   1.0000   1.0000   1.0000   1.0000   1.0000
     1.0000   1.0000

          k =-0.0169 0.0214-0.0407 ( 36525 PWs)   bands (ev):

   -16.1919 -15.9914 -15.3251 -15.1885 -13.9044 -13.8473 -12.3913 -12.2697
   -11.3370 -11.1306  -9.0419  -8.8810  -8.2606  -8.1010  -6.3864  -6.2572
    -5.3612  -5.2320  -4.9945  -4.8144  -4.1665  -4.1170  -4.0263  -3.9218
    -3.2542  -3.0716  -2.7147  -2.6281  -2.4299  -2.3175  -2.1217  -2.0563
    -1.2237  -1.1238  -1.0341  -0.9568  -0.8352  -0.7311  -0.1901   0.1926
     0.5340   0.7400

     occupation numbers 
     1.0000   1.0000   1.0000   1.0000   1.0000   1.0000   1.0000   1.0000
     1.0000   1.0000   1.0000   1.0000   1.0000   1.0000   1.0000   1.0000
     1.0000   1.0000   1.0000   1.0000   1.0000   1.0000   1.0000   1.0000
     1.0000   1.0000   1.0000   1.0000   1.0000   1.0000   1.0000   1.0000
     1.0000   1.0000   1.0000   1.0000   1.0000   1.0000   1.0000   1.0000
     1.0000   1.0000

          k =-0.0169 0.0214-0.1078 ( 36561 PWs)   bands (ev):

   -16.1247 -15.8798 -15.2727 -15.1288 -13.9040 -13.8361 -12.4155 -12.2272
   -11.3090 -11.1756  -9.0193  -8.8525  -8.2542  -8.0463  -6.4003  -6.3060
    -5.3623  -5.2323  -5.0117  -4.9627  -4.2891  -4.1821  -4.1074  -3.9286
    -3.7609  -3.7223  -2.8400  -2.6761  -2.5909  -2.4086  -2.3441  -2.3215
    -1.3521  -1.1630  -1.0936  -0.9301  -0.8455  -0.7130  -0.2204  -0.1502
     0.5208   0.9780

     occupation numbers 
     1.0000   1.0000   1.0000   1.0000   1.0000   1.0000   1.0000   1.0000
     1.0000   1.0000   1.0000   1.0000   1.0000   1.0000   1.0000   1.0000
     1.0000   1.0000   1.0000   1.0000   1.0000   1.0000   1.0000   1.0000
     1.0000   1.0000   1.0000   1.0000   1.0000   1.0000   1.0000   1.0000
     1.0000   1.0000   1.0000   1.0000   1.0000   1.0000   1.0000   1.0000
     1.0000   1.0000

          k =-0.0169 0.0214 0.0936 ( 36547 PWs)   bands (ev):

   -16.1230 -15.8872 -15.2695 -15.1260 -13.8908 -13.8415 -12.4239 -12.2229
   -11.3052 -11.1930  -8.9892  -8.8866  -8.2365  -8.0802  -6.3725  -6.2623
    -5.3516  -5.2365  -5.0970  -4.8408  -4.3328  -4.1880  -4.1696  -3.9381
    -3.7747  -3.7027  -2.7728  -2.7102  -2.5669  -2.4156  -2.3784  -2.2525
    -1.3135  -1.1403  -1.0611  -0.9894  -0.8944  -0.7426  -0.2860  -0.1357
     0.5177   0.9810

     occupation numbers 
     1.0000   1.0000   1.0000   1.0000   1.0000   1.0000   1.0000   1.0000
     1.0000   1.0000   1.0000   1.0000   1.0000   1.0000   1.0000   1.0000
     1.0000   1.0000   1.0000   1.0000   1.0000   1.0000   1.0000   1.0000
     1.0000   1.0000   1.0000   1.0000   1.0000   1.0000   1.0000   1.0000
     1.0000   1.0000   1.0000   1.0000   1.0000   1.0000   1.0000   1.0000
     1.0000   1.0000

          k =-0.0169 0.0214 0.0265 ( 36551 PWs)   bands (ev):

   -16.1908 -15.9964 -15.3252 -15.1844 -13.9001 -13.8432 -12.4000 -12.2667
   -11.3346 -11.1448  -9.0136  -8.9133  -8.2694  -8.1020  -6.3953  -6.1778
    -5.3487  -5.2481  -5.0889  -4.6904  -4.2258  -4.1747  -4.0535  -3.8251
    -3.2821  -3.0499  -2.8116  -2.5794  -2.4396  -2.1839  -2.1489  -2.0602
    -1.2058  -1.1420  -1.0419  -0.9549  -0.8662  -0.7499  -0.1857   0.1314
     0.5464   0.7323

     occupation numbers 
     1.0000   1.0000   1.0000   1.0000   1.0000   1.0000   1.0000   1.0000
     1.0000   1.0000   1.0000   1.0000   1.0000   1.0000   1.0000   1.0000
     1.0000   1.0000   1.0000   1.0000   1.0000   1.0000   1.0000   1.0000
     1.0000   1.0000   1.0000   1.0000   1.0000   1.0000   1.0000   1.0000
     1.0000   1.0000   1.0000   1.0000   1.0000   1.0000   1.0000   1.0000
     1.0000   1.0000

          k =-0.0169 0.0643-0.0407 ( 36518 PWs)   bands (ev):

   -16.1649 -15.9588 -15.3367 -15.1994 -13.9386 -13.8814 -12.4281 -12.3173
   -11.3421 -11.1320  -8.9534  -8.7740  -8.1904  -8.0235  -6.3955  -6.2858
    -5.3250  -5.2022  -5.0227  -4.9608  -4.3080  -4.2516  -4.0531  -3.9436
    -3.3365  -3.1430  -2.6356  -2.5983  -2.4291  -2.4075  -2.0938  -2.0512
    -1.0768  -1.0262  -0.8927  -0.8533  -0.7812  -0.7353  -0.1445   0.2417
     0.5936   0.7571

     occupation numbers 
     1.0000   1.0000   1.0000   1.0000   1.0000   1.0000   1.0000   1.0000
     1.0000   1.0000   1.0000   1.0000   1.0000   1.0000   1.0000   1.0000
     1.0000   1.0000   1.0000   1.0000   1.0000   1.0000   1.0000   1.0000
     1.0000   1.0000   1.0000   1.0000   1.0000   1.0000   1.0000   1.0000
     1.0000   1.0000   1.0000   1.0000   1.0000   1.0000   1.0000   1.0000
     1.0000   1.0000

          k =-0.0169 0.0643-0.1078 ( 36558 PWs)   bands (ev):

   -16.1039 -15.8641 -15.2715 -15.1370 -13.9109 -13.8626 -12.4303 -12.2600
   -11.3170 -11.2067  -8.9923  -8.8068  -8.2315  -8.0592  -6.3943  -6.2497
    -5.3509  -5.2060  -4.9221  -4.8945  -4.2679  -4.1801  -4.0962  -3.9895
    -3.9375  -3.8609  -2.7328  -2.6691  -2.5606  -2.5221  -2.3905  -2.2920
    -1.2891  -1.1436  -1.0182  -0.9787  -0.8809  -0.7625  -0.0428  -0.0084
     0.5156   1.0030

     occupation numbers 
     1.0000   1.0000   1.0000   1.0000   1.0000   1.0000   1.0000   1.0000
     1.0000   1.0000   1.0000   1.0000   1.0000   1.0000   1.0000   1.0000
     1.0000   1.0000   1.0000   1.0000   1.0000   1.0000   1.0000   1.0000
     1.0000   1.0000   1.0000   1.0000   1.0000   1.0000   1.0000   1.0000
     1.0000   1.0000   1.0000   1.0000   1.0000   1.0000   1.0000   1.0000
     1.0000   1.0000

          k =-0.0169 0.0643 0.0936 ( 36547 PWs)   bands (ev):

   -16.1019 -15.8722 -15.2668 -15.1351 -13.9050 -13.8604 -12.4386 -12.2563
   -11.3160 -11.2209  -8.9626  -8.8402  -8.2109  -8.0961  -6.3844  -6.1881
    -5.3479  -5.2145  -4.9799  -4.7722  -4.3066  -4.2221  -4.1747  -4.0250
    -3.9144  -3.8006  -2.7174  -2.6746  -2.6170  -2.5258  -2.3883  -2.1541
    -1.2723  -1.1187  -1.0722  -0.9864  -0.9013  -0.7922  -0.1050  -0.0029
     0.5179   1.0061

     occupation numbers 
     1.0000   1.0000   1.0000   1.0000   1.0000   1.0000   1.0000   1.0000
     1.0000   1.0000   1.0000   1.0000   1.0000   1.0000   1.0000   1.0000
     1.0000   1.0000   1.0000   1.0000   1.0000   1.0000   1.0000   1.0000
     1.0000   1.0000   1.0000   1.0000   1.0000   1.0000   1.0000   1.0000
     1.0000   1.0000   1.0000   1.0000   1.0000   1.0000   1.0000   1.0000
     1.0000   1.0000

          k =-0.0169 0.0643 0.0265 ( 36489 PWs)   bands (ev):

   -16.1632 -15.9654 -15.3339 -15.1969 -13.9387 -13.8738 -12.4361 -12.3123
   -11.3422 -11.1471  -8.9265  -8.7999  -8.1713  -8.0605  -6.3932  -6.2361
    -5.3275  -5.1878  -5.0484  -4.8703  -4.3279  -4.2495  -4.1298  -3.9996
    -3.3605  -3.1042  -2.6470  -2.5054  -2.4487  -2.3450  -2.1330  -2.0348
    -1.1000  -1.0038  -0.9335  -0.8323  -0.8075  -0.7430  -0.1471   0.1853
     0.6020   0.7495

     occupation numbers 
     1.0000   1.0000   1.0000   1.0000   1.0000   1.0000   1.0000   1.0000
     1.0000   1.0000   1.0000   1.0000   1.0000   1.0000   1.0000   1.0000
     1.0000   1.0000   1.0000   1.0000   1.0000   1.0000   1.0000   1.0000
     1.0000   1.0000   1.0000   1.0000   1.0000   1.0000   1.0000   1.0000
     1.0000   1.0000   1.0000   1.0000   1.0000   1.0000   1.0000   1.0000
     1.0000   1.0000

     highest occupied level (ev):     1.0085

!    total energy              =    -548.04179019 Ry
     Harris-Foulkes estimate   =    -548.04179023 Ry
     estimated scf accuracy    <       0.00000004 Ry

     total all-electron energy =     -4615.885278 Ry

     The total energy is the sum of the following terms:

     one-electron contribution =    -151.91996643 Ry
     hartree contribution      =     107.34634194 Ry
     xc contribution           =    -104.20447967 Ry
     ewald contribution        =    -143.48144902 Ry
     one-center paw contrib.   =    -255.78223702 Ry
      -> PAW hartree energy AE =      18.86284961 Ry
      -> PAW hartree energy PS =     -18.75866442 Ry
      -> PAW xc energy AE      =     -55.59941972 Ry
      -> PAW xc energy PS      =      10.05469046 Ry
      -> total E_H with PAW    =     107.45052713 Ry
      -> total E_XC with PAW   =    -149.74920892 Ry

     convergence has been achieved in  11 iterations
 writing file ./scratch/scf-396.save/charge-density
 writing file ./scratch/scf-396.save/charge-density
 writing file ./scratch/scf-396.save/charge-density
 writing file ./scratch/scf-396.save/charge-density
 writing file ./scratch/scf-396.save/charge-density
 writing file ./scratch/scf-396.save/charge-density
 writing file ./scratch/scf-396.save/charge-density
 writing file ./scratch/scf-396.save/charge-density
 writing file ./scratch/scf-396.save/charge-density
 writing file ./scratch/scf-396.save/charge-density
 writing file ./scratch/scf-396.save/charge-density
 writing file ./scratch/scf-396.save/charge-density
 writing file ./scratch/scf-396.save/charge-density
 writing file ./scratch/scf-396.save/charge-density
 writing file ./scratch/scf-396.save/charge-density
 writing file ./scratch/scf-396.save/charge-density
 writing file ./scratch/scf-396.save/charge-density
 writing file ./scratch/scf-396.save/charge-density
 writing file ./scratch/scf-396.save/charge-density
 writing file ./scratch/scf-396.save/charge-density
 writing file ./scratch/scf-396.save/charge-density
 writing file ./scratch/scf-396.save/charge-density
 writing file ./scratch/scf-396.save/charge-density
 writing file ./scratch/scf-396.save/charge-density
 writing file ./scratch/scf-396.save/charge-density
 writing file ./scratch/scf-396.save/charge-density
 writing file ./scratch/scf-396.save/charge-density
 writing file ./scratch/scf-396.save/charge-density
 writing file ./scratch/scf-396.save/charge-density
 writing file ./scratch/scf-396.save/charge-density
 writing file ./scratch/scf-396.save/charge-density
 writing file ./scratch/scf-396.save/charge-density

     Forces acting on atoms (cartesian axes, Ry/au):

     atom    1 type  2   force =    -0.05841165    0.02830891   -0.00650992
     atom    2 type  1   force =     0.03374342   -0.02055427    0.01309527
     atom    3 type  1   force =     0.02165726    0.00970489   -0.02082292
     atom    4 type  3   force =    -0.00242531   -0.00145912    0.00278834
     atom    5 type  1   force =    -0.01738583   -0.00878296    0.01529918
     atom    6 type  3   force =     0.00528232    0.00427250   -0.00493443
     atom    7 type  3   force =     0.00144132    0.00248331    0.00300943
     atom    8 type  1   force =     0.00469594   -0.01525649   -0.02311017
     atom    9 type  3   force =     0.00269234    0.00115348   -0.00316164
     atom   10 type  1   force =    -0.00173441    0.01998433    0.02123083
     atom   11 type  1   force =    -0.01141514    0.00625794   -0.01764967
     atom   12 type  2   force =     0.01380107   -0.01649409   -0.00083575
     atom   13 type  3   force =     0.00351157    0.00368382   -0.00606623
     atom   14 type  1   force =     0.00241766   -0.01912018    0.01409395
     atom   15 type  3   force =    -0.00299644   -0.00273463    0.00113495
     atom   16 type  1   force =     0.03107283    0.00097357   -0.00845603
     atom   17 type  1   force =     0.01060888   -0.03647747   -0.00545097
     atom   18 type  2   force =    -0.02550488    0.03656490    0.00983428
     atom   19 type  3   force =    -0.00277008   -0.00032011   -0.00206405
     atom   20 type  1   force =    -0.01451180    0.01119495    0.02048981
     atom   21 type  3   force =    -0.00117766   -0.00077776    0.00266931
     atom   22 type  1   force =     0.01267904   -0.01167920   -0.02238228
     atom   23 type  1   force =     0.00031731    0.00230522    0.01441003
     atom   24 type  2   force =    -0.00558773    0.00676845    0.00338871
     The non-local contrib.  to forces
     atom    1 type  2   force =    -0.32795162    0.21964000   -0.02830147
     atom    2 type  1   force =     0.40802563   -0.33640463    0.04634429
     atom    3 type  1   force =    -0.00879500   -0.02002991   -0.08601016
     atom    4 type  3   force =    -0.05870446   -0.01335510   -0.05096880
     atom    5 type  1   force =    -0.05314772   -0.04924423   -0.03297444
     atom    6 type  3   force =     0.00271348   -0.06223051   -0.04754544
     atom    7 type  3   force =     0.01166211   -0.06672931    0.04056087
     atom    8 type  1   force =     0.05784606   -0.06837076    0.00347902
     atom    9 type  3   force =     0.07216331   -0.02030684    0.02277095
     atom   10 type  1   force =     0.03657295   -0.00306765    0.05750433
     atom   11 type  1   force =    -0.40125489   -0.28552235    0.04481033
     atom   12 type  2   force =     0.34636811    0.18644094   -0.06395837
     atom   13 type  3   force =     0.00310653    0.06778112    0.03925774
     atom   14 type  1   force =     0.04720400    0.00902943    0.06937052
     atom   15 type  3   force =     0.05898890    0.01445777    0.05013471
     atom   16 type  1   force =     0.07098143    0.02505558    0.00828445
     atom   17 type  1   force =    -0.34641086    0.28193143   -0.07055135
     atom   18 type  2   force =     0.31072097   -0.23897381    0.07795224
     atom   19 type  3   force =    -0.01202817    0.06736879   -0.03893498
     atom   20 type  1   force =    -0.06691238    0.06989892   -0.00477980
     atom   21 type  3   force =    -0.07300182    0.02039552   -0.02168876
     atom   22 type  1   force =    -0.03625780    0.02251342   -0.06373338
     atom   23 type  1   force =     0.40194894    0.31673399   -0.03918270
     atom   24 type  2   force =    -0.32231341   -0.21482051    0.06637133
     The ionic contribution  to forces
     atom    1 type  2   force =     4.68569301   -3.88761338    0.68661240
     atom    2 type  1   force =     2.61513518   -2.18001442    0.42792958
     atom    3 type  1   force =     3.62622823    1.25293581    3.48892569
     atom    4 type  3   force =     1.80656327    0.60162250    1.56174314
     atom    5 type  1   force =     1.22203034    4.19541422    2.40733399
     atom    6 type  3   force =     0.17161544    1.88588097    1.45669903
     atom    7 type  3   force =    -0.61451133    1.88561159   -1.22452254
     atom    8 type  1   force =    -1.82680969    4.39072709   -1.89218294
     atom    9 type  3   force =    -2.38605972    0.75561287   -0.90034034
     atom   10 type  1   force =    -4.85430801    1.81988011   -2.41180253
     atom   11 type  1   force =    -2.37522920   -1.86463036    0.07364256
     atom   12 type  2   force =    -6.57039050   -3.49368692   -0.21603555
     atom   13 type  3   force =    -0.17413820   -1.93072252   -1.27348040
     atom   14 type  1   force =    -0.55782600   -3.88597895   -2.67703864
     atom   15 type  3   force =    -1.90851506   -0.63439346   -1.56420510
     atom   16 type  1   force =    -4.08323494   -1.94851505   -2.73561051
     atom   17 type  1   force =    -1.63967348    1.68862123   -0.36326605
     atom   18 type  2   force =    -4.90819118    4.04850529   -0.94143455
     atom   19 type  3   force =     0.57847920   -1.88982294    1.17689775
     atom   20 type  1   force =     1.55980419   -4.44877620    1.81372315
     atom   21 type  3   force =     2.28025385   -0.86657853    0.72272133
     atom   22 type  1   force =     4.57394099   -1.88916331    2.12678052
     atom   23 type  1   force =     2.28497362    1.77648750   -0.07265509
     atom   24 type  2   force =     6.49417000    4.61859687    0.32956509
     The local contribution  to forces
     atom    1 type  2   force =    -4.43195447    3.70650615   -0.66617861
     atom    2 type  1   force =    -2.97809896    2.48664144   -0.46022578
     atom    3 type  1   force =    -3.59478622   -1.22333064   -3.42312108
     atom    4 type  3   force =    -1.75027930   -0.58972484   -1.50798635
     atom    5 type  1   force =    -1.18655922   -4.15363262   -2.35879878
     atom    6 type  3   force =    -0.16903539   -1.81939000   -1.41409339
     atom    7 type  3   force =     0.60425924   -1.81639140    1.18695640
     atom    8 type  1   force =     1.77375384   -4.33646113    1.86505871
     atom    9 type  3   force =     2.31660387   -0.73416695    0.87441163
     atom   10 type  1   force =     4.81477540   -1.79643056    2.37511726
     atom   11 type  1   force =     2.75487441    2.14889821   -0.13431345
     atom   12 type  2   force =     6.25210755    3.29802959    0.27661913
     atom   13 type  3   force =     0.17455557    1.86661681    1.22815799
     atom   14 type  1   force =     0.51395824    3.85646563    2.62131082
     atom   15 type  3   force =     1.84654460    0.61720532    1.51521386
     atom   16 type  1   force =     4.04264345    1.92400418    2.71810704
     atom   17 type  1   force =     1.98860543   -1.99966383    0.42682884
     atom   18 type  2   force =     4.58331458   -3.78112675    0.87652804
     atom   19 type  3   force =    -0.56923547    1.82213874   -1.14003307
     atom   20 type  1   force =    -1.50812078    4.38890019   -1.78802996
     atom   21 type  3   force =    -2.20842038    0.84538904   -0.69835796
     atom   22 type  1   force =    -4.52399041    1.85466274   -2.08523919
     atom   23 type  1   force =    -2.67637383   -2.08291461    0.12465115
     atom   24 type  2   force =    -6.19064540   -4.40543285   -0.38970547
     The core correction contribution to forces
     atom    1 type  2   force =     0.01581945   -0.01021678    0.00138877
     atom    2 type  1   force =    -0.01127120    0.00924355   -0.00091877
     atom    3 type  1   force =    -0.00097676    0.00014544   -0.00062748
     atom    4 type  3   force =     0.00000000    0.00000000    0.00000000
     atom    5 type  1   force =     0.00032730   -0.00131594   -0.00025807
     atom    6 type  3   force =     0.00000000    0.00000000    0.00000000
     atom    7 type  3   force =     0.00000000    0.00000000    0.00000000
     atom    8 type  1   force =    -0.00034828   -0.00117482    0.00046453
     atom    9 type  3   force =     0.00000000    0.00000000    0.00000000
     atom   10 type  1   force =     0.00110083   -0.00046472    0.00038660
     atom   11 type  1   force =     0.01007601    0.00754359   -0.00185918
     atom   12 type  2   force =    -0.01429775   -0.00720196    0.00248130
     atom   13 type  3   force =     0.00000000    0.00000000    0.00000000
     atom   14 type  1   force =    -0.00087585    0.00139165    0.00048973
     atom   15 type  3   force =     0.00000000    0.00000000    0.00000000
     atom   16 type  1   force =     0.00071005    0.00046239    0.00079136
     atom   17 type  1   force =     0.00816285   -0.00737267    0.00156866
     atom   18 type  2   force =    -0.01120198    0.00809947   -0.00316854
     atom   19 type  3   force =     0.00000000    0.00000000    0.00000000
     atom   20 type  1   force =     0.00059453    0.00114557   -0.00046053
     atom   21 type  3   force =     0.00000000    0.00000000    0.00000000
     atom   22 type  1   force =    -0.00105193    0.00017878   -0.00016029
     atom   23 type  1   force =    -0.01030610   -0.00802985    0.00157767
     atom   24 type  2   force =     0.01338144    0.00858973   -0.00284956
     The Hubbard contrib.    to forces
     atom    1 type  2   force =     0.00000000    0.00000000    0.00000000
     atom    2 type  1   force =     0.00000000    0.00000000    0.00000000
     atom    3 type  1   force =     0.00000000    0.00000000    0.00000000
     atom    4 type  3   force =     0.00000000    0.00000000    0.00000000
     atom    5 type  1   force =     0.00000000    0.00000000    0.00000000
     atom    6 type  3   force =     0.00000000    0.00000000    0.00000000
     atom    7 type  3   force =     0.00000000    0.00000000    0.00000000
     atom    8 type  1   force =     0.00000000    0.00000000    0.00000000
     atom    9 type  3   force =     0.00000000    0.00000000    0.00000000
     atom   10 type  1   force =     0.00000000    0.00000000    0.00000000
     atom   11 type  1   force =     0.00000000    0.00000000    0.00000000
     atom   12 type  2   force =     0.00000000    0.00000000    0.00000000
     atom   13 type  3   force =     0.00000000    0.00000000    0.00000000
     atom   14 type  1   force =     0.00000000    0.00000000    0.00000000
     atom   15 type  3   force =     0.00000000    0.00000000    0.00000000
     atom   16 type  1   force =     0.00000000    0.00000000    0.00000000
     atom   17 type  1   force =     0.00000000    0.00000000    0.00000000
     atom   18 type  2   force =     0.00000000    0.00000000    0.00000000
     atom   19 type  3   force =     0.00000000    0.00000000    0.00000000
     atom   20 type  1   force =     0.00000000    0.00000000    0.00000000
     atom   21 type  3   force =     0.00000000    0.00000000    0.00000000
     atom   22 type  1   force =     0.00000000    0.00000000    0.00000000
     atom   23 type  1   force =     0.00000000    0.00000000    0.00000000
     atom   24 type  2   force =     0.00000000    0.00000000    0.00000000
     The SCF correction term to forces
     atom    1 type  2   force =    -0.00001660   -0.00000749   -0.00003158
     atom    2 type  1   force =    -0.00004580   -0.00002061   -0.00003462
     atom    3 type  1   force =    -0.00001157   -0.00001621    0.00000955
     atom    4 type  3   force =    -0.00000341   -0.00000208   -0.00000021
     atom    5 type  1   force =    -0.00003512   -0.00000480   -0.00000409
     atom    6 type  3   force =    -0.00000979    0.00001163    0.00000480
     atom    7 type  3   force =     0.00003272   -0.00000797    0.00001414
     atom    8 type  1   force =     0.00025543    0.00002271    0.00006995
     atom    9 type  3   force =    -0.00001370    0.00001400   -0.00000445
     atom   10 type  1   force =     0.00012583    0.00006675    0.00002462
     atom   11 type  1   force =     0.00011994   -0.00003154    0.00006951
     atom   12 type  2   force =     0.00001506   -0.00007614    0.00005719
     atom   13 type  3   force =    -0.00001092    0.00000801   -0.00000211
     atom   14 type  1   force =    -0.00004131   -0.00002835   -0.00003904
     atom   15 type  3   force =    -0.00001346   -0.00000466   -0.00000907
     atom   16 type  1   force =    -0.00002575   -0.00003392   -0.00002892
     atom   17 type  1   force =    -0.00007366    0.00000597   -0.00003162
     atom   18 type  2   force =    -0.00014586    0.00006030   -0.00004346
     atom   19 type  3   force =     0.00001577   -0.00000511    0.00000569
     atom   20 type  1   force =     0.00012405    0.00002607    0.00003638
     atom   21 type  3   force =    -0.00000788    0.00001580   -0.00000586
     atom   22 type  1   force =     0.00003961    0.00012877   -0.00003051
     atom   23 type  1   force =     0.00007610    0.00002778    0.00001844
     atom   24 type  2   force =    -0.00017895   -0.00016520    0.00000677

     Total force =     0.132019     Total SCF correction =     0.000523

     Writing output data file scf-396.save
 writing file ./scratch/scf-396.save/charge-density
 writing file ./scratch/scf-396.save/charge-density
 writing file ./scratch/scf-396.save/charge-density
 writing file ./scratch/scf-396.save/charge-density
 writing file ./scratch/scf-396.save/charge-density
 writing file ./scratch/scf-396.save/charge-density
 writing file ./scratch/scf-396.save/charge-density
 writing file ./scratch/scf-396.save/charge-density
 writing file ./scratch/scf-396.save/charge-density
 writing file ./scratch/scf-396.save/charge-density
 writing file ./scratch/scf-396.save/charge-density
 writing file ./scratch/scf-396.save/charge-density
 writing file ./scratch/scf-396.save/charge-density
 writing file ./scratch/scf-396.save/charge-density
 writing file ./scratch/scf-396.save/charge-density
 writing file ./scratch/scf-396.save/charge-density
 writing file ./scratch/scf-396.save/charge-density
 writing file ./scratch/scf-396.save/charge-density
 writing file ./scratch/scf-396.save/charge-density
 writing file ./scratch/scf-396.save/charge-density
 writing file ./scratch/scf-396.save/charge-density
 writing file ./scratch/scf-396.save/charge-density
 writing file ./scratch/scf-396.save/charge-density
 writing file ./scratch/scf-396.save/charge-density
 writing file ./scratch/scf-396.save/charge-density
 writing file ./scratch/scf-396.save/charge-density
 writing file ./scratch/scf-396.save/charge-density
 writing file ./scratch/scf-396.save/charge-density
 writing file ./scratch/scf-396.save/charge-density
 writing file ./scratch/scf-396.save/charge-density
 writing file ./scratch/scf-396.save/charge-density
 writing file ./scratch/scf-396.save/charge-density
 
     init_run     :      4.35s CPU      4.58s WALL (       1 calls)
     electrons    :     49.50s CPU     52.47s WALL (       1 calls)
     forces       :      2.35s CPU      2.50s WALL (       1 calls)

     Called by init_run:
     wfcinit      :      1.56s CPU      1.61s WALL (       1 calls)
     wfcinit:atom :      0.01s CPU      0.02s WALL (      16 calls)
     wfcinit:wfcr :      1.46s CPU      1.48s WALL (      16 calls)
     potinit      :      0.89s CPU      0.91s WALL (       1 calls)

     Called by electrons:
     c_bands      :     38.69s CPU     39.04s WALL (      11 calls)
     sum_band     :      6.77s CPU      7.97s WALL (      11 calls)
     v_of_rho     :      0.91s CPU      0.97s WALL (      12 calls)
     v_h          :      0.06s CPU      0.06s WALL (      12 calls)
     v_xc         :      0.92s CPU      0.98s WALL (      13 calls)
     newd         :      1.47s CPU      2.86s WALL (      12 calls)
     PAW_pot      :      1.64s CPU      1.69s WALL (      12 calls)
     mix_rho      :      0.14s CPU      0.14s WALL (      11 calls)

     Called by c_bands:
     init_us_2    :      0.81s CPU      0.88s WALL (     384 calls)
     cegterg      :     36.39s CPU     36.64s WALL (     176 calls)

     Called by sum_band:
     sum_band:bec :      0.03s CPU      0.02s WALL (     176 calls)
     addusdens    :      1.50s CPU      2.68s WALL (      11 calls)

     Called by *egterg:
     h_psi        :     27.00s CPU     27.18s WALL (     862 calls)
     s_psi        :      2.00s CPU      2.01s WALL (     862 calls)
     g_psi        :      0.16s CPU      0.16s WALL (     670 calls)
     cdiaghg      :      3.42s CPU      3.45s WALL (     846 calls)
     cegterg:over :      1.68s CPU      1.69s WALL (     670 calls)
     cegterg:upda :      1.26s CPU      1.26s WALL (     670 calls)
     cegterg:last :      0.43s CPU      0.43s WALL (     192 calls)

     Called by h_psi:
     h_psi:pot    :     26.74s CPU     26.92s WALL (     862 calls)
     h_psi:calbec :      2.34s CPU      2.28s WALL (     862 calls)
     vloc_psi     :     22.51s CPU     22.67s WALL (     862 calls)
     add_vuspsi   :      1.88s CPU      1.97s WALL (     862 calls)

     General routines
     calbec       :      3.10s CPU      3.03s WALL (    1102 calls)
     fft          :      0.75s CPU      0.78s WALL (     199 calls)
     ffts         :      0.03s CPU      0.03s WALL (      23 calls)
     fftw         :     21.27s CPU     21.54s WALL (   55848 calls)
     interpolate  :      0.15s CPU      0.15s WALL (      23 calls)
     davcio       :      0.00s CPU      0.01s WALL (      16 calls)
 
     Parallel routines
     fft_scatter  :      7.58s CPU      7.67s WALL (   56070 calls)

     PAW routines
     PAW_pot      :      1.64s CPU      1.69s WALL (      12 calls)
 
     PWSCF        :  0m56.87s CPU     1m 0.66s WALL

 
   This run was terminated on:  13:30: 5  20May2017            

=------------------------------------------------------------------------------=
   JOB DONE.
=------------------------------------------------------------------------------=
