
     Program PWSCF v.6.1 starts on 20May2017 at 13:42:48 

     This program is part of the open-source Quantum ESPRESSO suite
     for quantum simulation of materials; please cite
         "P. Giannozzi et al., J. Phys.:Condens. Matter 21 395502 (2009);
          URL http://www.quantum-espresso.org", 
     in publications or presentations arising from this work. More details at
     http://www.quantum-espresso.org/quote

     Parallel version (MPI & OpenMP), running on      32 processor cores
     Number of MPI processes:                32
     Threads/MPI process:                     1
     R & G space division:  proc/nbgrp/npool/nimage =      32
     Waiting for input...
     Reading input from standard input
Warning: card &IONS ignored
Warning: card     ION_TEMPERATURE   = 'INITIAL' ignored
Warning: card     TEMPW             = 586.D0 ignored
Warning: card     TOLP              = 100.D0 ignored
Warning: card     DELTA_T           = 1.D0 ignored
Warning: card     NRAISE            = 1 ignored
Warning: card / ignored
Warning: card &CELL ignored
Warning: card     CELL_DYNAMICS     = 'BFGS' ignored
Warning: card / ignored

     Current dimensions of program PWSCF are:
     Max number of different atomic species (ntypx) = 10
     Max number of k-points (npk) =  40000
     Max angular momentum in pseudopotentials (lmaxx) =  3
               file C.pbe-n-kjpaw_psl.1.0.0.UPF: wavefunction(s)  2S 2P renormalized
               file Cl.pbe-n-kjpaw_psl.1.0.0.UPF: wavefunction(s)  3S 3P renormalized
               file H.pbe-kjpaw_psl.1.0.0.UPF: wavefunction(s)  1S renormalized

     Subspace diagonalization in iterative solution of the eigenvalue problem:
     a serial algorithm will be used

 
     Parallelization info
     --------------------
     sticks:   dense  smooth     PW     G-vecs:    dense   smooth      PW
     Min         764     305     83                36108     9133    1292
     Max         765     306     84                36110     9135    1293
     Sum       24467    9791   2657              1155489   292295   41363
 


     bravais-lattice index     =            0
     lattice parameter (alat)  =       1.8897  a.u.
     unit-cell volume          =    2163.5316 (a.u.)^3
     number of atoms/cell      =           24
     number of atomic types    =            3
     number of electrons       =        84.00
     number of Kohn-Sham states=           42
     kinetic-energy cutoff     =     100.0000  Ry
     charge density cutoff     =    1000.0000  Ry
     convergence threshold     =      1.0E-07
     mixing beta               =       0.7000
     number of iterations used =            8  plain     mixing
     Exchange-correlation      =  SLA  PW   PBX  PBC ( 1  4  3  4 0 0)

     celldm(1)=   1.889726  celldm(2)=   0.000000  celldm(3)=   0.000000
     celldm(4)=   0.000000  celldm(5)=   0.000000  celldm(6)=   0.000000

     crystal axes: (cart. coord. in units of alat)
               a(1) = (  14.762000   0.000000   0.000000 )  
               a(2) = (   0.000000   5.832000   0.000000 )  
               a(3) = (  -1.563876   0.000000   3.723951 )  

     reciprocal axes: (cart. coord. in units 2 pi/alat)
               b(1) = (  0.067741  0.000000  0.028448 )  
               b(2) = (  0.000000  0.171468  0.000000 )  
               b(3) = (  0.000000  0.000000  0.268532 )  


     PseudoPot. # 1 for  C read from file:
     /global/cscratch1/sd/almno10/.data/PSEUDOPOTENTIALS/C.pbe-n-kjpaw_psl.1.0.0.UPF
     MD5 check sum: 2ba8448e293caca687844dde9a1b88a8
     Pseudo is Projector augmented-wave + core cor, Zval =  4.0
     Generated using "atomic" code by A. Dal Corso  v.5.3.0 svn rev. 11974
     Shape of augmentation charge: PSQ
     Using radial grid of 1073 points,  4 beta functions with: 
                l(1) =   0
                l(2) =   0
                l(3) =   1
                l(4) =   1
     Q(r) pseudized with 0 coefficients 


     PseudoPot. # 2 for Cl read from file:
     /global/cscratch1/sd/almno10/.data/PSEUDOPOTENTIALS/Cl.pbe-n-kjpaw_psl.1.0.0.UPF
     MD5 check sum: dca63699d6b897c5771335df08a09219
     Pseudo is Projector augmented-wave + core cor, Zval =  7.0
     Generated using "atomic" code by A. Dal Corso  v.5.3.0 svn rev. 11974
     Shape of augmentation charge: PSQ
     Using radial grid of 1157 points,  6 beta functions with: 
                l(1) =   0
                l(2) =   0
                l(3) =   1
                l(4) =   1
                l(5) =   2
                l(6) =   2
     Q(r) pseudized with 0 coefficients 


     PseudoPot. # 3 for  H read from file:
     /global/cscratch1/sd/almno10/.data/PSEUDOPOTENTIALS/H.pbe-kjpaw_psl.1.0.0.UPF
     MD5 check sum: bc0feb48a24907a0b97fa6ee2d589a29
     Pseudo is Projector augmented-wave, Zval =  1.0
     Generated using "atomic" code by A. Dal Corso  v.5.3.0 svn rev. 11974
     Shape of augmentation charge: PSQ
     Using radial grid of  929 points,  2 beta functions with: 
                l(1) =   0
                l(2) =   0
     Q(r) pseudized with 0 coefficients 


     atomic species   valence    mass     pseudopotential
        C              4.00    12.01100      C( 1.00)
        Cl             7.00    35.45270     Cl( 1.00)
        H              1.00     1.00790      H( 1.00)

     No symmetry found


                                    s                        frac. trans.

      isym =  1     identity                                     

 cryst.   s( 1) = (     1          0          0      )
                  (     0          1          0      )
                  (     0          0          1      )

 cart.    s( 1) = (  1.0000000  0.0000000 -0.0000000 )
                  (  0.0000000  1.0000000  0.0000000 )
                  (  0.0000000  0.0000000  1.0000000 )


   Cartesian axes

     site n.     atom                  positions (alat units)
         1           Cl  tau(   1) = (  16.4311136   1.0730869   1.6819035  )
         2           C   tau(   2) = (  15.0434001   2.3440281   1.8160330  )
         3           C   tau(   3) = (  15.1260728   3.4668187   2.6379175  )
         4           H   tau(   4) = (  15.9850952   3.7113212   3.2612317  )
         5           C   tau(   5) = (  14.0531357   4.3526857   2.5509713  )
         6           H   tau(   6) = (  14.0406177   5.2513618   3.1659637  )
         7           H   tau(   7) = (   6.5307350   1.7598520   0.5268583  )
         8           C   tau(   8) = (   6.5447231   0.8613581   1.1402666  )
         9           H   tau(   9) = (   4.5624826   0.2472571   0.5505832  )
        10           C   tau(  10) = (   5.4292396   0.0230163   1.1705901  )
        11           C   tau(  11) = (   5.4873811  -1.1227679   1.9623620  )
        12           Cl  tau(  12) = (   4.0876926  -2.2212294   2.0781558  )
        13           H   tau(  13) = (  13.8290617   1.1001751   0.5733764  )
        14           C   tau(  14) = (  13.8689392   2.0331307   1.1313462  )
        15           H   tau(  15) = (  11.9050687   2.6659746   0.5090236  )
        16           C   tau(  16) = (  12.8078859   2.9338579   1.0544607  )
        17           C   tau(  17) = (  12.9237824   4.0926729   1.7750594  )
        18           Cl  tau(  18) = (  11.7373310   5.2473141   1.7659407  )
        19           H   tau(  19) = (   6.6758283  -2.3822747   3.2417013  )
        20           C   tau(  20) = (   6.6479355  -1.4654346   2.6555375  )
        21           H   tau(  21) = (   8.6347486  -0.8595486   3.2289437  )
        22           C   tau(  22) = (   7.7328104  -0.5907412   2.6829864  )
        23           C   tau(  23) = (   7.6599812   0.5771420   1.9263907  )
        24           Cl  tau(  24) = (   8.9570925   1.7343493   1.8630222  )

   Crystallographic axes

     site n.     atom                  positions (cryst. coord.)
         1           Cl  tau(   1) = (  1.1609152  0.1839998  0.4516449  )
         2           C   tau(   2) = (  1.0707251  0.4019253  0.4876629  )
         3           C   tau(   3) = (  1.0997065  0.5944477  0.7083652  )
         4           H   tau(   4) = (  1.1756301  0.6363720  0.8757450  )
         5           C   tau(   5) = (  1.0245507  0.7463453  0.6850174  )
         6           H   tau(   6) = (  1.0411981  0.9004393  0.8501625  )
         7           H   tau(   7) = (  0.4573899  0.3017579  0.1414783  )
         8           C   tau(   8) = (  0.4757877  0.1476952  0.3061980  )
         9           H   tau(   9) = (  0.3247324  0.0423966  0.1478492  )
        10           C   tau(  10) = (  0.4010859  0.0039465  0.3143409  )
        11           C   tau(  11) = (  0.4275489 -0.1925185  0.5269569  )
        12           Cl  tau(  12) = (  0.3360260 -0.3808692  0.5580513  )
        13           H   tau(  13) = (  0.9531128  0.1886446  0.1539699  )
        14           C   tau(  14) = (  0.9716874  0.3486164  0.3038026  )
        15           H   tau(  15) = (  0.8209479  0.4571287  0.1366891  )
        16           C   tau(  16) = (  0.8976228  0.5030620  0.2831564  )
        17           C   tau(  17) = (  0.9259734  0.7017615  0.4766602  )
        18           Cl  tau(  18) = (  0.8453420  0.8997452  0.4742115  )
        19           H   tau(  19) = (  0.5444508 -0.4084833  0.8705004  )
        20           C   tau(  20) = (  0.5258861 -0.2512748  0.7130967  )
        21           H   tau(  21) = (  0.6767881 -0.1473849  0.8670746  )
        22           C   tau(  22) = (  0.6001580 -0.1012931  0.7204676  )
        23           C   tau(  23) = (  0.5737007  0.0989612  0.5172975  )
        24           Cl  tau(  24) = (  0.6597663  0.2973850  0.5002810  )

     number of k points=    16
                       cart. coord. in units 2pi/alat
        k(    1) = (   0.0169354   0.0214335   0.0406785), wk =   0.1250000
        k(    2) = (   0.0169354   0.0214335   0.1078115), wk =   0.1250000
        k(    3) = (   0.0169354   0.0214335  -0.0935875), wk =   0.1250000
        k(    4) = (   0.0169354   0.0214335  -0.0264545), wk =   0.1250000
        k(    5) = (   0.0169354   0.0643004   0.0406785), wk =   0.1250000
        k(    6) = (   0.0169354   0.0643004   0.1078115), wk =   0.1250000
        k(    7) = (   0.0169354   0.0643004  -0.0935875), wk =   0.1250000
        k(    8) = (   0.0169354   0.0643004  -0.0264545), wk =   0.1250000
        k(    9) = (  -0.0169354   0.0214335  -0.0406785), wk =   0.1250000
        k(   10) = (  -0.0169354   0.0214335  -0.1078115), wk =   0.1250000
        k(   11) = (  -0.0169354   0.0214335   0.0935875), wk =   0.1250000
        k(   12) = (  -0.0169354   0.0214335   0.0264545), wk =   0.1250000
        k(   13) = (  -0.0169354   0.0643004  -0.0406785), wk =   0.1250000
        k(   14) = (  -0.0169354   0.0643004  -0.1078115), wk =   0.1250000
        k(   15) = (  -0.0169354   0.0643004   0.0935875), wk =   0.1250000
        k(   16) = (  -0.0169354   0.0643004   0.0264545), wk =   0.1250000

                       cryst. coord.
        k(    1) = (   0.2500000   0.1250000   0.1250000), wk =   0.1250000
        k(    2) = (   0.2500000   0.1250000   0.3750000), wk =   0.1250000
        k(    3) = (   0.2500000   0.1250000  -0.3750000), wk =   0.1250000
        k(    4) = (   0.2500000   0.1250000  -0.1250000), wk =   0.1250000
        k(    5) = (   0.2500000   0.3750000   0.1250000), wk =   0.1250000
        k(    6) = (   0.2500000   0.3750000   0.3750000), wk =   0.1250000
        k(    7) = (   0.2500000   0.3750000  -0.3750000), wk =   0.1250000
        k(    8) = (   0.2500000   0.3750000  -0.1250000), wk =   0.1250000
        k(    9) = (  -0.2500000   0.1250000  -0.1250000), wk =   0.1250000
        k(   10) = (  -0.2500000   0.1250000  -0.3750000), wk =   0.1250000
        k(   11) = (  -0.2500000   0.1250000   0.3750000), wk =   0.1250000
        k(   12) = (  -0.2500000   0.1250000   0.1250000), wk =   0.1250000
        k(   13) = (  -0.2500000   0.3750000  -0.1250000), wk =   0.1250000
        k(   14) = (  -0.2500000   0.3750000  -0.3750000), wk =   0.1250000
        k(   15) = (  -0.2500000   0.3750000   0.3750000), wk =   0.1250000
        k(   16) = (  -0.2500000   0.3750000   0.1250000), wk =   0.1250000

     Dense  grid:  1155489 G-vectors     FFT dimensions: ( 288, 120,  80)

     Smooth grid:   292295 G-vectors     FFT dimensions: ( 180,  72,  50)

     Estimated max dynamical RAM per process >     147.21MB

     Estimated total allocated dynamical RAM >    4710.62MB

     Initial potential from superposition of free atoms

     starting charge   83.99939, renormalised to   84.00000
     Starting wfc are   72 randomized atomic wfcs
     Checking if some PAW data can be deallocated... 
       node    0, deallocated PAW data for type:  1
       node    0, deallocated PAW data for type:  3
       node    1, deallocated PAW data for type:  1
       node    1, deallocated PAW data for type:  3
       node    2, deallocated PAW data for type:  2
       node    2, deallocated PAW data for type:  3
       node    3, deallocated PAW data for type:  2
       node    3, deallocated PAW data for type:  3
       node    4, deallocated PAW data for type:  2
       node    4, deallocated PAW data for type:  3
       node    5, deallocated PAW data for type:  2
       node    5, deallocated PAW data for type:  3
       node    6, deallocated PAW data for type:  1
       node    6, deallocated PAW data for type:  2
       node    7, deallocated PAW data for type:  1
       node    7, deallocated PAW data for type:  2
       node    8, deallocated PAW data for type:  2
       node    8, deallocated PAW data for type:  3
       node    9, deallocated PAW data for type:  2
       node    9, deallocated PAW data for type:  3
       node   10, deallocated PAW data for type:  1
       node   10, deallocated PAW data for type:  2
       node   11, deallocated PAW data for type:  1
       node   11, deallocated PAW data for type:  2
       node   12, deallocated PAW data for type:  1
       node   12, deallocated PAW data for type:  2
       node   13, deallocated PAW data for type:  1
       node   13, deallocated PAW data for type:  2
       node   14, deallocated PAW data for type:  2
       node   14, deallocated PAW data for type:  3
       node   15, deallocated PAW data for type:  2
       node   15, deallocated PAW data for type:  3
       node   16, deallocated PAW data for type:  1
       node   16, deallocated PAW data for type:  2
       node   17, deallocated PAW data for type:  2
       node   17, deallocated PAW data for type:  3
       node   18, deallocated PAW data for type:  2
       node   18, deallocated PAW data for type:  3
       node   19, deallocated PAW data for type:  1
       node   19, deallocated PAW data for type:  3
       node   20, deallocated PAW data for type:  1
       node   20, deallocated PAW data for type:  2
       node   21, deallocated PAW data for type:  2
       node   21, deallocated PAW data for type:  3
       node   22, deallocated PAW data for type:  1
       node   22, deallocated PAW data for type:  2
       node   23, deallocated PAW data for type:  2
       node   23, deallocated PAW data for type:  3
       node   24, deallocated PAW data for type:  2
       node   24, deallocated PAW data for type:  3
       node   25, deallocated PAW data for type:  1
       node   25, deallocated PAW data for type:  3
       node   26, deallocated PAW data for type:  1
       node   26, deallocated PAW data for type:  2
       node   27, deallocated PAW data for type:  2
       node   27, deallocated PAW data for type:  3
       node   28, deallocated PAW data for type:  1
       node   28, deallocated PAW data for type:  2
       node   29, deallocated PAW data for type:  2
       node   29, deallocated PAW data for type:  3
       node   30, deallocated PAW data for type:  2
       node   30, deallocated PAW data for type:  3
       node   31, deallocated PAW data for type:  1
       node   31, deallocated PAW data for type:  3

     total cpu time spent up to now is        5.2 secs

     per-process dynamical memory:    20.7 Mb

     Self-consistent Calculation

     iteration #  1     ecut=   100.00 Ry     beta= 0.70
     Davidson diagonalization with overlap
     ethr =  1.00E-04,  avg # of iterations =  5.0

     total cpu time spent up to now is       12.0 secs

     total energy              =    -547.10880588 Ry
     Harris-Foulkes estimate   =    -548.99141424 Ry
     estimated scf accuracy    <       2.75090895 Ry

     iteration #  2     ecut=   100.00 Ry     beta= 0.70
     Davidson diagonalization with overlap
     ethr =  3.27E-03,  avg # of iterations =  3.0

     total cpu time spent up to now is       16.9 secs

     total energy              =    -547.51092310 Ry
     Harris-Foulkes estimate   =    -548.61161268 Ry
     estimated scf accuracy    <       1.99181012 Ry

     iteration #  3     ecut=   100.00 Ry     beta= 0.70
     Davidson diagonalization with overlap
     ethr =  2.37E-03,  avg # of iterations =  3.0

     total cpu time spent up to now is       21.3 secs

     total energy              =    -548.00660269 Ry
     Harris-Foulkes estimate   =    -548.04951157 Ry
     estimated scf accuracy    <       0.08624722 Ry

     iteration #  4     ecut=   100.00 Ry     beta= 0.70
     Davidson diagonalization with overlap
     ethr =  1.03E-04,  avg # of iterations =  3.4

     total cpu time spent up to now is       26.1 secs

     total energy              =    -548.03311473 Ry
     Harris-Foulkes estimate   =    -548.04420489 Ry
     estimated scf accuracy    <       0.02217336 Ry

     iteration #  5     ecut=   100.00 Ry     beta= 0.70
     Davidson diagonalization with overlap
     ethr =  2.64E-05,  avg # of iterations =  3.0

     total cpu time spent up to now is       30.5 secs

     total energy              =    -548.03764475 Ry
     Harris-Foulkes estimate   =    -548.03809790 Ry
     estimated scf accuracy    <       0.00095049 Ry

     iteration #  6     ecut=   100.00 Ry     beta= 0.70
     Davidson diagonalization with overlap
     ethr =  1.13E-06,  avg # of iterations =  4.0

     total cpu time spent up to now is       35.5 secs

     total energy              =    -548.03792091 Ry
     Harris-Foulkes estimate   =    -548.03805592 Ry
     estimated scf accuracy    <       0.00027156 Ry

     iteration #  7     ecut=   100.00 Ry     beta= 0.70
     Davidson diagonalization with overlap
     ethr =  3.23E-07,  avg # of iterations =  4.0

     total cpu time spent up to now is       40.2 secs

     total energy              =    -548.03798536 Ry
     Harris-Foulkes estimate   =    -548.03800737 Ry
     estimated scf accuracy    <       0.00005013 Ry

     iteration #  8     ecut=   100.00 Ry     beta= 0.70
     Davidson diagonalization with overlap
     ethr =  5.97E-08,  avg # of iterations =  4.0

     total cpu time spent up to now is       44.8 secs

     total energy              =    -548.03799483 Ry
     Harris-Foulkes estimate   =    -548.03800230 Ry
     estimated scf accuracy    <       0.00001729 Ry

     iteration #  9     ecut=   100.00 Ry     beta= 0.70
     Davidson diagonalization with overlap
     ethr =  2.06E-08,  avg # of iterations =  4.0

     total cpu time spent up to now is       49.3 secs

     total energy              =    -548.03799844 Ry
     Harris-Foulkes estimate   =    -548.03800011 Ry
     estimated scf accuracy    <       0.00000436 Ry

     iteration # 10     ecut=   100.00 Ry     beta= 0.70
     Davidson diagonalization with overlap
     ethr =  5.18E-09,  avg # of iterations =  4.0

     total cpu time spent up to now is       53.6 secs

     total energy              =    -548.03799929 Ry
     Harris-Foulkes estimate   =    -548.03799948 Ry
     estimated scf accuracy    <       0.00000045 Ry

     iteration # 11     ecut=   100.00 Ry     beta= 0.70
     Davidson diagonalization with overlap
     ethr =  5.30E-10,  avg # of iterations =  4.0

     total cpu time spent up to now is       58.2 secs

     End of self-consistent calculation

          k = 0.0169 0.0214 0.0407 ( 36525 PWs)   bands (ev):

   -16.4238 -16.0367 -15.2778 -15.0841 -13.9108 -13.7800 -12.3662 -12.3277
   -11.2927 -11.2698  -8.9992  -8.9665  -8.2288  -8.1731  -6.3463  -6.2793
    -5.3267  -5.2941  -4.9531  -4.8238  -4.2706  -4.1531  -3.9444  -3.8900
    -3.3247  -3.1372  -2.6899  -2.5918  -2.4080  -2.3169  -2.1717  -2.0368
    -1.2061  -1.1250  -1.0357  -0.9737  -0.8986  -0.7512  -0.0371   0.0129
     0.5968   0.7143

     occupation numbers 
     1.0000   1.0000   1.0000   1.0000   1.0000   1.0000   1.0000   1.0000
     1.0000   1.0000   1.0000   1.0000   1.0000   1.0000   1.0000   1.0000
     1.0000   1.0000   1.0000   1.0000   1.0000   1.0000   1.0000   1.0000
     1.0000   1.0000   1.0000   1.0000   1.0000   1.0000   1.0000   1.0000
     1.0000   1.0000   1.0000   1.0000   1.0000   1.0000   1.0000   1.0000
     1.0000   1.0000

          k = 0.0169 0.0214 0.1078 ( 36561 PWs)   bands (ev):

   -16.3621 -15.9508 -15.2250 -15.0213 -13.8978 -13.7587 -12.3607 -12.3208
   -11.2943 -11.2556  -8.9676  -8.9219  -8.2045  -8.1448  -6.3937  -6.2901
    -5.3380  -5.2930  -4.9935  -4.9306  -4.3391  -4.1925  -4.1049  -4.0183
    -3.7697  -3.6811  -2.8054  -2.6886  -2.5617  -2.4330  -2.3631  -2.2198
    -1.3270  -1.1933  -1.1519  -1.0013  -0.8920  -0.7907  -0.2101  -0.1534
     0.6644   0.7419

     occupation numbers 
     1.0000   1.0000   1.0000   1.0000   1.0000   1.0000   1.0000   1.0000
     1.0000   1.0000   1.0000   1.0000   1.0000   1.0000   1.0000   1.0000
     1.0000   1.0000   1.0000   1.0000   1.0000   1.0000   1.0000   1.0000
     1.0000   1.0000   1.0000   1.0000   1.0000   1.0000   1.0000   1.0000
     1.0000   1.0000   1.0000   1.0000   1.0000   1.0000   1.0000   1.0000
     1.0000   1.0000

          k = 0.0169 0.0214-0.0936 ( 36547 PWs)   bands (ev):

   -16.3647 -15.9449 -15.2300 -15.0199 -13.9043 -13.7518 -12.3530 -12.3282
   -11.2903 -11.2620  -8.9835  -8.8998  -8.2081  -8.1408  -6.3717  -6.3095
    -5.3374  -5.2944  -5.0594  -4.8648  -4.3129  -4.2123  -4.1089  -4.0618
    -3.7480  -3.6879  -2.7049  -2.6667  -2.6046  -2.4847  -2.3635  -2.2575
    -1.2865  -1.2016  -1.1384  -0.9702  -0.9368  -0.7988  -0.2073  -0.1547
     0.6735   0.7349

     occupation numbers 
     1.0000   1.0000   1.0000   1.0000   1.0000   1.0000   1.0000   1.0000
     1.0000   1.0000   1.0000   1.0000   1.0000   1.0000   1.0000   1.0000
     1.0000   1.0000   1.0000   1.0000   1.0000   1.0000   1.0000   1.0000
     1.0000   1.0000   1.0000   1.0000   1.0000   1.0000   1.0000   1.0000
     1.0000   1.0000   1.0000   1.0000   1.0000   1.0000   1.0000   1.0000
     1.0000   1.0000

          k = 0.0169 0.0214-0.0265 ( 36551 PWs)   bands (ev):

   -16.4263 -16.0312 -15.2825 -15.0826 -13.9174 -13.7727 -12.3597 -12.3350
   -11.2998 -11.2640  -9.0283  -8.9353  -8.2608  -8.1310  -6.3827  -6.2408
    -5.3361  -5.2907  -5.0602  -4.7107  -4.3255  -4.0917  -4.0336  -3.7996
    -3.2966  -3.1672  -2.7442  -2.5601  -2.4118  -2.3154  -2.1646  -2.0607
    -1.2071  -1.1374  -1.0083  -0.9544  -0.8700  -0.7903  -0.0373   0.0030
     0.6040   0.7149

     occupation numbers 
     1.0000   1.0000   1.0000   1.0000   1.0000   1.0000   1.0000   1.0000
     1.0000   1.0000   1.0000   1.0000   1.0000   1.0000   1.0000   1.0000
     1.0000   1.0000   1.0000   1.0000   1.0000   1.0000   1.0000   1.0000
     1.0000   1.0000   1.0000   1.0000   1.0000   1.0000   1.0000   1.0000
     1.0000   1.0000   1.0000   1.0000   1.0000   1.0000   1.0000   1.0000
     1.0000   1.0000

          k = 0.0169 0.0643 0.0407 ( 36518 PWs)   bands (ev):

   -16.3987 -16.0051 -15.2899 -15.0943 -13.9484 -13.8256 -12.4079 -12.3598
   -11.2802 -11.2586  -8.9206  -8.8922  -8.1334  -8.0643  -6.4144  -6.3291
    -5.3230  -5.2665  -4.9788  -4.9329  -4.3765  -4.2342  -4.0750  -3.9031
    -3.4011  -3.2176  -2.6294  -2.5711  -2.4405  -2.3064  -2.0968  -2.0287
    -1.0914  -0.9564  -0.9071  -0.8979  -0.7933  -0.7520  -0.0099   0.0546
     0.6388   0.6957

     occupation numbers 
     1.0000   1.0000   1.0000   1.0000   1.0000   1.0000   1.0000   1.0000
     1.0000   1.0000   1.0000   1.0000   1.0000   1.0000   1.0000   1.0000
     1.0000   1.0000   1.0000   1.0000   1.0000   1.0000   1.0000   1.0000
     1.0000   1.0000   1.0000   1.0000   1.0000   1.0000   1.0000   1.0000
     1.0000   1.0000   1.0000   1.0000   1.0000   1.0000   1.0000   1.0000
     1.0000   1.0000

          k = 0.0169 0.0643 0.1078 ( 36558 PWs)   bands (ev):

   -16.3439 -15.9317 -15.2288 -15.0282 -13.9151 -13.7876 -12.3800 -12.3328
   -11.3004 -11.2709  -8.9341  -8.9057  -8.1886  -8.1223  -6.3912  -6.2976
    -5.3293  -5.2886  -4.8994  -4.8291  -4.3383  -4.2161  -4.0892  -3.9911
    -3.9165  -3.8569  -2.7152  -2.6766  -2.5705  -2.4888  -2.3579  -2.3073
    -1.2842  -1.1432  -1.0414  -0.9871  -0.9350  -0.7986  -0.0448   0.0219
     0.6255   0.7009

     occupation numbers 
     1.0000   1.0000   1.0000   1.0000   1.0000   1.0000   1.0000   1.0000
     1.0000   1.0000   1.0000   1.0000   1.0000   1.0000   1.0000   1.0000
     1.0000   1.0000   1.0000   1.0000   1.0000   1.0000   1.0000   1.0000
     1.0000   1.0000   1.0000   1.0000   1.0000   1.0000   1.0000   1.0000
     1.0000   1.0000   1.0000   1.0000   1.0000   1.0000   1.0000   1.0000
     1.0000   1.0000

          k = 0.0169 0.0643-0.0936 ( 36547 PWs)   bands (ev):

   -16.3466 -15.9256 -15.2340 -15.0267 -13.9238 -13.7786 -12.3722 -12.3401
   -11.2995 -11.2748  -8.9498  -8.8826  -8.1739  -8.1387  -6.3551  -6.3330
    -5.3340  -5.2893  -4.9243  -4.7945  -4.3275  -4.2330  -4.0972  -4.0264
    -3.8957  -3.8381  -2.6948  -2.6604  -2.6099  -2.5414  -2.3479  -2.2753
    -1.2178  -1.1405  -1.0705  -1.0188  -0.9028  -0.8339  -0.0272   0.0023
     0.6456   0.6899

     occupation numbers 
     1.0000   1.0000   1.0000   1.0000   1.0000   1.0000   1.0000   1.0000
     1.0000   1.0000   1.0000   1.0000   1.0000   1.0000   1.0000   1.0000
     1.0000   1.0000   1.0000   1.0000   1.0000   1.0000   1.0000   1.0000
     1.0000   1.0000   1.0000   1.0000   1.0000   1.0000   1.0000   1.0000
     1.0000   1.0000   1.0000   1.0000   1.0000   1.0000   1.0000   1.0000
     1.0000   1.0000

          k = 0.0169 0.0643-0.0265 ( 36489 PWs)   bands (ev):

   -16.4013 -15.9994 -15.2949 -15.0925 -13.9568 -13.8174 -12.3999 -12.3662
   -11.2835 -11.2600  -8.9433  -8.8620  -8.1256  -8.0669  -6.4084  -6.3551
    -5.3132  -5.2694  -5.0203  -4.8540  -4.3714  -4.2390  -4.1107  -3.9332
    -3.3721  -3.2513  -2.5931  -2.5061  -2.4205  -2.3743  -2.1073  -2.0405
    -1.1144  -0.9890  -0.9205  -0.8299  -0.8011  -0.7409   0.0102   0.0320
     0.6466   0.6908

     occupation numbers 
     1.0000   1.0000   1.0000   1.0000   1.0000   1.0000   1.0000   1.0000
     1.0000   1.0000   1.0000   1.0000   1.0000   1.0000   1.0000   1.0000
     1.0000   1.0000   1.0000   1.0000   1.0000   1.0000   1.0000   1.0000
     1.0000   1.0000   1.0000   1.0000   1.0000   1.0000   1.0000   1.0000
     1.0000   1.0000   1.0000   1.0000   1.0000   1.0000   1.0000   1.0000
     1.0000   1.0000

          k =-0.0169 0.0214-0.0407 ( 36525 PWs)   bands (ev):

   -16.4262 -16.0317 -15.2808 -15.0839 -13.9180 -13.7723 -12.3597 -12.3341
   -11.3016 -11.2633  -9.0215  -8.9384  -8.2346  -8.1666  -6.3322  -6.2880
    -5.3317  -5.2858  -4.9870  -4.8130  -4.2572  -4.1360  -4.0462  -3.8193
    -3.2919  -3.1676  -2.6751  -2.5963  -2.4005  -2.3268  -2.1564  -2.0645
    -1.1774  -1.1471  -1.0385  -0.9600  -0.8687  -0.7882  -0.0375   0.0051
     0.5913   0.7261

     occupation numbers 
     1.0000   1.0000   1.0000   1.0000   1.0000   1.0000   1.0000   1.0000
     1.0000   1.0000   1.0000   1.0000   1.0000   1.0000   1.0000   1.0000
     1.0000   1.0000   1.0000   1.0000   1.0000   1.0000   1.0000   1.0000
     1.0000   1.0000   1.0000   1.0000   1.0000   1.0000   1.0000   1.0000
     1.0000   1.0000   1.0000   1.0000   1.0000   1.0000   1.0000   1.0000
     1.0000   1.0000

          k =-0.0169 0.0214-0.1078 ( 36561 PWs)   bands (ev):

   -16.3647 -15.9451 -15.2293 -15.0205 -13.9062 -13.7497 -12.3536 -12.3276
   -11.2982 -11.2545  -8.9860  -8.8971  -8.2074  -8.1414  -6.3766  -6.3033
    -5.3417  -5.2894  -5.0365  -4.9092  -4.3039  -4.2199  -4.1188  -4.0119
    -3.7570  -3.6865  -2.8018  -2.6905  -2.5395  -2.4217  -2.3804  -2.2438
    -1.3286  -1.1918  -1.1578  -0.9651  -0.9040  -0.7992  -0.2144  -0.1548
     0.6609   0.7502

     occupation numbers 
     1.0000   1.0000   1.0000   1.0000   1.0000   1.0000   1.0000   1.0000
     1.0000   1.0000   1.0000   1.0000   1.0000   1.0000   1.0000   1.0000
     1.0000   1.0000   1.0000   1.0000   1.0000   1.0000   1.0000   1.0000
     1.0000   1.0000   1.0000   1.0000   1.0000   1.0000   1.0000   1.0000
     1.0000   1.0000   1.0000   1.0000   1.0000   1.0000   1.0000   1.0000
     1.0000   1.0000

          k =-0.0169 0.0214 0.0936 ( 36547 PWs)   bands (ev):

   -16.3621 -15.9507 -15.2258 -15.0206 -13.8957 -13.7609 -12.3599 -12.3216
   -11.2843 -11.2653  -8.9617  -8.9281  -8.2033  -8.1460  -6.3949  -6.2898
    -5.3360  -5.2937  -5.0280  -4.8764  -4.3448  -4.1999  -4.1240  -4.0238
    -3.7596  -3.6880  -2.7035  -2.6734  -2.6033  -2.5095  -2.3607  -2.2219
    -1.3000  -1.2033  -1.1296  -0.9961  -0.9346  -0.7806  -0.2051  -0.1522
     0.6644   0.7390

     occupation numbers 
     1.0000   1.0000   1.0000   1.0000   1.0000   1.0000   1.0000   1.0000
     1.0000   1.0000   1.0000   1.0000   1.0000   1.0000   1.0000   1.0000
     1.0000   1.0000   1.0000   1.0000   1.0000   1.0000   1.0000   1.0000
     1.0000   1.0000   1.0000   1.0000   1.0000   1.0000   1.0000   1.0000
     1.0000   1.0000   1.0000   1.0000   1.0000   1.0000   1.0000   1.0000
     1.0000   1.0000

          k =-0.0169 0.0214 0.0265 ( 36551 PWs)   bands (ev):

   -16.4239 -16.0363 -15.2787 -15.0837 -13.9079 -13.7825 -12.3672 -12.3278
   -11.2910 -11.2700  -9.0137  -8.9560  -8.2584  -8.1340  -6.4030  -6.2209
    -5.3274  -5.2979  -5.0658  -4.6900  -4.3444  -4.0876  -3.9595  -3.8580
    -3.3244  -3.1481  -2.7607  -2.5443  -2.4172  -2.3044  -2.1859  -2.0363
    -1.2137  -1.1356  -1.0220  -0.9547  -0.8883  -0.7640  -0.0375   0.0129
     0.6019   0.7101

     occupation numbers 
     1.0000   1.0000   1.0000   1.0000   1.0000   1.0000   1.0000   1.0000
     1.0000   1.0000   1.0000   1.0000   1.0000   1.0000   1.0000   1.0000
     1.0000   1.0000   1.0000   1.0000   1.0000   1.0000   1.0000   1.0000
     1.0000   1.0000   1.0000   1.0000   1.0000   1.0000   1.0000   1.0000
     1.0000   1.0000   1.0000   1.0000   1.0000   1.0000   1.0000   1.0000
     1.0000   1.0000

          k =-0.0169 0.0643-0.0407 ( 36518 PWs)   bands (ev):

   -16.4012 -15.9997 -15.2936 -15.0940 -13.9552 -13.8184 -12.4008 -12.3666
   -11.2843 -11.2571  -8.9416  -8.8658  -8.1183  -8.0788  -6.3989  -6.3381
    -5.3115  -5.2739  -5.0501  -4.8881  -4.3718  -4.2366  -4.0495  -3.9301
    -3.3689  -3.2528  -2.6209  -2.5617  -2.3923  -2.3554  -2.1151  -2.0257
    -1.0609  -0.9573  -0.9392  -0.8653  -0.8070  -0.7602   0.0048   0.0345
     0.6365   0.7039

     occupation numbers 
     1.0000   1.0000   1.0000   1.0000   1.0000   1.0000   1.0000   1.0000
     1.0000   1.0000   1.0000   1.0000   1.0000   1.0000   1.0000   1.0000
     1.0000   1.0000   1.0000   1.0000   1.0000   1.0000   1.0000   1.0000
     1.0000   1.0000   1.0000   1.0000   1.0000   1.0000   1.0000   1.0000
     1.0000   1.0000   1.0000   1.0000   1.0000   1.0000   1.0000   1.0000
     1.0000   1.0000

          k =-0.0169 0.0643-0.1078 ( 36558 PWs)   bands (ev):

   -16.3466 -15.9256 -15.2335 -15.0272 -13.9237 -13.7787 -12.3723 -12.3400
   -11.3020 -11.2722  -8.9520  -8.8810  -8.1697  -8.1426  -6.3628  -6.3229
    -5.3293  -5.2827  -4.9274  -4.8229  -4.3124  -4.2206  -4.0882  -4.0336
    -3.9242  -3.8339  -2.6828  -2.6210  -2.5793  -2.5352  -2.3983  -2.2966
    -1.2797  -1.1375  -1.0330  -1.0114  -0.9134  -0.8080  -0.0290   0.0038
     0.6301   0.7013

     occupation numbers 
     1.0000   1.0000   1.0000   1.0000   1.0000   1.0000   1.0000   1.0000
     1.0000   1.0000   1.0000   1.0000   1.0000   1.0000   1.0000   1.0000
     1.0000   1.0000   1.0000   1.0000   1.0000   1.0000   1.0000   1.0000
     1.0000   1.0000   1.0000   1.0000   1.0000   1.0000   1.0000   1.0000
     1.0000   1.0000   1.0000   1.0000   1.0000   1.0000   1.0000   1.0000
     1.0000   1.0000

          k =-0.0169 0.0643 0.0936 ( 36547 PWs)   bands (ev):

   -16.3439 -15.9316 -15.2294 -15.0276 -13.9153 -13.7875 -12.3795 -12.3333
   -11.2978 -11.2736  -8.9275  -8.9117  -8.1886  -8.1225  -6.3933  -6.2976
    -5.3373  -5.2911  -4.8923  -4.8046  -4.3586  -4.2414  -4.0564  -3.9993
    -3.8888  -3.8711  -2.7227  -2.6950  -2.6257  -2.4762  -2.3316  -2.2771
    -1.2488  -1.1183  -1.0852  -1.0038  -0.9300  -0.8061  -0.0429   0.0194
     0.6295   0.7006

     occupation numbers 
     1.0000   1.0000   1.0000   1.0000   1.0000   1.0000   1.0000   1.0000
     1.0000   1.0000   1.0000   1.0000   1.0000   1.0000   1.0000   1.0000
     1.0000   1.0000   1.0000   1.0000   1.0000   1.0000   1.0000   1.0000
     1.0000   1.0000   1.0000   1.0000   1.0000   1.0000   1.0000   1.0000
     1.0000   1.0000   1.0000   1.0000   1.0000   1.0000   1.0000   1.0000
     1.0000   1.0000

          k =-0.0169 0.0643 0.0265 ( 36489 PWs)   bands (ev):

   -16.3987 -16.0050 -15.2904 -15.0939 -13.9479 -13.8264 -12.4078 -12.3588
   -11.2779 -11.2628  -8.9282  -8.8830  -8.1370  -8.0558  -6.4449  -6.3209
    -5.3199  -5.2645  -4.9879  -4.8673  -4.4111  -4.2078  -4.0767  -3.9589
    -3.4023  -3.2215  -2.6097  -2.5315  -2.4263  -2.3220  -2.1229  -2.0274
    -1.1306  -1.0041  -0.9230  -0.8218  -0.7790  -0.7436  -0.0083   0.0527
     0.6397   0.6933

     occupation numbers 
     1.0000   1.0000   1.0000   1.0000   1.0000   1.0000   1.0000   1.0000
     1.0000   1.0000   1.0000   1.0000   1.0000   1.0000   1.0000   1.0000
     1.0000   1.0000   1.0000   1.0000   1.0000   1.0000   1.0000   1.0000
     1.0000   1.0000   1.0000   1.0000   1.0000   1.0000   1.0000   1.0000
     1.0000   1.0000   1.0000   1.0000   1.0000   1.0000   1.0000   1.0000
     1.0000   1.0000

     highest occupied level (ev):     0.7502

!    total energy              =    -548.03799939 Ry
     Harris-Foulkes estimate   =    -548.03799941 Ry
     estimated scf accuracy    <       0.00000003 Ry

     total all-electron energy =     -4615.881487 Ry

     The total energy is the sum of the following terms:

     one-electron contribution =    -150.15986745 Ry
     hartree contribution      =     106.44156691 Ry
     xc contribution           =    -104.22010820 Ry
     ewald contribution        =    -144.31548006 Ry
     one-center paw contrib.   =    -255.78411059 Ry
      -> PAW hartree energy AE =      18.73391239 Ry
      -> PAW hartree energy PS =     -18.62989410 Ry
      -> PAW xc energy AE      =     -55.57543198 Ry
      -> PAW xc energy PS      =      10.03131324 Ry
      -> total E_H with PAW    =     106.54558520 Ry
      -> total E_XC with PAW   =    -149.76422694 Ry

     convergence has been achieved in  11 iterations
 writing file ./scratch/scf-2427.save/charge-density
 writing file ./scratch/scf-2427.save/charge-density
 writing file ./scratch/scf-2427.save/charge-density
 writing file ./scratch/scf-2427.save/charge-density
 writing file ./scratch/scf-2427.save/charge-density
 writing file ./scratch/scf-2427.save/charge-density
 writing file ./scratch/scf-2427.save/charge-density
 writing file ./scratch/scf-2427.save/charge-density
 writing file ./scratch/scf-2427.save/charge-density
 writing file ./scratch/scf-2427.save/charge-density
 writing file ./scratch/scf-2427.save/charge-density
 writing file ./scratch/scf-2427.save/charge-density
 writing file ./scratch/scf-2427.save/charge-density
 writing file ./scratch/scf-2427.save/charge-density
 writing file ./scratch/scf-2427.save/charge-density
 writing file ./scratch/scf-2427.save/charge-density
 writing file ./scratch/scf-2427.save/charge-density
 writing file ./scratch/scf-2427.save/charge-density
 writing file ./scratch/scf-2427.save/charge-density
 writing file ./scratch/scf-2427.save/charge-density
 writing file ./scratch/scf-2427.save/charge-density
 writing file ./scratch/scf-2427.save/charge-density
 writing file ./scratch/scf-2427.save/charge-density
 writing file ./scratch/scf-2427.save/charge-density
 writing file ./scratch/scf-2427.save/charge-density
 writing file ./scratch/scf-2427.save/charge-density
 writing file ./scratch/scf-2427.save/charge-density
 writing file ./scratch/scf-2427.save/charge-density
 writing file ./scratch/scf-2427.save/charge-density
 writing file ./scratch/scf-2427.save/charge-density
 writing file ./scratch/scf-2427.save/charge-density
 writing file ./scratch/scf-2427.save/charge-density

     Forces acting on atoms (cartesian axes, Ry/au):

     atom    1 type  2   force =    -0.05329250    0.05871912    0.01397520
     atom    2 type  1   force =     0.02482864   -0.05200564    0.00768983
     atom    3 type  1   force =     0.00491705   -0.00003031   -0.02478035
     atom    4 type  3   force =    -0.00011345   -0.00585849   -0.00234056
     atom    5 type  1   force =     0.00530533    0.00252260    0.02299164
     atom    6 type  3   force =     0.00786052    0.00133520   -0.00058853
     atom    7 type  3   force =    -0.00192529   -0.00007028   -0.00145699
     atom    8 type  1   force =    -0.01137902    0.00291156    0.00557740
     atom    9 type  3   force =    -0.00179478    0.00122262    0.00360089
     atom   10 type  1   force =     0.00341959   -0.00543759   -0.00080092
     atom   11 type  1   force =    -0.01156812   -0.01817257   -0.00217619
     atom   12 type  2   force =     0.02281416    0.02004906   -0.00738021
     atom   13 type  3   force =    -0.00311360    0.00019643   -0.00151235
     atom   14 type  1   force =     0.02436592   -0.01358640   -0.02510436
     atom   15 type  3   force =     0.00047169    0.00290934   -0.00328062
     atom   16 type  1   force =     0.00698855   -0.04143131   -0.00027522
     atom   17 type  1   force =     0.05896326   -0.01402477    0.01774823
     atom   18 type  2   force =    -0.07751471    0.05874919   -0.00193160
     atom   19 type  3   force =     0.00207336   -0.00010172   -0.00066927
     atom   20 type  1   force =    -0.01107577    0.00261277    0.01427972
     atom   21 type  3   force =    -0.00096439    0.00408236    0.00263643
     atom   22 type  1   force =     0.00583718   -0.00215514   -0.01316193
     atom   23 type  1   force =    -0.00859954    0.00086854   -0.01003245
     atom   24 type  2   force =     0.01349592   -0.00330456    0.00699221
     The non-local contrib.  to forces
     atom    1 type  2   force =    -0.27588917    0.26454807    0.04031048
     atom    2 type  1   force =     0.38088523   -0.39558725    0.01463078
     atom    3 type  1   force =    -0.02311954   -0.04879893   -0.10121676
     atom    4 type  3   force =    -0.06203170   -0.01801271   -0.04550252
     atom    5 type  1   force =    -0.01821038   -0.05529391   -0.02114067
     atom    6 type  3   force =     0.00068772   -0.06466658   -0.04472509
     atom    7 type  3   force =     0.00153004   -0.06498181    0.04460005
     atom    8 type  1   force =     0.01030645   -0.03553547    0.05659729
     atom    9 type  3   force =     0.06229752   -0.01647069    0.04527120
     atom   10 type  1   force =     0.03787433   -0.04842247    0.04947208
     atom   11 type  1   force =    -0.39072484   -0.32234915    0.01509115
     atom   12 type  2   force =     0.30958885    0.25199979   -0.03009858
     atom   13 type  3   force =     0.00290946    0.06752920    0.04036843
     atom   14 type  1   force =     0.07169915    0.04222103    0.00257126
     atom   15 type  3   force =     0.06490854    0.02009694    0.03924485
     atom   16 type  1   force =     0.03918434   -0.01910936    0.03477864
     atom   17 type  1   force =    -0.29918098    0.34250844   -0.00014936
     atom   18 type  2   force =     0.26349490   -0.27766522   -0.00197729
     atom   19 type  3   force =    -0.00222124    0.06606581   -0.04245168
     atom   20 type  1   force =    -0.04258563    0.05243087   -0.01637055
     atom   21 type  3   force =    -0.06531244    0.01968140   -0.03950195
     atom   22 type  1   force =    -0.03393142    0.04590461   -0.06210917
     atom   23 type  1   force =     0.38045985    0.32865092   -0.01454542
     atom   24 type  2   force =    -0.28243196   -0.27206268    0.02504878
     The ionic contribution  to forces
     atom    1 type  2   force =     5.11334515   -3.61120684    0.53873853
     atom    2 type  1   force =     3.22974738   -1.92893310    0.21958892
     atom    3 type  1   force =     4.45556640    1.21749023    3.13285982
     atom    4 type  3   force =     1.94348118    0.61207372    1.34827643
     atom    5 type  1   force =     1.42769093    3.74826572    2.42376297
     atom    6 type  3   force =     0.27973707    1.88688692    1.40219904
     atom    7 type  3   force =    -0.30722009    1.90223049   -1.37143079
     atom    8 type  1   force =    -1.15337738    3.79838991   -2.67260700
     atom    9 type  3   force =    -2.03130231    0.63020424   -1.38881136
     atom   10 type  1   force =    -4.50488368    1.75394584   -2.74014831
     atom   11 type  1   force =    -2.67212941   -1.64275482   -0.30588004
     atom   12 type  2   force =    -5.32592537   -3.74331381   -0.33131900
     atom   13 type  3   force =    -0.29373636   -1.88904693   -1.29645208
     atom   14 type  1   force =    -1.17149840   -3.95618613   -2.10078531
     atom   15 type  3   force =    -2.12221064   -0.66186331   -1.26452078
     atom   16 type  1   force =    -4.47805374   -1.78430647   -3.16744998
     atom   17 type  1   force =    -2.02627442    1.24158077   -0.43575853
     atom   18 type  2   force =    -6.38715804    4.68957303   -0.63204496
     atom   19 type  3   force =     0.29274973   -1.91694913    1.30375363
     atom   20 type  1   force =     1.17734162   -4.10483331    2.18683546
     atom   21 type  3   force =     2.00230555   -0.74335137    1.16558372
     atom   22 type  1   force =     4.28270769   -1.65636242    2.84162047
     atom   23 type  1   force =     2.36074797    1.59099957    0.58949290
     atom   24 type  2   force =     5.90834917    4.56746719    0.55449626
     The local contribution  to forces
     atom    1 type  2   force =    -4.90438537    3.41872629   -0.56284927
     atom    2 type  1   force =    -3.57453720    2.26218481   -0.22680924
     atom    3 type  1   force =    -4.42598290   -1.16923795   -3.05629774
     atom    4 type  3   force =    -1.88155483   -0.59992023   -1.30511117
     atom    5 type  1   force =    -1.40397259   -3.68968869   -2.37914329
     atom    6 type  3   force =    -0.27256960   -1.82087326   -1.35805990
     atom    7 type  3   force =     0.30374910   -1.83731191    1.32536620
     atom    8 type  1   force =     1.13148314   -3.75897440    2.62103532
     atom    9 type  3   force =     1.96722091   -0.61251785    1.34715136
     atom   10 type  1   force =     4.46907088   -1.71102187    2.68950736
     atom   11 type  1   force =     3.04065429    1.93864254    0.28916221
     atom   12 type  2   force =     5.05250970    3.52243832    0.35261919
     atom   13 type  3   force =     0.28770939    1.82172966    1.25457791
     atom   14 type  1   force =     1.12471707    3.89929080    2.07244667
     atom   15 type  3   force =     2.05779997    0.64467520    1.22200698
     atom   16 type  1   force =     4.44467632    1.76056570    3.13093333
     atom   17 type  1   force =     2.37727012   -1.59006365    0.45378766
     atom   18 type  2   force =     6.05368065   -4.36168134    0.63202202
     atom   19 type  3   force =    -0.28845931    1.85078800   -1.26197958
     atom   20 type  1   force =    -1.14614807    4.05387610   -2.15562687
     atom   21 type  3   force =    -1.93794298    0.72774057   -1.12343773
     atom   22 type  1   force =    -4.24182655    1.60849649   -2.79213714
     atom   23 type  1   force =    -2.73998807   -1.91050646   -0.58497367
     atom   24 type  2   force =    -5.62337159   -4.30980770   -0.57125951
     The core correction contribution to forces
     atom    1 type  2   force =     0.01365130   -0.01337216   -0.00222236
     atom    2 type  1   force =    -0.01133940    0.01031228    0.00024818
     atom    3 type  1   force =    -0.00153069    0.00049735   -0.00012369
     atom    4 type  3   force =     0.00000000    0.00000000    0.00000000
     atom    5 type  1   force =    -0.00024833   -0.00075800   -0.00051005
     atom    6 type  3   force =     0.00000000    0.00000000    0.00000000
     atom    7 type  3   force =     0.00000000    0.00000000    0.00000000
     atom    8 type  1   force =     0.00007115   -0.00096565    0.00050124
     atom    9 type  3   force =     0.00000000    0.00000000    0.00000000
     atom   10 type  1   force =     0.00126564    0.00004074    0.00034023
     atom   11 type  1   force =     0.01058733    0.00828896   -0.00058553
     atom   12 type  2   force =    -0.01338614   -0.01105102    0.00136827
     atom   13 type  3   force =     0.00000000    0.00000000    0.00000000
     atom   14 type  1   force =    -0.00062184    0.00109635    0.00064300
     atom   15 type  3   force =     0.00000000    0.00000000    0.00000000
     atom   16 type  1   force =     0.00120564    0.00137670    0.00146204
     atom   17 type  1   force =     0.00711480   -0.00809267   -0.00017150
     atom   18 type  2   force =    -0.00739161    0.00850371    0.00009617
     atom   19 type  3   force =     0.00000000    0.00000000    0.00000000
     atom   20 type  1   force =     0.00025877    0.00107479   -0.00057039
     atom   21 type  3   force =     0.00000000    0.00000000    0.00000000
     atom   22 type  1   force =    -0.00111330   -0.00028405   -0.00050373
     atom   23 type  1   force =    -0.00982650   -0.00825866   -0.00000365
     atom   24 type  2   force =     0.01105038    0.01119778   -0.00123998
     The Hubbard contrib.    to forces
     atom    1 type  2   force =     0.00000000    0.00000000    0.00000000
     atom    2 type  1   force =     0.00000000    0.00000000    0.00000000
     atom    3 type  1   force =     0.00000000    0.00000000    0.00000000
     atom    4 type  3   force =     0.00000000    0.00000000    0.00000000
     atom    5 type  1   force =     0.00000000    0.00000000    0.00000000
     atom    6 type  3   force =     0.00000000    0.00000000    0.00000000
     atom    7 type  3   force =     0.00000000    0.00000000    0.00000000
     atom    8 type  1   force =     0.00000000    0.00000000    0.00000000
     atom    9 type  3   force =     0.00000000    0.00000000    0.00000000
     atom   10 type  1   force =     0.00000000    0.00000000    0.00000000
     atom   11 type  1   force =     0.00000000    0.00000000    0.00000000
     atom   12 type  2   force =     0.00000000    0.00000000    0.00000000
     atom   13 type  3   force =     0.00000000    0.00000000    0.00000000
     atom   14 type  1   force =     0.00000000    0.00000000    0.00000000
     atom   15 type  3   force =     0.00000000    0.00000000    0.00000000
     atom   16 type  1   force =     0.00000000    0.00000000    0.00000000
     atom   17 type  1   force =     0.00000000    0.00000000    0.00000000
     atom   18 type  2   force =     0.00000000    0.00000000    0.00000000
     atom   19 type  3   force =     0.00000000    0.00000000    0.00000000
     atom   20 type  1   force =     0.00000000    0.00000000    0.00000000
     atom   21 type  3   force =     0.00000000    0.00000000    0.00000000
     atom   22 type  1   force =     0.00000000    0.00000000    0.00000000
     atom   23 type  1   force =     0.00000000    0.00000000    0.00000000
     atom   24 type  2   force =     0.00000000    0.00000000    0.00000000
     The SCF correction term to forces
     atom    1 type  2   force =    -0.00001272    0.00002322   -0.00000191
     atom    2 type  1   force =     0.00007432    0.00001707    0.00003145
     atom    3 type  1   force =    -0.00001454    0.00001845   -0.00000171
     atom    4 type  3   force =    -0.00000642    0.00000019   -0.00000304
     atom    5 type  1   force =     0.00004738   -0.00000305    0.00002296
     atom    6 type  3   force =     0.00000702   -0.00001242   -0.00000231
     atom    7 type  3   force =     0.00001734   -0.00000759    0.00000783
     atom    8 type  1   force =     0.00013931   -0.00000337    0.00005082
     atom    9 type  3   force =    -0.00000922    0.00000639   -0.00001005
     atom   10 type  1   force =     0.00009410    0.00001963    0.00002798
     atom   11 type  1   force =     0.00004619   -0.00000064    0.00003628
     atom   12 type  2   force =     0.00002880   -0.00002476    0.00005018
     atom   13 type  3   force =     0.00000558   -0.00001605   -0.00000635
     atom   14 type  1   force =     0.00007162   -0.00000899    0.00002029
     atom   15 type  3   force =    -0.00002449   -0.00000003   -0.00001139
     atom   16 type  1   force =    -0.00002234    0.00004159    0.00000102
     atom   17 type  1   force =     0.00003544    0.00004181    0.00004022
     atom   18 type  2   force =    -0.00013893    0.00001846   -0.00002727
     atom   19 type  3   force =     0.00000586   -0.00000693    0.00000863
     atom   20 type  1   force =     0.00005922    0.00006379    0.00001234
     atom   21 type  3   force =    -0.00001283    0.00001122   -0.00000735
     atom   22 type  1   force =     0.00000245    0.00008969   -0.00003209
     atom   23 type  1   force =     0.00000889   -0.00001736   -0.00000234
     atom   24 type  2   force =    -0.00009839   -0.00009968   -0.00005308

     Total force =     0.174638     Total SCF correction =     0.000354

     Writing output data file scf-2427.save
 writing file ./scratch/scf-2427.save/charge-density
 writing file ./scratch/scf-2427.save/charge-density
 writing file ./scratch/scf-2427.save/charge-density
 writing file ./scratch/scf-2427.save/charge-density
 writing file ./scratch/scf-2427.save/charge-density
 writing file ./scratch/scf-2427.save/charge-density
 writing file ./scratch/scf-2427.save/charge-density
 writing file ./scratch/scf-2427.save/charge-density
 writing file ./scratch/scf-2427.save/charge-density
 writing file ./scratch/scf-2427.save/charge-density
 writing file ./scratch/scf-2427.save/charge-density
 writing file ./scratch/scf-2427.save/charge-density
 writing file ./scratch/scf-2427.save/charge-density
 writing file ./scratch/scf-2427.save/charge-density
 writing file ./scratch/scf-2427.save/charge-density
 writing file ./scratch/scf-2427.save/charge-density
 writing file ./scratch/scf-2427.save/charge-density
 writing file ./scratch/scf-2427.save/charge-density
 writing file ./scratch/scf-2427.save/charge-density
 writing file ./scratch/scf-2427.save/charge-density
 writing file ./scratch/scf-2427.save/charge-density
 writing file ./scratch/scf-2427.save/charge-density
 writing file ./scratch/scf-2427.save/charge-density
 writing file ./scratch/scf-2427.save/charge-density
 writing file ./scratch/scf-2427.save/charge-density
 writing file ./scratch/scf-2427.save/charge-density
 writing file ./scratch/scf-2427.save/charge-density
 writing file ./scratch/scf-2427.save/charge-density
 writing file ./scratch/scf-2427.save/charge-density
 writing file ./scratch/scf-2427.save/charge-density
 writing file ./scratch/scf-2427.save/charge-density
 writing file ./scratch/scf-2427.save/charge-density
 
     init_run     :      4.41s CPU      4.61s WALL (       1 calls)
     electrons    :     50.26s CPU     53.16s WALL (       1 calls)
     forces       :      3.25s CPU      3.41s WALL (       1 calls)

     Called by init_run:
     wfcinit      :      1.62s CPU      1.65s WALL (       1 calls)
     wfcinit:atom :      0.02s CPU      0.02s WALL (      16 calls)
     wfcinit:wfcr :      1.50s CPU      1.53s WALL (      16 calls)
     potinit      :      0.89s CPU      0.91s WALL (       1 calls)

     Called by electrons:
     c_bands      :     39.28s CPU     39.57s WALL (      11 calls)
     sum_band     :      6.92s CPU      8.11s WALL (      11 calls)
     v_of_rho     :      0.91s CPU      0.97s WALL (      12 calls)
     v_h          :      0.06s CPU      0.06s WALL (      12 calls)
     v_xc         :      0.92s CPU      0.99s WALL (      13 calls)
     newd         :      1.47s CPU      2.87s WALL (      12 calls)
     PAW_pot      :      1.67s CPU      1.70s WALL (      12 calls)
     mix_rho      :      0.14s CPU      0.14s WALL (      11 calls)

     Called by c_bands:
     init_us_2    :      0.86s CPU      0.87s WALL (     384 calls)
     cegterg      :     37.00s CPU     37.17s WALL (     176 calls)

     Called by sum_band:
     sum_band:bec :      0.02s CPU      0.02s WALL (     176 calls)
     addusdens    :      1.52s CPU      2.67s WALL (      11 calls)

     Called by *egterg:
     h_psi        :     27.62s CPU     27.83s WALL (     855 calls)
     s_psi        :      2.10s CPU      2.06s WALL (     855 calls)
     g_psi        :      0.14s CPU      0.16s WALL (     663 calls)
     cdiaghg      :      3.41s CPU      3.39s WALL (     839 calls)
     cegterg:over :      1.63s CPU      1.62s WALL (     663 calls)
     cegterg:upda :      1.23s CPU      1.27s WALL (     663 calls)
     cegterg:last :      0.42s CPU      0.44s WALL (     192 calls)

     Called by h_psi:
     h_psi:pot    :     27.41s CPU     27.56s WALL (     855 calls)
     h_psi:calbec :      2.27s CPU      2.25s WALL (     855 calls)
     vloc_psi     :     23.15s CPU     23.30s WALL (     855 calls)
     add_vuspsi   :      1.98s CPU      2.00s WALL (     855 calls)

     General routines
     calbec       :      3.01s CPU      3.01s WALL (    1095 calls)
     fft          :      0.72s CPU      0.77s WALL (     199 calls)
     ffts         :      0.02s CPU      0.03s WALL (      23 calls)
     fftw         :     22.09s CPU     22.21s WALL (   55526 calls)
     interpolate  :      0.15s CPU      0.15s WALL (      23 calls)
     davcio       :      0.00s CPU      0.01s WALL (      16 calls)
 
     Parallel routines
     fft_scatter  :      8.14s CPU      8.40s WALL (   55748 calls)

     PAW routines
     PAW_pot      :      1.67s CPU      1.70s WALL (      12 calls)
 
     PWSCF        :  0m58.61s CPU     1m 2.27s WALL

 
   This run was terminated on:  13:43:50  20May2017            

=------------------------------------------------------------------------------=
   JOB DONE.
=------------------------------------------------------------------------------=
