
     Program PWSCF v.6.1 starts on 20May2017 at 17:31:54 

     This program is part of the open-source Quantum ESPRESSO suite
     for quantum simulation of materials; please cite
         "P. Giannozzi et al., J. Phys.:Condens. Matter 21 395502 (2009);
          URL http://www.quantum-espresso.org", 
     in publications or presentations arising from this work. More details at
     http://www.quantum-espresso.org/quote

     Parallel version (MPI & OpenMP), running on      32 processor cores
     Number of MPI processes:                32
     Threads/MPI process:                     1
     R & G space division:  proc/nbgrp/npool/nimage =      32
     Waiting for input...
Open_input_file: error opening input_tmp.in

 %%%%%%%%%%%%%%%%%%%%%%%%%%%%%%%%%%%%%%%%%%%%%%%%%%%%%%%%%%%%%%%%%%%%%%%%%%%%%%
     Error in routine read_input (2):
     opening input file

 %%%%%%%%%%%%%%%%%%%%%%%%%%%%%%%%%%%%%%%%%%%%%%%%%%%%%%%%%%%%%%%%%%%%%%%%%%%%%%
     Error in routine read_input (2):
     opening input file
 %%%%%%%%%%%%%%%%%%%%%%%%%%%%%%%%%%%%%%%%%%%%%%%%%%%%%%%%%%%%%%%%%%%%%%%%%%%%%%

     stopping ...
 %%%%%%%%%%%%%%%%%%%%%%%%%%%%%%%%%%%%%%%%%%%%%%%%%%%%%%%%%%%%%%%%%%%%%%%%%%%%%%

     stopping ...

 %%%%%%%%%%%%%%%%%%%%%%%%%%%%%%%%%%%%%%%%%%%%%%%%%%%%%%%%%%%%%%%%%%%%%%%%%%%%%%
     Error in routine read_input (2):
     opening input file
 %%%%%%%%%%%%%%%%%%%%%%%%%%%%%%%%%%%%%%%%%%%%%%%%%%%%%%%%%%%%%%%%%%%%%%%%%%%%%%

     stopping ...

 %%%%%%%%%%%%%%%%%%%%%%%%%%%%%%%%%%%%%%%%%%%%%%%%%%%%%%%%%%%%%%%%%%%%%%%%%%%%%%
     Error in routine read_input (2):
     opening input file
 %%%%%%%%%%%%%%%%%%%%%%%%%%%%%%%%%%%%%%%%%%%%%%%%%%%%%%%%%%%%%%%%%%%%%%%%%%%%%%

     stopping ...

 %%%%%%%%%%%%%%%%%%%%%%%%%%%%%%%%%%%%%%%%%%%%%%%%%%%%%%%%%%%%%%%%%%%%%%%%%%%%%%
     Error in routine read_input (2):
     opening input file
 %%%%%%%%%%%%%%%%%%%%%%%%%%%%%%%%%%%%%%%%%%%%%%%%%%%%%%%%%%%%%%%%%%%%%%%%%%%%%%

     stopping ...

 %%%%%%%%%%%%%%%%%%%%%%%%%%%%%%%%%%%%%%%%%%%%%%%%%%%%%%%%%%%%%%%%%%%%%%%%%%%%%%
     Error in routine read_input (2):
     opening input file
 %%%%%%%%%%%%%%%%%%%%%%%%%%%%%%%%%%%%%%%%%%%%%%%%%%%%%%%%%%%%%%%%%%%%%%%%%%%%%%

     stopping ...

 %%%%%%%%%%%%%%%%%%%%%%%%%%%%%%%%%%%%%%%%%%%%%%%%%%%%%%%%%%%%%%%%%%%%%%%%%%%%%%
     Error in routine read_input (2):
     opening input file
 %%%%%%%%%%%%%%%%%%%%%%%%%%%%%%%%%%%%%%%%%%%%%%%%%%%%%%%%%%%%%%%%%%%%%%%%%%%%%%

     stopping ...

 %%%%%%%%%%%%%%%%%%%%%%%%%%%%%%%%%%%%%%%%%%%%%%%%%%%%%%%%%%%%%%%%%%%%%%%%%%%%%%
     Error in routine read_input (2):
     opening input file
 %%%%%%%%%%%%%%%%%%%%%%%%%%%%%%%%%%%%%%%%%%%%%%%%%%%%%%%%%%%%%%%%%%%%%%%%%%%%%%

     stopping ...

 %%%%%%%%%%%%%%%%%%%%%%%%%%%%%%%%%%%%%%%%%%%%%%%%%%%%%%%%%%%%%%%%%%%%%%%%%%%%%%
     Error in routine read_input (2):
     opening input file
 %%%%%%%%%%%%%%%%%%%%%%%%%%%%%%%%%%%%%%%%%%%%%%%%%%%%%%%%%%%%%%%%%%%%%%%%%%%%%%

     stopping ...

 %%%%%%%%%%%%%%%%%%%%%%%%%%%%%%%%%%%%%%%%%%%%%%%%%%%%%%%%%%%%%%%%%%%%%%%%%%%%%%
     Error in routine read_input (2):
     opening input file
 %%%%%%%%%%%%%%%%%%%%%%%%%%%%%%%%%%%%%%%%%%%%%%%%%%%%%%%%%%%%%%%%%%%%%%%%%%%%%%

     stopping ...

 %%%%%%%%%%%%%%%%%%%%%%%%%%%%%%%%%%%%%%%%%%%%%%%%%%%%%%%%%%%%%%%%%%%%%%%%%%%%%%
     Error in routine read_input (2):
     opening input file
 %%%%%%%%%%%%%%%%%%%%%%%%%%%%%%%%%%%%%%%%%%%%%%%%%%%%%%%%%%%%%%%%%%%%%%%%%%%%%%

     stopping ...

 %%%%%%%%%%%%%%%%%%%%%%%%%%%%%%%%%%%%%%%%%%%%%%%%%%%%%%%%%%%%%%%%%%%%%%%%%%%%%%
     Error in routine read_input (2):
     opening input file
 %%%%%%%%%%%%%%%%%%%%%%%%%%%%%%%%%%%%%%%%%%%%%%%%%%%%%%%%%%%%%%%%%%%%%%%%%%%%%%

     stopping ...

 %%%%%%%%%%%%%%%%%%%%%%%%%%%%%%%%%%%%%%%%%%%%%%%%%%%%%%%%%%%%%%%%%%%%%%%%%%%%%%
     Error in routine read_input (2):
     opening input file
 %%%%%%%%%%%%%%%%%%%%%%%%%%%%%%%%%%%%%%%%%%%%%%%%%%%%%%%%%%%%%%%%%%%%%%%%%%%%%%

     stopping ...

 %%%%%%%%%%%%%%%%%%%%%%%%%%%%%%%%%%%%%%%%%%%%%%%%%%%%%%%%%%%%%%%%%%%%%%%%%%%%%%
     Error in routine read_input (2):
     opening input file
 %%%%%%%%%%%%%%%%%%%%%%%%%%%%%%%%%%%%%%%%%%%%%%%%%%%%%%%%%%%%%%%%%%%%%%%%%%%%%%

     stopping ...

 %%%%%%%%%%%%%%%%%%%%%%%%%%%%%%%%%%%%%%%%%%%%%%%%%%%%%%%%%%%%%%%%%%%%%%%%%%%%%%
     Error in routine read_input (2):
     opening input file
 %%%%%%%%%%%%%%%%%%%%%%%%%%%%%%%%%%%%%%%%%%%%%%%%%%%%%%%%%%%%%%%%%%%%%%%%%%%%%%

     stopping ...

 %%%%%%%%%%%%%%%%%%%%%%%%%%%%%%%%%%%%%%%%%%%%%%%%%%%%%%%%%%%%%%%%%%%%%%%%%%%%%%
     Error in routine read_input (2):
     opening input file
 %%%%%%%%%%%%%%%%%%%%%%%%%%%%%%%%%%%%%%%%%%%%%%%%%%%%%%%%%%%%%%%%%%%%%%%%%%%%%%

     stopping ...

 %%%%%%%%%%%%%%%%%%%%%%%%%%%%%%%%%%%%%%%%%%%%%%%%%%%%%%%%%%%%%%%%%%%%%%%%%%%%%%
     Error in routine read_input (2):
     opening input file
 %%%%%%%%%%%%%%%%%%%%%%%%%%%%%%%%%%%%%%%%%%%%%%%%%%%%%%%%%%%%%%%%%%%%%%%%%%%%%%

     stopping ...

 %%%%%%%%%%%%%%%%%%%%%%%%%%%%%%%%%%%%%%%%%%%%%%%%%%%%%%%%%%%%%%%%%%%%%%%%%%%%%%
     Error in routine read_input (2):
     opening input file
 %%%%%%%%%%%%%%%%%%%%%%%%%%%%%%%%%%%%%%%%%%%%%%%%%%%%%%%%%%%%%%%%%%%%%%%%%%%%%%

     stopping ...

 %%%%%%%%%%%%%%%%%%%%%%%%%%%%%%%%%%%%%%%%%%%%%%%%%%%%%%%%%%%%%%%%%%%%%%%%%%%%%%
     Error in routine read_input (2):
     opening input file
 %%%%%%%%%%%%%%%%%%%%%%%%%%%%%%%%%%%%%%%%%%%%%%%%%%%%%%%%%%%%%%%%%%%%%%%%%%%%%%

     stopping ...

 %%%%%%%%%%%%%%%%%%%%%%%%%%%%%%%%%%%%%%%%%%%%%%%%%%%%%%%%%%%%%%%%%%%%%%%%%%%%%%
     Error in routine read_input (2):
     opening input file
 %%%%%%%%%%%%%%%%%%%%%%%%%%%%%%%%%%%%%%%%%%%%%%%%%%%%%%%%%%%%%%%%%%%%%%%%%%%%%%

     stopping ...

 %%%%%%%%%%%%%%%%%%%%%%%%%%%%%%%%%%%%%%%%%%%%%%%%%%%%%%%%%%%%%%%%%%%%%%%%%%%%%%
     Error in routine read_input (2):
     opening input file
 %%%%%%%%%%%%%%%%%%%%%%%%%%%%%%%%%%%%%%%%%%%%%%%%%%%%%%%%%%%%%%%%%%%%%%%%%%%%%%

     stopping ...

 %%%%%%%%%%%%%%%%%%%%%%%%%%%%%%%%%%%%%%%%%%%%%%%%%%%%%%%%%%%%%%%%%%%%%%%%%%%%%%
     Error in routine read_input (2):
     opening input file
 %%%%%%%%%%%%%%%%%%%%%%%%%%%%%%%%%%%%%%%%%%%%%%%%%%%%%%%%%%%%%%%%%%%%%%%%%%%%%%

     stopping ...

 %%%%%%%%%%%%%%%%%%%%%%%%%%%%%%%%%%%%%%%%%%%%%%%%%%%%%%%%%%%%%%%%%%%%%%%%%%%%%%
     Error in routine read_input (2):
     opening input file
 %%%%%%%%%%%%%%%%%%%%%%%%%%%%%%%%%%%%%%%%%%%%%%%%%%%%%%%%%%%%%%%%%%%%%%%%%%%%%%

     stopping ...

 %%%%%%%%%%%%%%%%%%%%%%%%%%%%%%%%%%%%%%%%%%%%%%%%%%%%%%%%%%%%%%%%%%%%%%%%%%%%%%
     Error in routine read_input (2):
     opening input file
 %%%%%%%%%%%%%%%%%%%%%%%%%%%%%%%%%%%%%%%%%%%%%%%%%%%%%%%%%%%%%%%%%%%%%%%%%%%%%%

     stopping ...

 %%%%%%%%%%%%%%%%%%%%%%%%%%%%%%%%%%%%%%%%%%%%%%%%%%%%%%%%%%%%%%%%%%%%%%%%%%%%%%
     Error in routine read_input (2):
     opening input file
 %%%%%%%%%%%%%%%%%%%%%%%%%%%%%%%%%%%%%%%%%%%%%%%%%%%%%%%%%%%%%%%%%%%%%%%%%%%%%%

     stopping ...

 %%%%%%%%%%%%%%%%%%%%%%%%%%%%%%%%%%%%%%%%%%%%%%%%%%%%%%%%%%%%%%%%%%%%%%%%%%%%%%
     Error in routine read_input (2):
     opening input file
 %%%%%%%%%%%%%%%%%%%%%%%%%%%%%%%%%%%%%%%%%%%%%%%%%%%%%%%%%%%%%%%%%%%%%%%%%%%%%%

     stopping ...

 %%%%%%%%%%%%%%%%%%%%%%%%%%%%%%%%%%%%%%%%%%%%%%%%%%%%%%%%%%%%%%%%%%%%%%%%%%%%%%
     Error in routine read_input (2):
     opening input file
 %%%%%%%%%%%%%%%%%%%%%%%%%%%%%%%%%%%%%%%%%%%%%%%%%%%%%%%%%%%%%%%%%%%%%%%%%%%%%%

     stopping ...

 %%%%%%%%%%%%%%%%%%%%%%%%%%%%%%%%%%%%%%%%%%%%%%%%%%%%%%%%%%%%%%%%%%%%%%%%%%%%%%
     Error in routine read_input (2):
     opening input file
 %%%%%%%%%%%%%%%%%%%%%%%%%%%%%%%%%%%%%%%%%%%%%%%%%%%%%%%%%%%%%%%%%%%%%%%%%%%%%%

     stopping ...

 %%%%%%%%%%%%%%%%%%%%%%%%%%%%%%%%%%%%%%%%%%%%%%%%%%%%%%%%%%%%%%%%%%%%%%%%%%%%%%
     Error in routine read_input (2):
     opening input file
 %%%%%%%%%%%%%%%%%%%%%%%%%%%%%%%%%%%%%%%%%%%%%%%%%%%%%%%%%%%%%%%%%%%%%%%%%%%%%%

     stopping ...

 %%%%%%%%%%%%%%%%%%%%%%%%%%%%%%%%%%%%%%%%%%%%%%%%%%%%%%%%%%%%%%%%%%%%%%%%%%%%%%
     Error in routine read_input (2):
     opening input file
 %%%%%%%%%%%%%%%%%%%%%%%%%%%%%%%%%%%%%%%%%%%%%%%%%%%%%%%%%%%%%%%%%%%%%%%%%%%%%%

     stopping ...

 %%%%%%%%%%%%%%%%%%%%%%%%%%%%%%%%%%%%%%%%%%%%%%%%%%%%%%%%%%%%%%%%%%%%%%%%%%%%%%
     Error in routine read_input (2):
     opening input file
 %%%%%%%%%%%%%%%%%%%%%%%%%%%%%%%%%%%%%%%%%%%%%%%%%%%%%%%%%%%%%%%%%%%%%%%%%%%%%%

     stopping ...

 %%%%%%%%%%%%%%%%%%%%%%%%%%%%%%%%%%%%%%%%%%%%%%%%%%%%%%%%%%%%%%%%%%%%%%%%%%%%%%
     Error in routine read_input (2):
     opening input file
 %%%%%%%%%%%%%%%%%%%%%%%%%%%%%%%%%%%%%%%%%%%%%%%%%%%%%%%%%%%%%%%%%%%%%%%%%%%%%%

     stopping ...

     Program PWSCF v.6.1 starts on  7Jun2017 at 18:46: 0 

     This program is part of the open-source Quantum ESPRESSO suite
     for quantum simulation of materials; please cite
         "P. Giannozzi et al., J. Phys.:Condens. Matter 21 395502 (2009);
          URL http://www.quantum-espresso.org", 
     in publications or presentations arising from this work. More details at
     http://www.quantum-espresso.org/quote

     Parallel version (MPI & OpenMP), running on      32 processor cores
     Number of MPI processes:                32
     Threads/MPI process:                     1
     R & G space division:  proc/nbgrp/npool/nimage =      32
     Waiting for input...
     Reading input from standard input
Warning: card &IONS ignored
Warning: card     ION_TEMPERATURE   = 'INITIAL' ignored
Warning: card     TEMPW             = 586.D0 ignored
Warning: card     TOLP              = 100.D0 ignored
Warning: card     DELTA_T           = 1.D0 ignored
Warning: card     NRAISE            = 1 ignored
Warning: card / ignored
Warning: card &CELL ignored
Warning: card     CELL_DYNAMICS     = 'BFGS' ignored
Warning: card / ignored

     Current dimensions of program PWSCF are:
     Max number of different atomic species (ntypx) = 10
     Max number of k-points (npk) =  40000
     Max angular momentum in pseudopotentials (lmaxx) =  3
               file C.pbe-n-kjpaw_psl.1.0.0.UPF: wavefunction(s)  2S 2P renormalized
               file Cl.pbe-n-kjpaw_psl.1.0.0.UPF: wavefunction(s)  3S 3P renormalized
               file H.pbe-kjpaw_psl.1.0.0.UPF: wavefunction(s)  1S renormalized

     Subspace diagonalization in iterative solution of the eigenvalue problem:
     a serial algorithm will be used

 
     Parallelization info
     --------------------
     sticks:   dense  smooth     PW     G-vecs:    dense   smooth      PW
     Min         764     305     83                36108     9133    1292
     Max         765     306     84                36110     9135    1293
     Sum       24467    9791   2657              1155489   292295   41363
 


     bravais-lattice index     =            0
     lattice parameter (alat)  =       1.8897  a.u.
     unit-cell volume          =    2163.5316 (a.u.)^3
     number of atoms/cell      =           24
     number of atomic types    =            3
     number of electrons       =        84.00
     number of Kohn-Sham states=           42
     kinetic-energy cutoff     =     100.0000  Ry
     charge density cutoff     =    1000.0000  Ry
     convergence threshold     =      1.0E-07
     mixing beta               =       0.7000
     number of iterations used =            8  plain     mixing
     Exchange-correlation      =  SLA  PW   PBX  PBC ( 1  4  3  4 0 0)

     celldm(1)=   1.889726  celldm(2)=   0.000000  celldm(3)=   0.000000
     celldm(4)=   0.000000  celldm(5)=   0.000000  celldm(6)=   0.000000

     crystal axes: (cart. coord. in units of alat)
               a(1) = (  14.762000   0.000000   0.000000 )  
               a(2) = (   0.000000   5.832000   0.000000 )  
               a(3) = (  -1.563876   0.000000   3.723951 )  

     reciprocal axes: (cart. coord. in units 2 pi/alat)
               b(1) = (  0.067741  0.000000  0.028448 )  
               b(2) = (  0.000000  0.171468  0.000000 )  
               b(3) = (  0.000000  0.000000  0.268532 )  


     PseudoPot. # 1 for  C read from file:
     /global/cscratch1/sd/almno10/.data/PSEUDOPOTENTIALS/C.pbe-n-kjpaw_psl.1.0.0.UPF
     MD5 check sum: 2ba8448e293caca687844dde9a1b88a8
     Pseudo is Projector augmented-wave + core cor, Zval =  4.0
     Generated using "atomic" code by A. Dal Corso  v.5.3.0 svn rev. 11974
     Shape of augmentation charge: PSQ
     Using radial grid of 1073 points,  4 beta functions with: 
                l(1) =   0
                l(2) =   0
                l(3) =   1
                l(4) =   1
     Q(r) pseudized with 0 coefficients 


     PseudoPot. # 2 for Cl read from file:
     /global/cscratch1/sd/almno10/.data/PSEUDOPOTENTIALS/Cl.pbe-n-kjpaw_psl.1.0.0.UPF
     MD5 check sum: dca63699d6b897c5771335df08a09219
     Pseudo is Projector augmented-wave + core cor, Zval =  7.0
     Generated using "atomic" code by A. Dal Corso  v.5.3.0 svn rev. 11974
     Shape of augmentation charge: PSQ
     Using radial grid of 1157 points,  6 beta functions with: 
                l(1) =   0
                l(2) =   0
                l(3) =   1
                l(4) =   1
                l(5) =   2
                l(6) =   2
     Q(r) pseudized with 0 coefficients 


     PseudoPot. # 3 for  H read from file:
     /global/cscratch1/sd/almno10/.data/PSEUDOPOTENTIALS/H.pbe-kjpaw_psl.1.0.0.UPF
     MD5 check sum: bc0feb48a24907a0b97fa6ee2d589a29
     Pseudo is Projector augmented-wave, Zval =  1.0
     Generated using "atomic" code by A. Dal Corso  v.5.3.0 svn rev. 11974
     Shape of augmentation charge: PSQ
     Using radial grid of  929 points,  2 beta functions with: 
                l(1) =   0
                l(2) =   0
     Q(r) pseudized with 0 coefficients 


     atomic species   valence    mass     pseudopotential
        C              4.00    12.01100      C( 1.00)
        Cl             7.00    35.45270     Cl( 1.00)
        H              1.00     1.00790      H( 1.00)

     No symmetry found


                                    s                        frac. trans.

      isym =  1     identity                                     

 cryst.   s( 1) = (     1          0          0      )
                  (     0          1          0      )
                  (     0          0          1      )

 cart.    s( 1) = (  1.0000000  0.0000000 -0.0000000 )
                  (  0.0000000  1.0000000  0.0000000 )
                  (  0.0000000  0.0000000  1.0000000 )


   Cartesian axes

     site n.     atom                  positions (alat units)
         1           Cl  tau(   1) = (  16.5837717   0.7685398   1.5429842  )
         2           C   tau(   2) = (  15.0954557   1.7872580   1.6956029  )
         3           C   tau(   3) = (  15.1622406   3.0289850   2.3259876  )
         4           H   tau(   4) = (  16.0479901   3.3305888   2.8821482  )
         5           C   tau(   5) = (  14.0010446   3.7957132   2.3959083  )
         6           H   tau(   6) = (  14.0214642   4.7668365   2.8871493  )
         7           H   tau(   7) = (   6.5587800   2.1717226   0.5302132  )
         8           C   tau(   8) = (   6.5447081   1.3331668   1.2230829  )
         9           H   tau(   9) = (   4.6430920   0.5912168   0.5249121  )
        10           C   tau(  10) = (   5.4897010   0.4196631   1.1875955  )
        11           C   tau(  11) = (   5.5121473  -0.6458329   2.0871707  )
        12           Cl  tau(  12) = (   4.1728836  -1.6937764   2.2570554  )
        13           H   tau(  13) = (  13.8995252   0.3869529   0.5743787  )
        14           C   tau(  14) = (  13.9293282   1.3585029   1.0637672  )
        15           H   tau(  15) = (  11.8877551   1.8371552   0.5662945  )
        16           C   tau(  16) = (  12.7966321   2.1704959   1.0641028  )
        17           C   tau(  17) = (  12.8654879   3.4051957   1.6882647  )
        18           Cl  tau(  18) = (  11.5719807   4.5706247   1.5800751  )
        19           H   tau(  19) = (   6.5693212  -1.6741955   3.6518774  )
        20           C   tau(  20) = (   6.5978888  -0.8516319   2.9389971  )
        21           H   tau(  21) = (   8.4793442  -0.0889140   3.6586775  )
        22           C   tau(  22) = (   7.6377269   0.0741913   2.9892144  )
        23           C   tau(  23) = (   7.6342856   1.1164071   2.0644548  )
        24           Cl  tau(  24) = (   8.9060627   2.3670642   1.9280999  )

   Crystallographic axes

     site n.     atom                  positions (cryst. coord.)
         1           Cl  tau(   1) = (  1.1673045  0.1317798  0.4143406  )
         2           C   tau(   2) = (  1.0708254  0.3064571  0.4553236  )
         3           C   tau(   3) = (  1.0932828  0.5193733  0.6246020  )
         4           H   tau(   4) = (  1.1691065  0.5710886  0.7739489  )
         5           C   tau(   5) = (  1.0166107  0.6508425  0.6433780  )
         6           H   tau(   6) = (  1.0319689  0.8173588  0.7752919  )
         7           H   tau(   7) = (  0.4593851  0.3723804  0.1423792  )
         8           C   tau(   8) = (  0.4781427  0.2285951  0.3284369  )
         9           H   tau(   9) = (  0.3294628  0.1013746  0.1409557  )
        10           C   tau(  10) = (  0.4056654  0.0719587  0.3189074  )
        11           C   tau(  11) = (  0.4327771 -0.1107395  0.5604721  )
        12           Cl  tau(  12) = (  0.3468863 -0.2904281  0.6060915  )
        13           H   tau(  13) = (  0.9579146  0.0663500  0.1542390  )
        14           C   tau(  14) = (  0.9738557  0.2329394  0.2856555  )
        15           H   tau(  15) = (  0.8214043  0.3150129  0.1520682  )
        16           C   tau(  16) = (  0.8971347  0.3721701  0.2857456  )
        17           C   tau(  17) = (  0.9195553  0.5838813  0.4533530  )
        18           Cl  tau(  18) = (  0.8288534  0.7837148  0.4243007  )
        19           H   tau(  19) = (  0.5489046 -0.2870706  0.9806458  )
        20           C   tau(  20) = (  0.5305597 -0.1460274  0.7892147  )
        21           H   tau(  21) = (  0.6784858 -0.0152459  0.9824719  )
        22           C   tau(  22) = (  0.6024285  0.0127214  0.8026996  )
        23           C   tau(  23) = (  0.5758877  0.1914278  0.5543721  )
        24           Cl  tau(  24) = (  0.6581608  0.4058752  0.5177565  )

     number of k points=    16
                       cart. coord. in units 2pi/alat
        k(    1) = (   0.0169354   0.0214335   0.0406785), wk =   0.1250000
        k(    2) = (   0.0169354   0.0214335   0.1078115), wk =   0.1250000
        k(    3) = (   0.0169354   0.0214335  -0.0935875), wk =   0.1250000
        k(    4) = (   0.0169354   0.0214335  -0.0264545), wk =   0.1250000
        k(    5) = (   0.0169354   0.0643004   0.0406785), wk =   0.1250000
        k(    6) = (   0.0169354   0.0643004   0.1078115), wk =   0.1250000
        k(    7) = (   0.0169354   0.0643004  -0.0935875), wk =   0.1250000
        k(    8) = (   0.0169354   0.0643004  -0.0264545), wk =   0.1250000
        k(    9) = (  -0.0169354   0.0214335  -0.0406785), wk =   0.1250000
        k(   10) = (  -0.0169354   0.0214335  -0.1078115), wk =   0.1250000
        k(   11) = (  -0.0169354   0.0214335   0.0935875), wk =   0.1250000
        k(   12) = (  -0.0169354   0.0214335   0.0264545), wk =   0.1250000
        k(   13) = (  -0.0169354   0.0643004  -0.0406785), wk =   0.1250000
        k(   14) = (  -0.0169354   0.0643004  -0.1078115), wk =   0.1250000
        k(   15) = (  -0.0169354   0.0643004   0.0935875), wk =   0.1250000
        k(   16) = (  -0.0169354   0.0643004   0.0264545), wk =   0.1250000

                       cryst. coord.
        k(    1) = (   0.2500000   0.1250000   0.1250000), wk =   0.1250000
        k(    2) = (   0.2500000   0.1250000   0.3750000), wk =   0.1250000
        k(    3) = (   0.2500000   0.1250000  -0.3750000), wk =   0.1250000
        k(    4) = (   0.2500000   0.1250000  -0.1250000), wk =   0.1250000
        k(    5) = (   0.2500000   0.3750000   0.1250000), wk =   0.1250000
        k(    6) = (   0.2500000   0.3750000   0.3750000), wk =   0.1250000
        k(    7) = (   0.2500000   0.3750000  -0.3750000), wk =   0.1250000
        k(    8) = (   0.2500000   0.3750000  -0.1250000), wk =   0.1250000
        k(    9) = (  -0.2500000   0.1250000  -0.1250000), wk =   0.1250000
        k(   10) = (  -0.2500000   0.1250000  -0.3750000), wk =   0.1250000
        k(   11) = (  -0.2500000   0.1250000   0.3750000), wk =   0.1250000
        k(   12) = (  -0.2500000   0.1250000   0.1250000), wk =   0.1250000
        k(   13) = (  -0.2500000   0.3750000  -0.1250000), wk =   0.1250000
        k(   14) = (  -0.2500000   0.3750000  -0.3750000), wk =   0.1250000
        k(   15) = (  -0.2500000   0.3750000   0.3750000), wk =   0.1250000
        k(   16) = (  -0.2500000   0.3750000   0.1250000), wk =   0.1250000

     Dense  grid:  1155489 G-vectors     FFT dimensions: ( 288, 120,  80)

     Smooth grid:   292295 G-vectors     FFT dimensions: ( 180,  72,  50)

     Estimated max dynamical RAM per process >     147.21MB

     Estimated total allocated dynamical RAM >    4710.62MB

     Initial potential from superposition of free atoms

     starting charge   83.99939, renormalised to   84.00000
     Starting wfc are   72 randomized atomic wfcs
     Checking if some PAW data can be deallocated... 
       node    0, deallocated PAW data for type:  1
       node    0, deallocated PAW data for type:  3
       node    1, deallocated PAW data for type:  1
       node    1, deallocated PAW data for type:  3
       node    2, deallocated PAW data for type:  2
       node    2, deallocated PAW data for type:  3
       node    3, deallocated PAW data for type:  2
       node    3, deallocated PAW data for type:  3
       node    4, deallocated PAW data for type:  2
       node    4, deallocated PAW data for type:  3
       node    5, deallocated PAW data for type:  2
       node    5, deallocated PAW data for type:  3
       node    6, deallocated PAW data for type:  1
       node    6, deallocated PAW data for type:  2
       node    7, deallocated PAW data for type:  1
       node    7, deallocated PAW data for type:  2
       node    8, deallocated PAW data for type:  2
       node    8, deallocated PAW data for type:  3
       node    9, deallocated PAW data for type:  2
       node    9, deallocated PAW data for type:  3
       node   10, deallocated PAW data for type:  1
       node   10, deallocated PAW data for type:  2
       node   11, deallocated PAW data for type:  1
       node   11, deallocated PAW data for type:  2
       node   12, deallocated PAW data for type:  1
       node   12, deallocated PAW data for type:  2
       node   13, deallocated PAW data for type:  1
       node   13, deallocated PAW data for type:  2
       node   14, deallocated PAW data for type:  2
       node   14, deallocated PAW data for type:  3
       node   15, deallocated PAW data for type:  2
       node   15, deallocated PAW data for type:  3
       node   16, deallocated PAW data for type:  1
       node   16, deallocated PAW data for type:  2
       node   17, deallocated PAW data for type:  2
       node   17, deallocated PAW data for type:  3
       node   18, deallocated PAW data for type:  2
       node   18, deallocated PAW data for type:  3
       node   19, deallocated PAW data for type:  1
       node   19, deallocated PAW data for type:  3
       node   20, deallocated PAW data for type:  1
       node   20, deallocated PAW data for type:  2
       node   21, deallocated PAW data for type:  2
       node   21, deallocated PAW data for type:  3
       node   22, deallocated PAW data for type:  1
       node   22, deallocated PAW data for type:  2
       node   23, deallocated PAW data for type:  2
       node   23, deallocated PAW data for type:  3
       node   24, deallocated PAW data for type:  2
       node   24, deallocated PAW data for type:  3
       node   25, deallocated PAW data for type:  1
       node   25, deallocated PAW data for type:  3
       node   26, deallocated PAW data for type:  1
       node   26, deallocated PAW data for type:  2
       node   27, deallocated PAW data for type:  2
       node   27, deallocated PAW data for type:  3
       node   28, deallocated PAW data for type:  1
       node   28, deallocated PAW data for type:  2
       node   29, deallocated PAW data for type:  2
       node   29, deallocated PAW data for type:  3
       node   30, deallocated PAW data for type:  2
       node   30, deallocated PAW data for type:  3
       node   31, deallocated PAW data for type:  1
       node   31, deallocated PAW data for type:  3

     total cpu time spent up to now is        5.3 secs

     per-process dynamical memory:    20.7 Mb

     Self-consistent Calculation

     iteration #  1     ecut=   100.00 Ry     beta= 0.70
     Davidson diagonalization with overlap
     ethr =  1.00E-04,  avg # of iterations =  5.0

     total cpu time spent up to now is       12.0 secs

     total energy              =    -547.12339318 Ry
     Harris-Foulkes estimate   =    -548.99261882 Ry
     estimated scf accuracy    <       2.73454570 Ry

     iteration #  2     ecut=   100.00 Ry     beta= 0.70
     Davidson diagonalization with overlap
     ethr =  3.26E-03,  avg # of iterations =  3.0

     total cpu time spent up to now is       16.9 secs

     total energy              =    -547.52106185 Ry
     Harris-Foulkes estimate   =    -548.61753463 Ry
     estimated scf accuracy    <       1.98506232 Ry

     iteration #  3     ecut=   100.00 Ry     beta= 0.70
     Davidson diagonalization with overlap
     ethr =  2.36E-03,  avg # of iterations =  2.9

     total cpu time spent up to now is       21.2 secs

     total energy              =    -548.01441575 Ry
     Harris-Foulkes estimate   =    -548.05537373 Ry
     estimated scf accuracy    <       0.08276122 Ry

     iteration #  4     ecut=   100.00 Ry     beta= 0.70
     Davidson diagonalization with overlap
     ethr =  9.85E-05,  avg # of iterations =  3.9

     total cpu time spent up to now is       26.0 secs

     total energy              =    -548.04134560 Ry
     Harris-Foulkes estimate   =    -548.05187700 Ry
     estimated scf accuracy    <       0.02080132 Ry

     iteration #  5     ecut=   100.00 Ry     beta= 0.70
     Davidson diagonalization with overlap
     ethr =  2.48E-05,  avg # of iterations =  3.0

     total cpu time spent up to now is       30.4 secs

     total energy              =    -548.04546489 Ry
     Harris-Foulkes estimate   =    -548.04625654 Ry
     estimated scf accuracy    <       0.00147442 Ry

     iteration #  6     ecut=   100.00 Ry     beta= 0.70
     Davidson diagonalization with overlap
     ethr =  1.76E-06,  avg # of iterations =  4.0

     total cpu time spent up to now is       35.2 secs

     total energy              =    -548.04572314 Ry
     Harris-Foulkes estimate   =    -548.04628771 Ry
     estimated scf accuracy    <       0.00140428 Ry

     iteration #  7     ecut=   100.00 Ry     beta= 0.70
     Davidson diagonalization with overlap
     ethr =  1.67E-06,  avg # of iterations =  4.0

     total cpu time spent up to now is       39.5 secs

     total energy              =    -548.04600286 Ry
     Harris-Foulkes estimate   =    -548.04604845 Ry
     estimated scf accuracy    <       0.00011822 Ry

     iteration #  8     ecut=   100.00 Ry     beta= 0.70
     Davidson diagonalization with overlap
     ethr =  1.41E-07,  avg # of iterations =  4.0

     total cpu time spent up to now is       44.1 secs

     total energy              =    -548.04602752 Ry
     Harris-Foulkes estimate   =    -548.04603646 Ry
     estimated scf accuracy    <       0.00002000 Ry

     iteration #  9     ecut=   100.00 Ry     beta= 0.70
     Davidson diagonalization with overlap
     ethr =  2.38E-08,  avg # of iterations =  4.0

     total cpu time spent up to now is       48.7 secs

     total energy              =    -548.04603218 Ry
     Harris-Foulkes estimate   =    -548.04603342 Ry
     estimated scf accuracy    <       0.00000280 Ry

     iteration # 10     ecut=   100.00 Ry     beta= 0.70
     Davidson diagonalization with overlap
     ethr =  3.33E-09,  avg # of iterations =  4.0

     total cpu time spent up to now is       53.3 secs

     total energy              =    -548.04603280 Ry
     Harris-Foulkes estimate   =    -548.04603295 Ry
     estimated scf accuracy    <       0.00000034 Ry

     iteration # 11     ecut=   100.00 Ry     beta= 0.70
     Davidson diagonalization with overlap
     ethr =  4.06E-10,  avg # of iterations =  4.0

     total cpu time spent up to now is       57.9 secs

     End of self-consistent calculation

          k = 0.0169 0.0214 0.0407 ( 36525 PWs)   bands (ev):

   -16.0807 -16.0537 -15.2871 -15.2077 -13.9406 -13.8498 -12.4167 -12.2580
   -11.3569 -11.1880  -9.0259  -8.9091  -8.2747  -8.1375  -6.3879  -6.2044
    -5.3501  -5.2452  -5.0079  -4.7637  -4.2516  -4.1117  -4.0733  -3.8549
    -3.2489  -3.0776  -2.7273  -2.6353  -2.4415  -2.2669  -2.1456  -2.1102
    -1.2017  -1.1476  -1.0516  -0.9476  -0.8821  -0.8088  -0.0658  -0.0243
     0.5399   0.7465

     occupation numbers 
     1.0000   1.0000   1.0000   1.0000   1.0000   1.0000   1.0000   1.0000
     1.0000   1.0000   1.0000   1.0000   1.0000   1.0000   1.0000   1.0000
     1.0000   1.0000   1.0000   1.0000   1.0000   1.0000   1.0000   1.0000
     1.0000   1.0000   1.0000   1.0000   1.0000   1.0000   1.0000   1.0000
     1.0000   1.0000   1.0000   1.0000   1.0000   1.0000   1.0000   1.0000
     1.0000   1.0000

          k = 0.0169 0.0214 0.1078 ( 36561 PWs)   bands (ev):

   -15.9863 -15.9690 -15.2260 -15.1605 -13.9275 -13.8346 -12.3940 -12.2907
   -11.3612 -11.1877  -8.9889  -8.8783  -8.2429  -8.1311  -6.4059  -6.2667
    -5.3483  -5.2516  -5.0281  -4.9080  -4.2858  -4.2170  -4.1013  -4.0380
    -3.7792  -3.6680  -2.7893  -2.6724  -2.5783  -2.4455  -2.3563  -2.2897
    -1.3393  -1.1971  -1.1206  -0.9716  -0.9056  -0.7957  -0.2888  -0.0219
     0.5800   0.8641

     occupation numbers 
     1.0000   1.0000   1.0000   1.0000   1.0000   1.0000   1.0000   1.0000
     1.0000   1.0000   1.0000   1.0000   1.0000   1.0000   1.0000   1.0000
     1.0000   1.0000   1.0000   1.0000   1.0000   1.0000   1.0000   1.0000
     1.0000   1.0000   1.0000   1.0000   1.0000   1.0000   1.0000   1.0000
     1.0000   1.0000   1.0000   1.0000   1.0000   1.0000   1.0000   1.0000
     1.0000   1.0000

          k = 0.0169 0.0214-0.0936 ( 36547 PWs)   bands (ev):

   -15.9926 -15.9589 -15.2348 -15.1553 -13.9217 -13.8466 -12.3878 -12.2977
   -11.3633 -11.1739  -9.0138  -8.8532  -8.2667  -8.0733  -6.4292  -6.2801
    -5.3524  -5.2559  -5.0824  -4.8963  -4.2975  -4.1931  -4.0941  -4.0345
    -3.7509  -3.7104  -2.7481  -2.6512  -2.6134  -2.4633  -2.4348  -2.2568
    -1.3000  -1.2284  -1.0842  -0.9899  -0.8509  -0.7696  -0.3240   0.0220
     0.5889   0.8479

     occupation numbers 
     1.0000   1.0000   1.0000   1.0000   1.0000   1.0000   1.0000   1.0000
     1.0000   1.0000   1.0000   1.0000   1.0000   1.0000   1.0000   1.0000
     1.0000   1.0000   1.0000   1.0000   1.0000   1.0000   1.0000   1.0000
     1.0000   1.0000   1.0000   1.0000   1.0000   1.0000   1.0000   1.0000
     1.0000   1.0000   1.0000   1.0000   1.0000   1.0000   1.0000   1.0000
     1.0000   1.0000

          k = 0.0169 0.0214-0.0265 ( 36551 PWs)   bands (ev):

   -16.0836 -16.0476 -15.2960 -15.2020 -13.9349 -13.8610 -12.4109 -12.2662
   -11.3591 -11.1733  -9.0534  -8.8838  -8.3034  -8.0691  -6.4273  -6.1958
    -5.3604  -5.2530  -5.0828  -4.7267  -4.3241  -4.0412  -4.0044  -3.8805
    -3.2530  -3.1189  -2.7824  -2.5581  -2.4223  -2.3338  -2.1859  -2.0732
    -1.2105  -1.1531  -0.9985  -0.9227  -0.8765  -0.7734  -0.0619  -0.0236
     0.5554   0.7330

     occupation numbers 
     1.0000   1.0000   1.0000   1.0000   1.0000   1.0000   1.0000   1.0000
     1.0000   1.0000   1.0000   1.0000   1.0000   1.0000   1.0000   1.0000
     1.0000   1.0000   1.0000   1.0000   1.0000   1.0000   1.0000   1.0000
     1.0000   1.0000   1.0000   1.0000   1.0000   1.0000   1.0000   1.0000
     1.0000   1.0000   1.0000   1.0000   1.0000   1.0000   1.0000   1.0000
     1.0000   1.0000

          k = 0.0169 0.0643 0.0407 ( 36518 PWs)   bands (ev):

   -16.0524 -16.0218 -15.2943 -15.2235 -13.9760 -13.8901 -12.4645 -12.2804
   -11.3672 -11.1711  -8.9253  -8.8566  -8.1713  -8.0621  -6.4147  -6.2492
    -5.3142  -5.2385  -5.0678  -4.9042  -4.3751  -4.2702  -4.0592  -3.9172
    -3.3058  -3.1651  -2.6457  -2.5607  -2.4237  -2.3114  -2.1339  -2.0358
    -1.0722  -1.0231  -0.9418  -0.9084  -0.8138  -0.7667  -0.0671   0.0307
     0.5931   0.7489

     occupation numbers 
     1.0000   1.0000   1.0000   1.0000   1.0000   1.0000   1.0000   1.0000
     1.0000   1.0000   1.0000   1.0000   1.0000   1.0000   1.0000   1.0000
     1.0000   1.0000   1.0000   1.0000   1.0000   1.0000   1.0000   1.0000
     1.0000   1.0000   1.0000   1.0000   1.0000   1.0000   1.0000   1.0000
     1.0000   1.0000   1.0000   1.0000   1.0000   1.0000   1.0000   1.0000
     1.0000   1.0000

          k = 0.0169 0.0643 0.1078 ( 36558 PWs)   bands (ev):

   -15.9636 -15.9546 -15.2267 -15.1668 -13.9456 -13.8557 -12.4243 -12.2912
   -11.3785 -11.2039  -8.9368  -8.8857  -8.2053  -8.1500  -6.3957  -6.2497
    -5.3222  -5.2586  -4.9606  -4.8114  -4.2830  -4.2039  -4.1766  -3.9614
    -3.8952  -3.8339  -2.7621  -2.6566  -2.5949  -2.4947  -2.4000  -2.2413
    -1.2920  -1.1115  -1.0761  -0.9913  -0.9222  -0.8297  -0.1489   0.1455
     0.6047   0.7937

     occupation numbers 
     1.0000   1.0000   1.0000   1.0000   1.0000   1.0000   1.0000   1.0000
     1.0000   1.0000   1.0000   1.0000   1.0000   1.0000   1.0000   1.0000
     1.0000   1.0000   1.0000   1.0000   1.0000   1.0000   1.0000   1.0000
     1.0000   1.0000   1.0000   1.0000   1.0000   1.0000   1.0000   1.0000
     1.0000   1.0000   1.0000   1.0000   1.0000   1.0000   1.0000   1.0000
     1.0000   1.0000

          k = 0.0169 0.0643-0.0936 ( 36547 PWs)   bands (ev):

   -15.9649 -15.9500 -15.2312 -15.1655 -13.9435 -13.8640 -12.4180 -12.2978
   -11.3835 -11.1888  -8.9596  -8.8567  -8.2232  -8.1076  -6.4244  -6.2701
    -5.3253  -5.2609  -4.8948  -4.8537  -4.3454  -4.1769  -4.1164  -4.0056
    -3.9123  -3.8571  -2.7707  -2.7070  -2.5939  -2.4697  -2.3731  -2.2392
    -1.2880  -1.1403  -1.0204  -0.9622  -0.8813  -0.8357  -0.1848   0.1850
     0.6086   0.7852

     occupation numbers 
     1.0000   1.0000   1.0000   1.0000   1.0000   1.0000   1.0000   1.0000
     1.0000   1.0000   1.0000   1.0000   1.0000   1.0000   1.0000   1.0000
     1.0000   1.0000   1.0000   1.0000   1.0000   1.0000   1.0000   1.0000
     1.0000   1.0000   1.0000   1.0000   1.0000   1.0000   1.0000   1.0000
     1.0000   1.0000   1.0000   1.0000   1.0000   1.0000   1.0000   1.0000
     1.0000   1.0000

          k = 0.0169 0.0643-0.0265 ( 36489 PWs)   bands (ev):

   -16.0476 -16.0239 -15.2984 -15.2218 -13.9738 -13.8981 -12.4582 -12.2866
   -11.3736 -11.1566  -8.9478  -8.8267  -8.1943  -8.0059  -6.4550  -6.2744
    -5.3088  -5.2407  -5.0352  -4.9206  -4.4028  -4.2144  -4.0745  -3.9791
    -3.2938  -3.2017  -2.6258  -2.5155  -2.4375  -2.3528  -2.1344  -2.0305
    -1.1408  -0.9922  -0.9623  -0.8214  -0.7885  -0.7246  -0.0348   0.0002
     0.5969   0.7446

     occupation numbers 
     1.0000   1.0000   1.0000   1.0000   1.0000   1.0000   1.0000   1.0000
     1.0000   1.0000   1.0000   1.0000   1.0000   1.0000   1.0000   1.0000
     1.0000   1.0000   1.0000   1.0000   1.0000   1.0000   1.0000   1.0000
     1.0000   1.0000   1.0000   1.0000   1.0000   1.0000   1.0000   1.0000
     1.0000   1.0000   1.0000   1.0000   1.0000   1.0000   1.0000   1.0000
     1.0000   1.0000

          k =-0.0169 0.0214-0.0407 ( 36525 PWs)   bands (ev):

   -16.0752 -16.0568 -15.2898 -15.2071 -13.9396 -13.8567 -12.4109 -12.2643
   -11.3625 -11.1726  -9.0517  -8.8784  -8.2943  -8.0906  -6.3862  -6.2453
    -5.3594  -5.2424  -4.9664  -4.8504  -4.1994  -4.1413  -4.0031  -3.9489
    -3.2389  -3.1218  -2.6731  -2.6092  -2.4274  -2.3445  -2.1401  -2.1078
    -1.2252  -1.1134  -1.0058  -0.9760  -0.8648  -0.7606  -0.0614  -0.0240
     0.5407   0.7451

     occupation numbers 
     1.0000   1.0000   1.0000   1.0000   1.0000   1.0000   1.0000   1.0000
     1.0000   1.0000   1.0000   1.0000   1.0000   1.0000   1.0000   1.0000
     1.0000   1.0000   1.0000   1.0000   1.0000   1.0000   1.0000   1.0000
     1.0000   1.0000   1.0000   1.0000   1.0000   1.0000   1.0000   1.0000
     1.0000   1.0000   1.0000   1.0000   1.0000   1.0000   1.0000   1.0000
     1.0000   1.0000

          k =-0.0169 0.0214-0.1078 ( 36561 PWs)   bands (ev):

   -15.9902 -15.9616 -15.2317 -15.1582 -13.9245 -13.8437 -12.3879 -12.2978
   -11.3635 -11.1735  -9.0141  -8.8531  -8.2654  -8.0767  -6.4123  -6.2877
    -5.3561  -5.2491  -5.0572  -4.9601  -4.3038  -4.1916  -4.0672  -4.0102
    -3.7722  -3.6885  -2.8294  -2.6699  -2.5805  -2.4025  -2.3915  -2.2988
    -1.3382  -1.2253  -1.0789  -0.9794  -0.8418  -0.7690  -0.3282   0.0205
     0.5863   0.8514

     occupation numbers 
     1.0000   1.0000   1.0000   1.0000   1.0000   1.0000   1.0000   1.0000
     1.0000   1.0000   1.0000   1.0000   1.0000   1.0000   1.0000   1.0000
     1.0000   1.0000   1.0000   1.0000   1.0000   1.0000   1.0000   1.0000
     1.0000   1.0000   1.0000   1.0000   1.0000   1.0000   1.0000   1.0000
     1.0000   1.0000   1.0000   1.0000   1.0000   1.0000   1.0000   1.0000
     1.0000   1.0000

          k =-0.0169 0.0214 0.0936 ( 36547 PWs)   bands (ev):

   -15.9929 -15.9618 -15.2334 -15.1538 -13.9227 -13.8396 -12.3939 -12.2917
   -11.3573 -11.1900  -8.9883  -8.8821  -8.2531  -8.1166  -6.4162  -6.2517
    -5.3500  -5.2482  -5.0976  -4.8344  -4.3208  -4.2221  -4.0944  -4.0339
    -3.7706  -3.6432  -2.7557  -2.6708  -2.6277  -2.4258  -2.3828  -2.3051
    -1.2796  -1.2402  -1.0929  -1.0004  -0.9035  -0.7992  -0.2817  -0.0194
     0.5862   0.8544

     occupation numbers 
     1.0000   1.0000   1.0000   1.0000   1.0000   1.0000   1.0000   1.0000
     1.0000   1.0000   1.0000   1.0000   1.0000   1.0000   1.0000   1.0000
     1.0000   1.0000   1.0000   1.0000   1.0000   1.0000   1.0000   1.0000
     1.0000   1.0000   1.0000   1.0000   1.0000   1.0000   1.0000   1.0000
     1.0000   1.0000   1.0000   1.0000   1.0000   1.0000   1.0000   1.0000
     1.0000   1.0000

          k =-0.0169 0.0214 0.0265 ( 36551 PWs)   bands (ev):

   -16.0868 -16.0468 -15.2938 -15.2017 -13.9398 -13.8505 -12.4172 -12.2584
   -11.3567 -11.1870  -9.0312  -8.9077  -8.2942  -8.1074  -6.4231  -6.1709
    -5.3561  -5.2589  -5.0686  -4.6614  -4.3107  -4.0809  -4.0586  -3.8353
    -3.2568  -3.0845  -2.7644  -2.6291  -2.4414  -2.2710  -2.1867  -2.0617
    -1.2224  -1.1351  -1.0400  -0.9437  -0.8837  -0.8057  -0.0661  -0.0235
     0.5497   0.7369

     occupation numbers 
     1.0000   1.0000   1.0000   1.0000   1.0000   1.0000   1.0000   1.0000
     1.0000   1.0000   1.0000   1.0000   1.0000   1.0000   1.0000   1.0000
     1.0000   1.0000   1.0000   1.0000   1.0000   1.0000   1.0000   1.0000
     1.0000   1.0000   1.0000   1.0000   1.0000   1.0000   1.0000   1.0000
     1.0000   1.0000   1.0000   1.0000   1.0000   1.0000   1.0000   1.0000
     1.0000   1.0000

          k =-0.0169 0.0643-0.0407 ( 36518 PWs)   bands (ev):

   -16.0453 -16.0263 -15.2976 -15.2225 -13.9752 -13.8964 -12.4588 -12.2873
   -11.3728 -11.1553  -8.9489  -8.8273  -8.1948  -8.0105  -6.4214  -6.2838
    -5.3125  -5.2441  -5.0498  -4.9586  -4.3812  -4.2459  -4.0461  -3.9342
    -3.2850  -3.2075  -2.6420  -2.5542  -2.4559  -2.3310  -2.1215  -2.0219
    -1.1189  -0.9735  -0.9579  -0.8521  -0.7784  -0.7449  -0.0367   0.0013
     0.5895   0.7521

     occupation numbers 
     1.0000   1.0000   1.0000   1.0000   1.0000   1.0000   1.0000   1.0000
     1.0000   1.0000   1.0000   1.0000   1.0000   1.0000   1.0000   1.0000
     1.0000   1.0000   1.0000   1.0000   1.0000   1.0000   1.0000   1.0000
     1.0000   1.0000   1.0000   1.0000   1.0000   1.0000   1.0000   1.0000
     1.0000   1.0000   1.0000   1.0000   1.0000   1.0000   1.0000   1.0000
     1.0000   1.0000

          k =-0.0169 0.0643-0.1078 ( 36558 PWs)   bands (ev):

   -15.9665 -15.9482 -15.2325 -15.1644 -13.9415 -13.8659 -12.4181 -12.2985
   -11.3812 -11.1896  -8.9605  -8.8587  -8.2258  -8.1054  -6.3985  -6.2803
    -5.3261  -5.2483  -4.9469  -4.8695  -4.3495  -4.1811  -4.0590  -4.0176
    -3.9184  -3.8315  -2.8030  -2.6822  -2.5496  -2.4725  -2.3681  -2.2969
    -1.2976  -1.1503  -1.0204  -0.9543  -0.8865  -0.8115  -0.1860   0.1870
     0.6096   0.7810

     occupation numbers 
     1.0000   1.0000   1.0000   1.0000   1.0000   1.0000   1.0000   1.0000
     1.0000   1.0000   1.0000   1.0000   1.0000   1.0000   1.0000   1.0000
     1.0000   1.0000   1.0000   1.0000   1.0000   1.0000   1.0000   1.0000
     1.0000   1.0000   1.0000   1.0000   1.0000   1.0000   1.0000   1.0000
     1.0000   1.0000   1.0000   1.0000   1.0000   1.0000   1.0000   1.0000
     1.0000   1.0000

          k =-0.0169 0.0643 0.0936 ( 36547 PWs)   bands (ev):

   -15.9682 -15.9497 -15.2299 -15.1639 -13.9449 -13.8564 -12.4240 -12.2917
   -11.3774 -11.2047  -8.9354  -8.8873  -8.2199  -8.1335  -6.4173  -6.2274
    -5.3268  -5.2649  -4.9833  -4.7550  -4.3574  -4.2164  -4.1325  -3.9615
    -3.8735  -3.8156  -2.7595  -2.6515  -2.6420  -2.5531  -2.3941  -2.1721
    -1.2553  -1.1530  -1.0746  -0.9725  -0.9031  -0.8670  -0.1495   0.1495
     0.6105   0.7869

     occupation numbers 
     1.0000   1.0000   1.0000   1.0000   1.0000   1.0000   1.0000   1.0000
     1.0000   1.0000   1.0000   1.0000   1.0000   1.0000   1.0000   1.0000
     1.0000   1.0000   1.0000   1.0000   1.0000   1.0000   1.0000   1.0000
     1.0000   1.0000   1.0000   1.0000   1.0000   1.0000   1.0000   1.0000
     1.0000   1.0000   1.0000   1.0000   1.0000   1.0000   1.0000   1.0000
     1.0000   1.0000

          k =-0.0169 0.0643 0.0265 ( 36489 PWs)   bands (ev):

   -16.0531 -16.0210 -15.2955 -15.2221 -13.9782 -13.8885 -12.4645 -12.2781
   -11.3712 -11.1705  -8.9285  -8.8495  -8.1718  -8.0576  -6.4457  -6.2503
    -5.3130  -5.2425  -5.0317  -4.8612  -4.3516  -4.2309  -4.1431  -3.9818
    -3.3135  -3.1602  -2.5939  -2.5233  -2.4339  -2.3356  -2.1271  -2.0521
    -1.1239  -1.0321  -0.9498  -0.8694  -0.8117  -0.7418  -0.0684   0.0304
     0.5936   0.7463

     occupation numbers 
     1.0000   1.0000   1.0000   1.0000   1.0000   1.0000   1.0000   1.0000
     1.0000   1.0000   1.0000   1.0000   1.0000   1.0000   1.0000   1.0000
     1.0000   1.0000   1.0000   1.0000   1.0000   1.0000   1.0000   1.0000
     1.0000   1.0000   1.0000   1.0000   1.0000   1.0000   1.0000   1.0000
     1.0000   1.0000   1.0000   1.0000   1.0000   1.0000   1.0000   1.0000
     1.0000   1.0000

     highest occupied level (ev):     0.8641

!    total energy              =    -548.04603288 Ry
     Harris-Foulkes estimate   =    -548.04603291 Ry
     estimated scf accuracy    <       0.00000004 Ry

     total all-electron energy =     -4615.889521 Ry

     The total energy is the sum of the following terms:

     one-electron contribution =    -152.61098210 Ry
     hartree contribution      =     107.67067975 Ry
     xc contribution           =    -104.20805883 Ry
     ewald contribution        =    -143.11543134 Ry
     one-center paw contrib.   =    -255.78224036 Ry
      -> PAW hartree energy AE =      18.97859287 Ry
      -> PAW hartree energy PS =     -18.87426841 Ry
      -> PAW xc energy AE      =     -55.62091740 Ry
      -> PAW xc energy PS      =      10.07561476 Ry
      -> total E_H with PAW    =     107.77500420 Ry
      -> total E_XC with PAW   =    -149.75336147 Ry

     convergence has been achieved in  11 iterations

     Forces acting on atoms (cartesian axes, Ry/au):

     atom    1 type  2   force =    -0.04015584    0.02573740    0.01075039
     atom    2 type  1   force =     0.03062264   -0.01108715   -0.02195645
     atom    3 type  1   force =    -0.00569129   -0.02123063    0.02590753
     atom    4 type  3   force =     0.00268318    0.00308763   -0.00562856
     atom    5 type  1   force =     0.01289593    0.01487864   -0.01832089
     atom    6 type  3   force =     0.00138514   -0.00137518    0.00358712
     atom    7 type  3   force =    -0.00277052    0.00097741    0.00024792
     atom    8 type  1   force =     0.00010489   -0.01570752   -0.01614233
     atom    9 type  3   force =     0.00009255   -0.00245057    0.00011223
     atom   10 type  1   force =    -0.00119901    0.01244203    0.01545016
     atom   11 type  1   force =     0.02453052    0.01101318    0.00144411
     atom   12 type  2   force =    -0.02578518   -0.02328845   -0.01132341
     atom   13 type  3   force =    -0.00083198    0.00109457   -0.00157178
     atom   14 type  1   force =     0.00790254   -0.00970302    0.00488479
     atom   15 type  3   force =     0.00163426    0.00359425   -0.00174282
     atom   16 type  1   force =    -0.00369068   -0.00571043   -0.00571703
     atom   17 type  1   force =     0.00427914    0.01281299    0.01132277
     atom   18 type  2   force =    -0.00816133   -0.01023540    0.00590329
     atom   19 type  3   force =     0.00359720   -0.00056476   -0.00145580
     atom   20 type  1   force =    -0.00756268    0.01068099    0.01335695
     atom   21 type  3   force =    -0.00166549    0.00246546   -0.00047944
     atom   22 type  1   force =     0.02334885   -0.00457004   -0.02421180
     atom   23 type  1   force =    -0.00535710    0.03983678   -0.00122441
     atom   24 type  2   force =    -0.01020572   -0.03269818    0.01680746
     The non-local contrib.  to forces
     atom    1 type  2   force =    -0.32671386    0.22619296    0.03870910
     atom    2 type  1   force =     0.43092534   -0.28065838   -0.06519375
     atom    3 type  1   force =    -0.04257876   -0.07719555    0.00565644
     atom    4 type  3   force =    -0.06353388   -0.02175387   -0.04076054
     atom    5 type  1   force =    -0.00989389   -0.02524687   -0.06400564
     atom    6 type  3   force =    -0.00192787   -0.07012512   -0.03549229
     atom    7 type  3   force =    -0.00083355   -0.06059217    0.05041213
     atom    8 type  1   force =     0.02724827   -0.06040285    0.01771059
     atom    9 type  3   force =     0.06094304   -0.01270768    0.04820977
     atom   10 type  1   force =     0.02711014   -0.02716415    0.06909848
     atom   11 type  1   force =    -0.35902691   -0.31685913    0.01727311
     atom   12 type  2   force =     0.30804757    0.23622204   -0.05444626
     atom   13 type  3   force =     0.00249386    0.07014968    0.03534941
     atom   14 type  1   force =     0.03520840    0.03289087    0.04857782
     atom   15 type  3   force =     0.06585277    0.02408895    0.03614290
     atom   16 type  1   force =     0.04713452    0.04473849    0.03953464
     atom   17 type  1   force =    -0.38882255    0.32782389    0.00440368
     atom   18 type  2   force =     0.28371977   -0.27517539    0.02690398
     atom   19 type  3   force =     0.00175927    0.05930132   -0.05174297
     atom   20 type  1   force =    -0.02380316    0.06090598   -0.03596544
     atom   21 type  3   force =    -0.06064930    0.01233925   -0.04799410
     atom   22 type  1   force =     0.01165893    0.03250417   -0.09449225
     atom   23 type  1   force =     0.35083474    0.37904627    0.00745520
     atom   24 type  2   force =    -0.26769274   -0.29098022    0.04611193
     The ionic contribution  to forces
     atom    1 type  2   force =     5.30472078   -3.14764588    0.20804252
     atom    2 type  1   force =     3.00444427   -1.80747146    0.73112090
     atom    3 type  1   force =     4.87801739    2.24848123    2.27798373
     atom    4 type  3   force =     2.08343464    0.78672663    1.31825211
     atom    5 type  1   force =     1.26823483    3.83763193    2.86721899
     atom    6 type  3   force =     0.35104965    1.99909056    1.23153506
     atom    7 type  3   force =    -0.42204747    1.83665014   -1.53938852
     atom    8 type  1   force =    -1.69894036    3.98625822   -2.67402675
     atom    9 type  3   force =    -2.07205985    0.57820567   -1.52287952
     atom   10 type  1   force =    -4.55597632    1.38239348   -3.43647063
     atom   11 type  1   force =    -2.48767795   -1.76472884   -0.88097897
     atom   12 type  2   force =    -7.15868995   -5.02862447   -0.90370594
     atom   13 type  3   force =    -0.12926867   -1.98939407   -1.13344320
     atom   14 type  1   force =    -0.52190230   -4.11656479   -1.98346172
     atom   15 type  3   force =    -1.88528084   -0.87529170   -1.02834450
     atom   16 type  1   force =    -3.89868674   -2.13992577   -2.17595488
     atom   17 type  1   force =    -2.10843859    1.44700647   -0.13385084
     atom   18 type  2   force =    -4.90052926    4.36437638   -0.39827250
     atom   19 type  3   force =     0.15979075   -1.78918076    1.45321321
     atom   20 type  1   force =     1.06042481   -3.93255597    2.31795106
     atom   21 type  3   force =     1.95293239   -0.38794664    1.40080086
     atom   22 type  1   force =     4.07672001   -0.95845259    3.20999736
     atom   23 type  1   force =     2.65664798    1.56393858    0.37872336
     atom   24 type  2   force =     5.04308082    3.90702365    0.41593878
     The local contribution  to forces
     atom    1 type  2   force =    -5.03308579    2.95760219   -0.23414613
     atom    2 type  1   force =    -3.39329409    2.06912980   -0.68892041
     atom    3 type  1   force =    -4.83973789   -2.19269179   -2.25718585
     atom    4 type  3   force =    -2.01721263   -0.76188851   -1.28311822
     atom    5 type  1   force =    -1.24564467   -3.79643573   -2.82086539
     atom    6 type  3   force =    -0.34774652   -1.93033102   -1.19245870
     atom    7 type  3   force =     0.42008696   -1.77506755    1.48920710
     atom    8 type  1   force =     1.67158316   -3.94074432    2.63926765
     atom    9 type  3   force =     2.01120768   -0.56795306    1.47478472
     atom   10 type  1   force =     4.52647025   -1.34305097    3.38212837
     atom   11 type  1   force =     2.86213787    2.08481162    0.86528426
     atom   12 type  2   force =     6.83615231    4.77769303    0.94426906
     atom   13 type  3   force =     0.12594308    1.92035772    1.09653080
     atom   14 type  1   force =     0.49488829    4.07267514    1.93952407
     atom   15 type  3   force =     1.82109132    0.85480008    0.99047098
     atom   16 type  1   force =     3.84682398    2.08910434    2.13027188
     atom   17 type  1   force =     2.49140882   -1.75374057    0.14070166
     atom   18 type  2   force =     4.62011236   -4.11101242    0.37858202
     atom   19 type  3   force =    -0.15795614    1.72930944   -1.40292617
     atom   20 type  1   force =    -1.04410877    3.88132482   -2.26826626
     atom   21 type  3   force =    -1.89392673    0.37806641   -1.35327495
     atom   22 type  1   force =    -4.06338449    0.92176068   -3.13930943
     atom   23 type  1   force =    -3.00274307   -1.89388390   -0.38739329
     atom   24 type  2   force =    -4.79686785   -3.66162184   -0.44279769
     The core correction contribution to forces
     atom    1 type  2   force =     0.01485079   -0.01035325   -0.00183035
     atom    2 type  1   force =    -0.01151257    0.00786712    0.00100278
     atom    3 type  1   force =    -0.00141024    0.00011176   -0.00057713
     atom    4 type  3   force =     0.00000000    0.00000000    0.00000000
     atom    5 type  1   force =     0.00013501   -0.00106988   -0.00069242
     atom    6 type  3   force =     0.00000000    0.00000000    0.00000000
     atom    7 type  3   force =     0.00000000    0.00000000    0.00000000
     atom    8 type  1   force =     0.00003838   -0.00080726    0.00080935
     atom    9 type  3   force =     0.00000000    0.00000000    0.00000000
     atom   10 type  1   force =     0.00105866    0.00023031    0.00063463
     atom   11 type  1   force =     0.00899389    0.00778187   -0.00020552
     atom   12 type  2   force =    -0.01135945   -0.00854936    0.00248967
     atom   13 type  3   force =     0.00000000    0.00000000    0.00000000
     atom   14 type  1   force =    -0.00030623    0.00131416    0.00025367
     atom   15 type  3   force =     0.00000000    0.00000000    0.00000000
     atom   16 type  1   force =     0.00110166    0.00033940    0.00044737
     atom   17 type  1   force =     0.01014921   -0.00831994    0.00006000
     atom   18 type  2   force =    -0.01128245    0.01158796   -0.00124523
     atom   19 type  3   force =     0.00000000    0.00000000    0.00000000
     atom   20 type  1   force =    -0.00013068    0.00092480   -0.00036472
     atom   21 type  3   force =     0.00000000    0.00000000    0.00000000
     atom   22 type  1   force =    -0.00158353   -0.00046842   -0.00033184
     atom   23 type  1   force =    -0.01006081   -0.00924586    0.00000305
     atom   24 type  2   force =     0.01148327    0.01300801   -0.00238923
     The Hubbard contrib.    to forces
     atom    1 type  2   force =     0.00000000    0.00000000    0.00000000
     atom    2 type  1   force =     0.00000000    0.00000000    0.00000000
     atom    3 type  1   force =     0.00000000    0.00000000    0.00000000
     atom    4 type  3   force =     0.00000000    0.00000000    0.00000000
     atom    5 type  1   force =     0.00000000    0.00000000    0.00000000
     atom    6 type  3   force =     0.00000000    0.00000000    0.00000000
     atom    7 type  3   force =     0.00000000    0.00000000    0.00000000
     atom    8 type  1   force =     0.00000000    0.00000000    0.00000000
     atom    9 type  3   force =     0.00000000    0.00000000    0.00000000
     atom   10 type  1   force =     0.00000000    0.00000000    0.00000000
     atom   11 type  1   force =     0.00000000    0.00000000    0.00000000
     atom   12 type  2   force =     0.00000000    0.00000000    0.00000000
     atom   13 type  3   force =     0.00000000    0.00000000    0.00000000
     atom   14 type  1   force =     0.00000000    0.00000000    0.00000000
     atom   15 type  3   force =     0.00000000    0.00000000    0.00000000
     atom   16 type  1   force =     0.00000000    0.00000000    0.00000000
     atom   17 type  1   force =     0.00000000    0.00000000    0.00000000
     atom   18 type  2   force =     0.00000000    0.00000000    0.00000000
     atom   19 type  3   force =     0.00000000    0.00000000    0.00000000
     atom   20 type  1   force =     0.00000000    0.00000000    0.00000000
     atom   21 type  3   force =     0.00000000    0.00000000    0.00000000
     atom   22 type  1   force =     0.00000000    0.00000000    0.00000000
     atom   23 type  1   force =     0.00000000    0.00000000    0.00000000
     atom   24 type  2   force =     0.00000000    0.00000000    0.00000000
     The SCF correction term to forces
     atom    1 type  2   force =     0.00007207   -0.00005831   -0.00002485
     atom    2 type  1   force =     0.00005953    0.00004609    0.00003393
     atom    3 type  1   force =     0.00001806    0.00006404    0.00003025
     atom    4 type  3   force =    -0.00000510    0.00000370   -0.00000201
     atom    5 type  1   force =     0.00006449   -0.00000049    0.00002347
     atom    6 type  3   force =     0.00000972   -0.00000928    0.00000295
     atom    7 type  3   force =     0.00002339   -0.00001269    0.00001712
     atom    8 type  1   force =     0.00017528   -0.00001097    0.00009673
     atom    9 type  3   force =     0.00000153    0.00000481   -0.00000284
     atom   10 type  1   force =     0.00013810    0.00003369    0.00005921
     atom   11 type  1   force =     0.00010347    0.00000798    0.00007114
     atom   12 type  2   force =     0.00006418   -0.00002938    0.00006997
     atom   13 type  3   force =    -0.00000041   -0.00001843   -0.00000888
     atom   14 type  1   force =     0.00001423   -0.00001807   -0.00000914
     atom   15 type  3   force =    -0.00002916   -0.00000276   -0.00001230
     atom   16 type  1   force =    -0.00006425    0.00003343   -0.00001614
     atom   17 type  1   force =    -0.00001790    0.00004347    0.00000816
     atom   18 type  2   force =    -0.00018190   -0.00001160   -0.00006508
     atom   19 type  3   force =     0.00000316    0.00000557    0.00000005
     atom   20 type  1   force =     0.00005496    0.00008168    0.00000222
     atom   21 type  3   force =    -0.00002200    0.00000677   -0.00001134
     atom   22 type  1   force =    -0.00006224    0.00008644   -0.00007573
     atom   23 type  1   force =    -0.00003610   -0.00001798   -0.00001284
     atom   24 type  2   force =    -0.00020938   -0.00012746   -0.00005642

     Total force =     0.119383     Total SCF correction =     0.000507

     Writing output data file scf-2319.save
 
     init_run     :      4.40s CPU      4.62s WALL (       1 calls)
     electrons    :     49.97s CPU     52.76s WALL (       1 calls)
     forces       :      2.33s CPU      2.46s WALL (       1 calls)

     Called by init_run:
     wfcinit      :      1.61s CPU      1.62s WALL (       1 calls)
     wfcinit:atom :      0.02s CPU      0.02s WALL (      16 calls)
     wfcinit:wfcr :      1.49s CPU      1.50s WALL (      16 calls)
     potinit      :      0.88s CPU      0.91s WALL (       1 calls)

     Called by electrons:
     c_bands      :     38.79s CPU     39.01s WALL (      11 calls)
     sum_band     :      6.94s CPU      8.17s WALL (      11 calls)
     v_of_rho     :      0.90s CPU      0.97s WALL (      12 calls)
     v_h          :      0.05s CPU      0.06s WALL (      12 calls)
     v_xc         :      0.92s CPU      0.99s WALL (      13 calls)
     newd         :      1.64s CPU      2.97s WALL (      12 calls)
     PAW_pot      :      1.66s CPU      1.72s WALL (      12 calls)
     mix_rho      :      0.14s CPU      0.14s WALL (      11 calls)

     Called by c_bands:
     init_us_2    :      0.88s CPU      0.87s WALL (     384 calls)
     cegterg      :     36.46s CPU     36.64s WALL (     176 calls)

     Called by sum_band:
     sum_band:bec :      0.02s CPU      0.02s WALL (     176 calls)
     addusdens    :      1.61s CPU      2.81s WALL (      11 calls)

     Called by *egterg:
     h_psi        :     27.05s CPU     27.17s WALL (     862 calls)
     s_psi        :      1.97s CPU      2.02s WALL (     862 calls)
     g_psi        :      0.18s CPU      0.16s WALL (     670 calls)
     cdiaghg      :      3.42s CPU      3.45s WALL (     846 calls)
     cegterg:over :      1.66s CPU      1.70s WALL (     670 calls)
     cegterg:upda :      1.32s CPU      1.27s WALL (     670 calls)
     cegterg:last :      0.43s CPU      0.43s WALL (     192 calls)

     Called by h_psi:
     h_psi:pot    :     26.82s CPU     26.91s WALL (     862 calls)
     h_psi:calbec :      2.31s CPU      2.27s WALL (     862 calls)
     vloc_psi     :     22.56s CPU     22.67s WALL (     862 calls)
     add_vuspsi   :      1.94s CPU      1.98s WALL (     862 calls)

     General routines
     calbec       :      3.08s CPU      3.01s WALL (    1102 calls)
     fft          :      0.86s CPU      0.89s WALL (     199 calls)
     ffts         :      0.04s CPU      0.03s WALL (      23 calls)
     fftw         :     20.98s CPU     21.20s WALL (   55510 calls)
     interpolate  :      0.15s CPU      0.15s WALL (      23 calls)
     davcio       :      0.00s CPU      0.01s WALL (      16 calls)
 
     Parallel routines
     fft_scatter  :      7.56s CPU      7.51s WALL (   55732 calls)

     PAW routines
     PAW_pot      :      1.66s CPU      1.72s WALL (      12 calls)
 
     PWSCF        :  0m57.37s CPU     1m 1.06s WALL

 
   This run was terminated on:  18:47: 2   7Jun2017            

=------------------------------------------------------------------------------=
   JOB DONE.
=------------------------------------------------------------------------------=
