
     Program PWSCF v.6.1 starts on 20May2017 at 12:28:28 

     This program is part of the open-source Quantum ESPRESSO suite
     for quantum simulation of materials; please cite
         "P. Giannozzi et al., J. Phys.:Condens. Matter 21 395502 (2009);
          URL http://www.quantum-espresso.org", 
     in publications or presentations arising from this work. More details at
     http://www.quantum-espresso.org/quote

     Parallel version (MPI & OpenMP), running on      32 processor cores
     Number of MPI processes:                32
     Threads/MPI process:                     1
     R & G space division:  proc/nbgrp/npool/nimage =      32
     Waiting for input...
     Reading input from standard input
Warning: card &IONS ignored
Warning: card     ION_TEMPERATURE   = 'INITIAL' ignored
Warning: card     TEMPW             = 586.D0 ignored
Warning: card     TOLP              = 100.D0 ignored
Warning: card     DELTA_T           = 1.D0 ignored
Warning: card     NRAISE            = 1 ignored
Warning: card / ignored
Warning: card &CELL ignored
Warning: card     CELL_DYNAMICS     = 'BFGS' ignored
Warning: card / ignored

     Current dimensions of program PWSCF are:
     Max number of different atomic species (ntypx) = 10
     Max number of k-points (npk) =  40000
     Max angular momentum in pseudopotentials (lmaxx) =  3
               file C.pbe-n-kjpaw_psl.1.0.0.UPF: wavefunction(s)  2S 2P renormalized
               file Cl.pbe-n-kjpaw_psl.1.0.0.UPF: wavefunction(s)  3S 3P renormalized
               file H.pbe-kjpaw_psl.1.0.0.UPF: wavefunction(s)  1S renormalized

     Subspace diagonalization in iterative solution of the eigenvalue problem:
     a serial algorithm will be used

 
     Parallelization info
     --------------------
     sticks:   dense  smooth     PW     G-vecs:    dense   smooth      PW
     Min         764     305     83                36108     9133    1292
     Max         765     306     84                36110     9135    1293
     Sum       24467    9791   2657              1155489   292295   41363
 


     bravais-lattice index     =            0
     lattice parameter (alat)  =       1.8897  a.u.
     unit-cell volume          =    2163.5316 (a.u.)^3
     number of atoms/cell      =           24
     number of atomic types    =            3
     number of electrons       =        84.00
     number of Kohn-Sham states=           42
     kinetic-energy cutoff     =     100.0000  Ry
     charge density cutoff     =    1000.0000  Ry
     convergence threshold     =      1.0E-07
     mixing beta               =       0.7000
     number of iterations used =            8  plain     mixing
     Exchange-correlation      =  SLA  PW   PBX  PBC ( 1  4  3  4 0 0)

     celldm(1)=   1.889726  celldm(2)=   0.000000  celldm(3)=   0.000000
     celldm(4)=   0.000000  celldm(5)=   0.000000  celldm(6)=   0.000000

     crystal axes: (cart. coord. in units of alat)
               a(1) = (  14.762000   0.000000   0.000000 )  
               a(2) = (   0.000000   5.832000   0.000000 )  
               a(3) = (  -1.563876   0.000000   3.723951 )  

     reciprocal axes: (cart. coord. in units 2 pi/alat)
               b(1) = (  0.067741  0.000000  0.028448 )  
               b(2) = (  0.000000  0.171468  0.000000 )  
               b(3) = (  0.000000  0.000000  0.268532 )  


     PseudoPot. # 1 for  C read from file:
     /global/cscratch1/sd/almno10/.data/PSEUDOPOTENTIALS/C.pbe-n-kjpaw_psl.1.0.0.UPF
     MD5 check sum: 2ba8448e293caca687844dde9a1b88a8
     Pseudo is Projector augmented-wave + core cor, Zval =  4.0
     Generated using "atomic" code by A. Dal Corso  v.5.3.0 svn rev. 11974
     Shape of augmentation charge: PSQ
     Using radial grid of 1073 points,  4 beta functions with: 
                l(1) =   0
                l(2) =   0
                l(3) =   1
                l(4) =   1
     Q(r) pseudized with 0 coefficients 


     PseudoPot. # 2 for Cl read from file:
     /global/cscratch1/sd/almno10/.data/PSEUDOPOTENTIALS/Cl.pbe-n-kjpaw_psl.1.0.0.UPF
     MD5 check sum: dca63699d6b897c5771335df08a09219
     Pseudo is Projector augmented-wave + core cor, Zval =  7.0
     Generated using "atomic" code by A. Dal Corso  v.5.3.0 svn rev. 11974
     Shape of augmentation charge: PSQ
     Using radial grid of 1157 points,  6 beta functions with: 
                l(1) =   0
                l(2) =   0
                l(3) =   1
                l(4) =   1
                l(5) =   2
                l(6) =   2
     Q(r) pseudized with 0 coefficients 


     PseudoPot. # 3 for  H read from file:
     /global/cscratch1/sd/almno10/.data/PSEUDOPOTENTIALS/H.pbe-kjpaw_psl.1.0.0.UPF
     MD5 check sum: bc0feb48a24907a0b97fa6ee2d589a29
     Pseudo is Projector augmented-wave, Zval =  1.0
     Generated using "atomic" code by A. Dal Corso  v.5.3.0 svn rev. 11974
     Shape of augmentation charge: PSQ
     Using radial grid of  929 points,  2 beta functions with: 
                l(1) =   0
                l(2) =   0
     Q(r) pseudized with 0 coefficients 


     atomic species   valence    mass     pseudopotential
        C              4.00    12.01100      C( 1.00)
        Cl             7.00    35.45270     Cl( 1.00)
        H              1.00     1.00790      H( 1.00)

     No symmetry found


                                    s                        frac. trans.

      isym =  1     identity                                     

 cryst.   s( 1) = (     1          0          0      )
                  (     0          1          0      )
                  (     0          0          1      )

 cart.    s( 1) = (  1.0000000  0.0000000 -0.0000000 )
                  (  0.0000000  1.0000000  0.0000000 )
                  (  0.0000000  0.0000000  1.0000000 )


   Cartesian axes

     site n.     atom                  positions (alat units)
         1           Cl  tau(   1) = (  16.3525818   0.8196901   1.6470836  )
         2           C   tau(   2) = (  14.9632095   2.0519903   1.6947575  )
         3           C   tau(   3) = (  15.0916824   3.2581972   2.3820820  )
         4           H   tau(   4) = (  16.0491840   3.5748872   2.7917770  )
         5           C   tau(   5) = (  13.9876222   4.1067826   2.4538933  )
         6           H   tau(   6) = (  14.0635734   5.0509649   2.9903054  )
         7           H   tau(   7) = (   6.8416010   2.1802837   0.4509276  )
         8           C   tau(   8) = (   6.7620661   1.2988824   1.0849532  )
         9           H   tau(   9) = (   4.8699129   0.6843548   0.2518243  )
        10           C   tau(  10) = (   5.6753017   0.4362858   0.9421979  )
        11           C   tau(  11) = (   5.6093343  -0.6869549   1.7657705  )
        12           Cl  tau(  12) = (   4.2502220  -1.7772983   1.7689288  )
        13           H   tau(  13) = (  13.6737231   0.7192843   0.6010643  )
        14           C   tau(  14) = (  13.7579822   1.6845005   1.0964846  )
        15           H   tau(  15) = (  11.6769531   2.1817972   0.8347717  )
        16           C   tau(  16) = (  12.6174815   2.4615434   1.3029407  )
        17           C   tau(  17) = (  12.7599007   3.6967436   1.9339131  )
        18           Cl  tau(  18) = (  11.3508671   4.5855138   2.1886589  )
        19           H   tau(  19) = (   6.5398792  -1.8541713   3.3152520  )
        20           C   tau(  20) = (   6.6376722  -0.9922525   2.6574155  )
        21           H   tau(  21) = (   8.5060459  -0.3529136   3.5172519  )
        22           C   tau(  22) = (   7.7079336  -0.1149559   2.8178482  )
        23           C   tau(  23) = (   7.7963377   0.9813385   1.9622369  )
        24           Cl  tau(  24) = (   9.2439608   1.9568535   1.9317178  )

   Crystallographic axes

     site n.     atom                  positions (cryst. coord.)
         1           Cl  tau(   1) = (  1.1546048  0.1405504  0.4422946  )
         2           C   tau(   2) = (  1.0618428  0.3518502  0.4550966  )
         3           C   tau(   3) = (  1.0900988  0.5586758  0.6396652  )
         4           H   tau(   4) = (  1.1666165  0.6129779  0.7496814  )
         5           C   tau(   5) = (  1.0173511  0.7041808  0.6589488  )
         6           H   tau(   6) = (  1.0377560  0.8660777  0.8029926  )
         7           H   tau(   7) = (  0.4762883  0.3738484  0.1210885  )
         8           C   tau(   8) = (  0.4889373  0.2227165  0.2913446  )
         9           H   tau(   9) = (  0.3370591  0.1173448  0.0676229  )
        10           C   tau(  10) = (  0.4112572  0.0748090  0.2530103  )
        11           C   tau(  11) = (  0.4302175 -0.1177906  0.4741658  )
        12           Cl  tau(  12) = (  0.3382390 -0.3047494  0.4750139  )
        13           H   tau(  13) = (  0.9433776  0.1233341  0.1614050  )
        14           C   tau(  14) = (  0.9631792  0.2888375  0.2944412  )
        15           H   tau(  15) = (  0.8147620  0.3741079  0.2241629  )
        16           C   tau(  16) = (  0.8917933  0.4220753  0.3498812  )
        17           C   tau(  17) = (  0.9193909  0.6338724  0.5193175  )
        18           Cl  tau(  18) = (  0.8311879  0.7862678  0.5877249  )
        19           H   tau(  19) = (  0.5373338 -0.3179306  0.8902511  )
        20           C   tau(  20) = (  0.5252442 -0.1701393  0.7136010  )
        21           H   tau(  21) = (  0.6762714 -0.0605133  0.9444946  )
        22           C   tau(  22) = (  0.6023094 -0.0197112  0.7566823  )
        23           C   tau(  23) = (  0.5839575  0.1682679  0.5269233  )
        24           Cl  tau(  24) = (  0.6811534  0.3355373  0.5187280  )

     number of k points=    16
                       cart. coord. in units 2pi/alat
        k(    1) = (   0.0169354   0.0214335   0.0406785), wk =   0.1250000
        k(    2) = (   0.0169354   0.0214335   0.1078115), wk =   0.1250000
        k(    3) = (   0.0169354   0.0214335  -0.0935875), wk =   0.1250000
        k(    4) = (   0.0169354   0.0214335  -0.0264545), wk =   0.1250000
        k(    5) = (   0.0169354   0.0643004   0.0406785), wk =   0.1250000
        k(    6) = (   0.0169354   0.0643004   0.1078115), wk =   0.1250000
        k(    7) = (   0.0169354   0.0643004  -0.0935875), wk =   0.1250000
        k(    8) = (   0.0169354   0.0643004  -0.0264545), wk =   0.1250000
        k(    9) = (  -0.0169354   0.0214335  -0.0406785), wk =   0.1250000
        k(   10) = (  -0.0169354   0.0214335  -0.1078115), wk =   0.1250000
        k(   11) = (  -0.0169354   0.0214335   0.0935875), wk =   0.1250000
        k(   12) = (  -0.0169354   0.0214335   0.0264545), wk =   0.1250000
        k(   13) = (  -0.0169354   0.0643004  -0.0406785), wk =   0.1250000
        k(   14) = (  -0.0169354   0.0643004  -0.1078115), wk =   0.1250000
        k(   15) = (  -0.0169354   0.0643004   0.0935875), wk =   0.1250000
        k(   16) = (  -0.0169354   0.0643004   0.0264545), wk =   0.1250000

                       cryst. coord.
        k(    1) = (   0.2500000   0.1250000   0.1250000), wk =   0.1250000
        k(    2) = (   0.2500000   0.1250000   0.3750000), wk =   0.1250000
        k(    3) = (   0.2500000   0.1250000  -0.3750000), wk =   0.1250000
        k(    4) = (   0.2500000   0.1250000  -0.1250000), wk =   0.1250000
        k(    5) = (   0.2500000   0.3750000   0.1250000), wk =   0.1250000
        k(    6) = (   0.2500000   0.3750000   0.3750000), wk =   0.1250000
        k(    7) = (   0.2500000   0.3750000  -0.3750000), wk =   0.1250000
        k(    8) = (   0.2500000   0.3750000  -0.1250000), wk =   0.1250000
        k(    9) = (  -0.2500000   0.1250000  -0.1250000), wk =   0.1250000
        k(   10) = (  -0.2500000   0.1250000  -0.3750000), wk =   0.1250000
        k(   11) = (  -0.2500000   0.1250000   0.3750000), wk =   0.1250000
        k(   12) = (  -0.2500000   0.1250000   0.1250000), wk =   0.1250000
        k(   13) = (  -0.2500000   0.3750000  -0.1250000), wk =   0.1250000
        k(   14) = (  -0.2500000   0.3750000  -0.3750000), wk =   0.1250000
        k(   15) = (  -0.2500000   0.3750000   0.3750000), wk =   0.1250000
        k(   16) = (  -0.2500000   0.3750000   0.1250000), wk =   0.1250000

     Dense  grid:  1155489 G-vectors     FFT dimensions: ( 288, 120,  80)

     Smooth grid:   292295 G-vectors     FFT dimensions: ( 180,  72,  50)

     Estimated max dynamical RAM per process >     147.21MB

     Estimated total allocated dynamical RAM >    4710.62MB

     Initial potential from superposition of free atoms

     starting charge   83.99939, renormalised to   84.00000
     Starting wfc are   72 randomized atomic wfcs
     Checking if some PAW data can be deallocated... 
       node    0, deallocated PAW data for type:  1
       node    0, deallocated PAW data for type:  3
       node    1, deallocated PAW data for type:  1
       node    1, deallocated PAW data for type:  3
       node    2, deallocated PAW data for type:  2
       node    2, deallocated PAW data for type:  3
       node    3, deallocated PAW data for type:  2
       node    3, deallocated PAW data for type:  3
       node    4, deallocated PAW data for type:  2
       node    4, deallocated PAW data for type:  3
       node    5, deallocated PAW data for type:  2
       node    5, deallocated PAW data for type:  3
       node    6, deallocated PAW data for type:  1
       node    6, deallocated PAW data for type:  2
       node    7, deallocated PAW data for type:  1
       node    7, deallocated PAW data for type:  2
       node    8, deallocated PAW data for type:  2
       node    8, deallocated PAW data for type:  3
       node    9, deallocated PAW data for type:  2
       node    9, deallocated PAW data for type:  3
       node   10, deallocated PAW data for type:  1
       node   10, deallocated PAW data for type:  2
       node   11, deallocated PAW data for type:  1
       node   11, deallocated PAW data for type:  2
       node   12, deallocated PAW data for type:  1
       node   12, deallocated PAW data for type:  2
       node   13, deallocated PAW data for type:  1
       node   13, deallocated PAW data for type:  2
       node   14, deallocated PAW data for type:  2
       node   14, deallocated PAW data for type:  3
       node   15, deallocated PAW data for type:  2
       node   15, deallocated PAW data for type:  3
       node   16, deallocated PAW data for type:  1
       node   16, deallocated PAW data for type:  2
       node   17, deallocated PAW data for type:  2
       node   17, deallocated PAW data for type:  3
       node   18, deallocated PAW data for type:  2
       node   18, deallocated PAW data for type:  3
       node   19, deallocated PAW data for type:  1
       node   19, deallocated PAW data for type:  3
       node   20, deallocated PAW data for type:  1
       node   20, deallocated PAW data for type:  2
       node   21, deallocated PAW data for type:  2
       node   21, deallocated PAW data for type:  3
       node   22, deallocated PAW data for type:  1
       node   22, deallocated PAW data for type:  2
       node   23, deallocated PAW data for type:  2
       node   23, deallocated PAW data for type:  3
       node   24, deallocated PAW data for type:  2
       node   24, deallocated PAW data for type:  3
       node   25, deallocated PAW data for type:  1
       node   25, deallocated PAW data for type:  3
       node   26, deallocated PAW data for type:  1
       node   26, deallocated PAW data for type:  2
       node   27, deallocated PAW data for type:  2
       node   27, deallocated PAW data for type:  3
       node   28, deallocated PAW data for type:  1
       node   28, deallocated PAW data for type:  2
       node   29, deallocated PAW data for type:  2
       node   29, deallocated PAW data for type:  3
       node   30, deallocated PAW data for type:  2
       node   30, deallocated PAW data for type:  3
       node   31, deallocated PAW data for type:  1
       node   31, deallocated PAW data for type:  3

     total cpu time spent up to now is        5.2 secs

     per-process dynamical memory:    20.7 Mb

     Self-consistent Calculation

     iteration #  1     ecut=   100.00 Ry     beta= 0.70
     Davidson diagonalization with overlap
     ethr =  1.00E-04,  avg # of iterations =  5.0

     total cpu time spent up to now is       11.9 secs

     total energy              =    -547.12575430 Ry
     Harris-Foulkes estimate   =    -548.98949570 Ry
     estimated scf accuracy    <       2.72794656 Ry

     iteration #  2     ecut=   100.00 Ry     beta= 0.70
     Davidson diagonalization with overlap
     ethr =  3.25E-03,  avg # of iterations =  3.0

     total cpu time spent up to now is       16.7 secs

     total energy              =    -547.52456920 Ry
     Harris-Foulkes estimate   =    -548.61025207 Ry
     estimated scf accuracy    <       1.96278196 Ry

     iteration #  3     ecut=   100.00 Ry     beta= 0.70
     Davidson diagonalization with overlap
     ethr =  2.34E-03,  avg # of iterations =  2.9

     total cpu time spent up to now is       21.1 secs

     total energy              =    -548.01270879 Ry
     Harris-Foulkes estimate   =    -548.05386191 Ry
     estimated scf accuracy    <       0.08301728 Ry

     iteration #  4     ecut=   100.00 Ry     beta= 0.70
     Davidson diagonalization with overlap
     ethr =  9.88E-05,  avg # of iterations =  4.0

     total cpu time spent up to now is       25.9 secs

     total energy              =    -548.03956753 Ry
     Harris-Foulkes estimate   =    -548.05019475 Ry
     estimated scf accuracy    <       0.02111304 Ry

     iteration #  5     ecut=   100.00 Ry     beta= 0.70
     Davidson diagonalization with overlap
     ethr =  2.51E-05,  avg # of iterations =  3.0

     total cpu time spent up to now is       30.2 secs

     total energy              =    -548.04388103 Ry
     Harris-Foulkes estimate   =    -548.04442898 Ry
     estimated scf accuracy    <       0.00111676 Ry

     iteration #  6     ecut=   100.00 Ry     beta= 0.70
     Davidson diagonalization with overlap
     ethr =  1.33E-06,  avg # of iterations =  4.0

     total cpu time spent up to now is       35.1 secs

     total energy              =    -548.04417010 Ry
     Harris-Foulkes estimate   =    -548.04436006 Ry
     estimated scf accuracy    <       0.00039090 Ry

     iteration #  7     ecut=   100.00 Ry     beta= 0.70
     Davidson diagonalization with overlap
     ethr =  4.65E-07,  avg # of iterations =  4.0

     total cpu time spent up to now is       39.7 secs

     total energy              =    -548.04425184 Ry
     Harris-Foulkes estimate   =    -548.04429561 Ry
     estimated scf accuracy    <       0.00010092 Ry

     iteration #  8     ecut=   100.00 Ry     beta= 0.70
     Davidson diagonalization with overlap
     ethr =  1.20E-07,  avg # of iterations =  4.0

     total cpu time spent up to now is       44.1 secs

     total energy              =    -548.04427204 Ry
     Harris-Foulkes estimate   =    -548.04428671 Ry
     estimated scf accuracy    <       0.00003826 Ry

     iteration #  9     ecut=   100.00 Ry     beta= 0.70
     Davidson diagonalization with overlap
     ethr =  4.55E-08,  avg # of iterations =  4.0

     total cpu time spent up to now is       48.3 secs

     total energy              =    -548.04427926 Ry
     Harris-Foulkes estimate   =    -548.04428038 Ry
     estimated scf accuracy    <       0.00000259 Ry

     iteration # 10     ecut=   100.00 Ry     beta= 0.70
     Davidson diagonalization with overlap
     ethr =  3.08E-09,  avg # of iterations =  4.0

     total cpu time spent up to now is       52.9 secs

     total energy              =    -548.04427994 Ry
     Harris-Foulkes estimate   =    -548.04428024 Ry
     estimated scf accuracy    <       0.00000069 Ry

     iteration # 11     ecut=   100.00 Ry     beta= 0.70
     Davidson diagonalization with overlap
     ethr =  8.16E-10,  avg # of iterations =  4.0

     total cpu time spent up to now is       57.5 secs

     End of self-consistent calculation

          k = 0.0169 0.0214 0.0407 ( 36525 PWs)   bands (ev):

   -16.2035 -16.0966 -15.4265 -15.0932 -13.9828 -13.7852 -12.3518 -12.3116
   -11.2820 -11.2214  -9.0086  -8.9275  -8.2446  -8.1324  -6.3815  -6.2801
    -5.3429  -5.2644  -5.0287  -4.7873  -4.2330  -4.0682  -4.0017  -3.9168
    -3.1930  -3.1809  -2.7868  -2.5773  -2.4466  -2.3661  -2.1931  -2.0648
    -1.2651  -1.1125  -1.0026  -0.9262  -0.8950  -0.7752  -0.2152   0.1267
     0.5427   0.7294

     occupation numbers 
     1.0000   1.0000   1.0000   1.0000   1.0000   1.0000   1.0000   1.0000
     1.0000   1.0000   1.0000   1.0000   1.0000   1.0000   1.0000   1.0000
     1.0000   1.0000   1.0000   1.0000   1.0000   1.0000   1.0000   1.0000
     1.0000   1.0000   1.0000   1.0000   1.0000   1.0000   1.0000   1.0000
     1.0000   1.0000   1.0000   1.0000   1.0000   1.0000   1.0000   1.0000
     1.0000   1.0000

          k = 0.0169 0.0214 0.1078 ( 36561 PWs)   bands (ev):

   -16.1133 -16.0033 -15.3739 -15.0470 -13.9563 -13.7760 -12.3910 -12.2790
   -11.2799 -11.2335  -8.9885  -8.8940  -8.2294  -8.1044  -6.3962  -6.3174
    -5.3498  -5.2692  -5.0443  -4.9206  -4.2730  -4.2460  -4.0852  -4.0305
    -3.7910  -3.7238  -2.8894  -2.7012  -2.5476  -2.4154  -2.3396  -2.3175
    -1.3125  -1.2073  -1.0965  -1.0016  -0.8672  -0.7716  -0.2053  -0.1098
     0.6283   0.8167

     occupation numbers 
     1.0000   1.0000   1.0000   1.0000   1.0000   1.0000   1.0000   1.0000
     1.0000   1.0000   1.0000   1.0000   1.0000   1.0000   1.0000   1.0000
     1.0000   1.0000   1.0000   1.0000   1.0000   1.0000   1.0000   1.0000
     1.0000   1.0000   1.0000   1.0000   1.0000   1.0000   1.0000   1.0000
     1.0000   1.0000   1.0000   1.0000   1.0000   1.0000   1.0000   1.0000
     1.0000   1.0000

          k = 0.0169 0.0214-0.0936 ( 36547 PWs)   bands (ev):

   -16.1168 -15.9990 -15.3774 -15.0442 -13.9588 -13.7690 -12.4001 -12.2738
   -11.2702 -11.2512  -8.9551  -8.9228  -8.2037  -8.1298  -6.3784  -6.2964
    -5.3428  -5.2755  -5.1254  -4.8414  -4.3041  -4.2569  -4.1067  -4.0594
    -3.7858  -3.7379  -2.8387  -2.6420  -2.5095  -2.4616  -2.3739  -2.3008
    -1.2569  -1.1672  -1.1357  -1.0170  -0.8969  -0.7932  -0.2580  -0.0865
     0.6270   0.8194

     occupation numbers 
     1.0000   1.0000   1.0000   1.0000   1.0000   1.0000   1.0000   1.0000
     1.0000   1.0000   1.0000   1.0000   1.0000   1.0000   1.0000   1.0000
     1.0000   1.0000   1.0000   1.0000   1.0000   1.0000   1.0000   1.0000
     1.0000   1.0000   1.0000   1.0000   1.0000   1.0000   1.0000   1.0000
     1.0000   1.0000   1.0000   1.0000   1.0000   1.0000   1.0000   1.0000
     1.0000   1.0000

          k = 0.0169 0.0214-0.0265 ( 36551 PWs)   bands (ev):

   -16.2071 -16.0922 -15.4298 -15.0908 -13.9858 -13.7772 -12.3617 -12.3072
   -11.2803 -11.2295  -8.9837  -8.9487  -8.2588  -8.1108  -6.4110  -6.2122
    -5.3414  -5.2745  -5.1131  -4.7032  -4.3008  -4.1014  -3.9986  -3.8711
    -3.2341  -3.1747  -2.7749  -2.5652  -2.4485  -2.2923  -2.1861  -2.0828
    -1.2516  -1.1016  -1.0163  -0.9294  -0.8932  -0.8038  -0.2038   0.0721
     0.5571   0.7237

     occupation numbers 
     1.0000   1.0000   1.0000   1.0000   1.0000   1.0000   1.0000   1.0000
     1.0000   1.0000   1.0000   1.0000   1.0000   1.0000   1.0000   1.0000
     1.0000   1.0000   1.0000   1.0000   1.0000   1.0000   1.0000   1.0000
     1.0000   1.0000   1.0000   1.0000   1.0000   1.0000   1.0000   1.0000
     1.0000   1.0000   1.0000   1.0000   1.0000   1.0000   1.0000   1.0000
     1.0000   1.0000

          k = 0.0169 0.0643 0.0407 ( 36518 PWs)   bands (ev):

   -16.1792 -16.0776 -15.4350 -15.0877 -14.0062 -13.8290 -12.3804 -12.3549
   -11.2882 -11.2255  -8.9410  -8.8392  -8.1750  -8.0539  -6.3723  -6.3189
    -5.3220  -5.2353  -5.0520  -4.9329  -4.3040  -4.2460  -4.0654  -3.9710
    -3.2636  -3.2445  -2.6797  -2.5280  -2.4178  -2.3984  -2.1942  -2.0339
    -1.0921  -1.0025  -0.9224  -0.8638  -0.8235  -0.7980  -0.1688   0.1679
     0.6116   0.7405

     occupation numbers 
     1.0000   1.0000   1.0000   1.0000   1.0000   1.0000   1.0000   1.0000
     1.0000   1.0000   1.0000   1.0000   1.0000   1.0000   1.0000   1.0000
     1.0000   1.0000   1.0000   1.0000   1.0000   1.0000   1.0000   1.0000
     1.0000   1.0000   1.0000   1.0000   1.0000   1.0000   1.0000   1.0000
     1.0000   1.0000   1.0000   1.0000   1.0000   1.0000   1.0000   1.0000
     1.0000   1.0000

          k = 0.0169 0.0643 0.1078 ( 36558 PWs)   bands (ev):

   -16.1001 -15.9908 -15.3772 -15.0360 -13.9682 -13.8019 -12.3954 -12.3053
   -11.2881 -11.2606  -8.9869  -8.8559  -8.2358  -8.0918  -6.3900  -6.2988
    -5.3504  -5.2459  -4.9727  -4.8383  -4.2836  -4.1984  -4.0868  -3.9933
    -3.9136  -3.8922  -2.8148  -2.6782  -2.6043  -2.4616  -2.3770  -2.3196
    -1.2514  -1.1364  -1.0658  -0.9989  -0.9373  -0.7937  -0.0573   0.0446
     0.6415   0.8229

     occupation numbers 
     1.0000   1.0000   1.0000   1.0000   1.0000   1.0000   1.0000   1.0000
     1.0000   1.0000   1.0000   1.0000   1.0000   1.0000   1.0000   1.0000
     1.0000   1.0000   1.0000   1.0000   1.0000   1.0000   1.0000   1.0000
     1.0000   1.0000   1.0000   1.0000   1.0000   1.0000   1.0000   1.0000
     1.0000   1.0000   1.0000   1.0000   1.0000   1.0000   1.0000   1.0000
     1.0000   1.0000

          k = 0.0169 0.0643-0.0936 ( 36547 PWs)   bands (ev):

   -16.1034 -15.9870 -15.3799 -15.0337 -13.9719 -13.7936 -12.4045 -12.2999
   -11.2868 -11.2705  -8.9533  -8.8819  -8.2023  -8.1289  -6.3835  -6.2755
    -5.3469  -5.2545  -5.0030  -4.7706  -4.2905  -4.2417  -4.1308  -4.0276
    -3.9150  -3.8666  -2.8316  -2.6824  -2.5835  -2.5309  -2.2934  -2.2380
    -1.1799  -1.1445  -1.1276  -1.0110  -0.9356  -0.8252  -0.1163   0.0677
     0.6391   0.8326

     occupation numbers 
     1.0000   1.0000   1.0000   1.0000   1.0000   1.0000   1.0000   1.0000
     1.0000   1.0000   1.0000   1.0000   1.0000   1.0000   1.0000   1.0000
     1.0000   1.0000   1.0000   1.0000   1.0000   1.0000   1.0000   1.0000
     1.0000   1.0000   1.0000   1.0000   1.0000   1.0000   1.0000   1.0000
     1.0000   1.0000   1.0000   1.0000   1.0000   1.0000   1.0000   1.0000
     1.0000   1.0000

          k = 0.0169 0.0643-0.0265 ( 36489 PWs)   bands (ev):

   -16.1822 -16.0742 -15.4374 -15.0857 -14.0101 -13.8211 -12.3890 -12.3487
   -11.2877 -11.2367  -8.9102  -8.8595  -8.1471  -8.0814  -6.3824  -6.2977
    -5.3177  -5.2264  -5.1026  -4.8423  -4.2956  -4.2617  -4.1268  -4.0385
    -3.2904  -3.2187  -2.6524  -2.4873  -2.4029  -2.3580  -2.1984  -2.0406
    -1.0968  -1.0227  -0.9309  -0.8758  -0.8229  -0.7797  -0.1575   0.1179
     0.6146   0.7378

     occupation numbers 
     1.0000   1.0000   1.0000   1.0000   1.0000   1.0000   1.0000   1.0000
     1.0000   1.0000   1.0000   1.0000   1.0000   1.0000   1.0000   1.0000
     1.0000   1.0000   1.0000   1.0000   1.0000   1.0000   1.0000   1.0000
     1.0000   1.0000   1.0000   1.0000   1.0000   1.0000   1.0000   1.0000
     1.0000   1.0000   1.0000   1.0000   1.0000   1.0000   1.0000   1.0000
     1.0000   1.0000

          k =-0.0169 0.0214-0.0407 ( 36525 PWs)   bands (ev):

   -16.2063 -16.0934 -15.4290 -15.0911 -13.9867 -13.7766 -12.3609 -12.3073
   -11.2792 -11.2314  -8.9758  -8.9546  -8.2363  -8.1408  -6.3731  -6.2431
    -5.3347  -5.2775  -5.0843  -4.7667  -4.2230  -4.1111  -4.0569  -3.8732
    -3.2265  -3.1689  -2.7559  -2.5589  -2.4405  -2.3359  -2.1610  -2.0738
    -1.2727  -1.1020  -1.0224  -0.9271  -0.8776  -0.8088  -0.2041   0.0737
     0.5430   0.7347

     occupation numbers 
     1.0000   1.0000   1.0000   1.0000   1.0000   1.0000   1.0000   1.0000
     1.0000   1.0000   1.0000   1.0000   1.0000   1.0000   1.0000   1.0000
     1.0000   1.0000   1.0000   1.0000   1.0000   1.0000   1.0000   1.0000
     1.0000   1.0000   1.0000   1.0000   1.0000   1.0000   1.0000   1.0000
     1.0000   1.0000   1.0000   1.0000   1.0000   1.0000   1.0000   1.0000
     1.0000   1.0000

          k =-0.0169 0.0214-0.1078 ( 36561 PWs)   bands (ev):

   -16.1163 -15.9998 -15.3765 -15.0447 -13.9605 -13.7672 -12.4003 -12.2734
   -11.2794 -11.2425  -8.9575  -8.9201  -8.1923  -8.1421  -6.3757  -6.2957
    -5.3425  -5.2794  -5.1000  -4.8894  -4.3081  -4.2496  -4.1082  -4.0144
    -3.8073  -3.7195  -2.8702  -2.7073  -2.5417  -2.3983  -2.3404  -2.2618
    -1.3257  -1.1720  -1.1199  -0.9829  -0.9048  -0.7839  -0.2608  -0.0890
     0.6242   0.8228

     occupation numbers 
     1.0000   1.0000   1.0000   1.0000   1.0000   1.0000   1.0000   1.0000
     1.0000   1.0000   1.0000   1.0000   1.0000   1.0000   1.0000   1.0000
     1.0000   1.0000   1.0000   1.0000   1.0000   1.0000   1.0000   1.0000
     1.0000   1.0000   1.0000   1.0000   1.0000   1.0000   1.0000   1.0000
     1.0000   1.0000   1.0000   1.0000   1.0000   1.0000   1.0000   1.0000
     1.0000   1.0000

          k =-0.0169 0.0214 0.0936 ( 36547 PWs)   bands (ev):

   -16.1138 -16.0024 -15.3749 -15.0464 -13.9544 -13.7781 -12.3910 -12.2792
   -11.2689 -11.2439  -8.9873  -8.8969  -8.2323  -8.0994  -6.4007  -6.3115
    -5.3451  -5.2762  -5.0946  -4.8538  -4.2958  -4.2273  -4.1160  -4.0332
    -3.7717  -3.7260  -2.8430  -2.6988  -2.5709  -2.4204  -2.3580  -2.3327
    -1.2787  -1.1752  -1.1301  -1.0244  -0.8561  -0.7794  -0.1971  -0.1114
     0.6313   0.8114

     occupation numbers 
     1.0000   1.0000   1.0000   1.0000   1.0000   1.0000   1.0000   1.0000
     1.0000   1.0000   1.0000   1.0000   1.0000   1.0000   1.0000   1.0000
     1.0000   1.0000   1.0000   1.0000   1.0000   1.0000   1.0000   1.0000
     1.0000   1.0000   1.0000   1.0000   1.0000   1.0000   1.0000   1.0000
     1.0000   1.0000   1.0000   1.0000   1.0000   1.0000   1.0000   1.0000
     1.0000   1.0000

          k =-0.0169 0.0214 0.0265 ( 36551 PWs)   bands (ev):

   -16.2049 -16.0945 -15.4282 -15.0923 -13.9815 -13.7861 -12.3520 -12.3131
   -11.2805 -11.2202  -9.0116  -8.9304  -8.2703  -8.0960  -6.4283  -6.2227
    -5.3474  -5.2742  -5.1267  -4.6752  -4.3080  -4.0311  -3.9712  -3.8723
    -3.2299  -3.1712  -2.8489  -2.5624  -2.4268  -2.3635  -2.2030  -2.0750
    -1.2238  -1.1171  -1.0244  -0.9279  -0.9044  -0.7580  -0.2176   0.1251
     0.5487   0.7265

     occupation numbers 
     1.0000   1.0000   1.0000   1.0000   1.0000   1.0000   1.0000   1.0000
     1.0000   1.0000   1.0000   1.0000   1.0000   1.0000   1.0000   1.0000
     1.0000   1.0000   1.0000   1.0000   1.0000   1.0000   1.0000   1.0000
     1.0000   1.0000   1.0000   1.0000   1.0000   1.0000   1.0000   1.0000
     1.0000   1.0000   1.0000   1.0000   1.0000   1.0000   1.0000   1.0000
     1.0000   1.0000

          k =-0.0169 0.0643-0.0407 ( 36518 PWs)   bands (ev):

   -16.1824 -16.0740 -15.4377 -15.0854 -14.0100 -13.8208 -12.3891 -12.3505
   -11.2852 -11.2358  -8.9100  -8.8647  -8.1484  -8.0820  -6.3605  -6.2843
    -5.3201  -5.2323  -5.1436  -4.8764  -4.3334  -4.2789  -4.0619  -3.9530
    -3.3001  -3.2145  -2.7023  -2.5238  -2.4166  -2.3099  -2.1942  -2.0340
    -1.0670  -0.9941  -0.9574  -0.8942  -0.8202  -0.7908  -0.1577   0.1125
     0.6038   0.7530

     occupation numbers 
     1.0000   1.0000   1.0000   1.0000   1.0000   1.0000   1.0000   1.0000
     1.0000   1.0000   1.0000   1.0000   1.0000   1.0000   1.0000   1.0000
     1.0000   1.0000   1.0000   1.0000   1.0000   1.0000   1.0000   1.0000
     1.0000   1.0000   1.0000   1.0000   1.0000   1.0000   1.0000   1.0000
     1.0000   1.0000   1.0000   1.0000   1.0000   1.0000   1.0000   1.0000
     1.0000   1.0000

          k =-0.0169 0.0643-0.1078 ( 36558 PWs)   bands (ev):

   -16.1033 -15.9870 -15.3799 -15.0336 -13.9725 -13.7932 -12.4047 -12.2999
   -11.2875 -11.2694  -8.9537  -8.8831  -8.1998  -8.1310  -6.3761  -6.2749
    -5.3412  -5.2534  -5.0141  -4.8055  -4.2772  -4.2124  -4.1339  -4.0237
    -3.9209  -3.8774  -2.8176  -2.6748  -2.5784  -2.4435  -2.4079  -2.2333
    -1.2474  -1.1234  -1.0966  -1.0146  -0.9325  -0.8057  -0.1123   0.0670
     0.6373   0.8288

     occupation numbers 
     1.0000   1.0000   1.0000   1.0000   1.0000   1.0000   1.0000   1.0000
     1.0000   1.0000   1.0000   1.0000   1.0000   1.0000   1.0000   1.0000
     1.0000   1.0000   1.0000   1.0000   1.0000   1.0000   1.0000   1.0000
     1.0000   1.0000   1.0000   1.0000   1.0000   1.0000   1.0000   1.0000
     1.0000   1.0000   1.0000   1.0000   1.0000   1.0000   1.0000   1.0000
     1.0000   1.0000

          k =-0.0169 0.0643 0.0936 ( 36547 PWs)   bands (ev):

   -16.1002 -15.9907 -15.3773 -15.0360 -13.9675 -13.8026 -12.3955 -12.3051
   -11.2810 -11.2679  -8.9865  -8.8558  -8.2362  -8.0906  -6.3973  -6.2946
    -5.3521  -5.2559  -4.9776  -4.7960  -4.3373  -4.1946  -4.0816  -3.9896
    -3.8861  -3.8810  -2.8217  -2.7185  -2.6171  -2.5460  -2.3006  -2.2677
    -1.2009  -1.1501  -1.0935  -1.0071  -0.9390  -0.8001  -0.0581   0.0443
     0.6437   0.8234

     occupation numbers 
     1.0000   1.0000   1.0000   1.0000   1.0000   1.0000   1.0000   1.0000
     1.0000   1.0000   1.0000   1.0000   1.0000   1.0000   1.0000   1.0000
     1.0000   1.0000   1.0000   1.0000   1.0000   1.0000   1.0000   1.0000
     1.0000   1.0000   1.0000   1.0000   1.0000   1.0000   1.0000   1.0000
     1.0000   1.0000   1.0000   1.0000   1.0000   1.0000   1.0000   1.0000
     1.0000   1.0000

          k =-0.0169 0.0643 0.0265 ( 36489 PWs)   bands (ev):

   -16.1797 -16.0769 -15.4355 -15.0874 -14.0059 -13.8295 -12.3797 -12.3547
   -11.2877 -11.2274  -8.9398  -8.8404  -8.1790  -8.0435  -6.4083  -6.3026
    -5.3203  -5.2379  -5.0723  -4.8614  -4.3353  -4.1932  -4.1091  -3.9964
    -3.2687  -3.2392  -2.7081  -2.4634  -2.4129  -2.3950  -2.2053  -2.0533
    -1.1180  -1.0319  -0.9337  -0.8339  -0.8198  -0.7631  -0.1691   0.1680
     0.6051   0.7433

     occupation numbers 
     1.0000   1.0000   1.0000   1.0000   1.0000   1.0000   1.0000   1.0000
     1.0000   1.0000   1.0000   1.0000   1.0000   1.0000   1.0000   1.0000
     1.0000   1.0000   1.0000   1.0000   1.0000   1.0000   1.0000   1.0000
     1.0000   1.0000   1.0000   1.0000   1.0000   1.0000   1.0000   1.0000
     1.0000   1.0000   1.0000   1.0000   1.0000   1.0000   1.0000   1.0000
     1.0000   1.0000

     highest occupied level (ev):     0.8326

!    total energy              =    -548.04428008 Ry
     Harris-Foulkes estimate   =    -548.04428010 Ry
     estimated scf accuracy    <       0.00000003 Ry

     total all-electron energy =     -4615.887768 Ry

     The total energy is the sum of the following terms:

     one-electron contribution =    -153.97866996 Ry
     hartree contribution      =     108.33781368 Ry
     xc contribution           =    -104.21222399 Ry
     ewald contribution        =    -142.40867124 Ry
     one-center paw contrib.   =    -255.78252858 Ry
      -> PAW hartree energy AE =      18.80982866 Ry
      -> PAW hartree energy PS =     -18.70573967 Ry
      -> PAW xc energy AE      =     -55.58945510 Ry
      -> PAW xc energy PS      =      10.04508091 Ry
      -> total E_H with PAW    =     108.44190268 Ry
      -> total E_XC with PAW   =    -149.75659818 Ry

     convergence has been achieved in  11 iterations
 writing file ./scratch/scf-344.save/charge-density
 writing file ./scratch/scf-344.save/charge-density
 writing file ./scratch/scf-344.save/charge-density
 writing file ./scratch/scf-344.save/charge-density
 writing file ./scratch/scf-344.save/charge-density
 writing file ./scratch/scf-344.save/charge-density
 writing file ./scratch/scf-344.save/charge-density
 writing file ./scratch/scf-344.save/charge-density
 writing file ./scratch/scf-344.save/charge-density
 writing file ./scratch/scf-344.save/charge-density
 writing file ./scratch/scf-344.save/charge-density
 writing file ./scratch/scf-344.save/charge-density
 writing file ./scratch/scf-344.save/charge-density
 writing file ./scratch/scf-344.save/charge-density
 writing file ./scratch/scf-344.save/charge-density
 writing file ./scratch/scf-344.save/charge-density
 writing file ./scratch/scf-344.save/charge-density
 writing file ./scratch/scf-344.save/charge-density
 writing file ./scratch/scf-344.save/charge-density
 writing file ./scratch/scf-344.save/charge-density
 writing file ./scratch/scf-344.save/charge-density
 writing file ./scratch/scf-344.save/charge-density
 writing file ./scratch/scf-344.save/charge-density
 writing file ./scratch/scf-344.save/charge-density
 writing file ./scratch/scf-344.save/charge-density
 writing file ./scratch/scf-344.save/charge-density
 writing file ./scratch/scf-344.save/charge-density
 writing file ./scratch/scf-344.save/charge-density
 writing file ./scratch/scf-344.save/charge-density
 writing file ./scratch/scf-344.save/charge-density
 writing file ./scratch/scf-344.save/charge-density
 writing file ./scratch/scf-344.save/charge-density

     Forces acting on atoms (cartesian axes, Ry/au):

     atom    1 type  2   force =    -0.04480492    0.05461478   -0.00039559
     atom    2 type  1   force =     0.02743250   -0.03275483    0.00198244
     atom    3 type  1   force =     0.01440859   -0.00582063   -0.01763909
     atom    4 type  3   force =    -0.00133547   -0.00248536    0.00520486
     atom    5 type  1   force =    -0.00564418   -0.00102363    0.00915742
     atom    6 type  3   force =     0.00238251    0.00078174   -0.00153520
     atom    7 type  3   force =    -0.00194385   -0.00074024   -0.00088955
     atom    8 type  1   force =     0.00563253   -0.00554017   -0.01332965
     atom    9 type  3   force =    -0.00012201   -0.00238214    0.00012419
     atom   10 type  1   force =    -0.01275703    0.00678062    0.01512908
     atom   11 type  1   force =     0.00917073   -0.01031593    0.00221230
     atom   12 type  2   force =    -0.00669717    0.00280832   -0.01233978
     atom   13 type  3   force =    -0.00022264    0.00154301   -0.00533889
     atom   14 type  1   force =     0.00101068   -0.02332925    0.02098425
     atom   15 type  3   force =    -0.00042036   -0.00352964    0.00599333
     atom   16 type  1   force =     0.02906215    0.00960400   -0.02888309
     atom   17 type  1   force =     0.02830931   -0.03983460    0.00639206
     atom   18 type  2   force =    -0.04027414    0.04570244    0.00583323
     atom   19 type  3   force =     0.00375703   -0.00146579   -0.00186080
     atom   20 type  1   force =    -0.00681128    0.01309848    0.01883341
     atom   21 type  3   force =     0.00091016    0.00157916    0.00158570
     atom   22 type  1   force =     0.01102363   -0.01520039   -0.02202052
     atom   23 type  1   force =    -0.00153784    0.00601914    0.00298633
     atom   24 type  2   force =    -0.01052892    0.00189089    0.00781355
     The non-local contrib.  to forces
     atom    1 type  2   force =    -0.28276977    0.27185020    0.01002795
     atom    2 type  1   force =     0.41148765   -0.34256190   -0.03027852
     atom    3 type  1   force =    -0.02377553   -0.05284867   -0.06733824
     atom    4 type  3   force =    -0.06920758   -0.02330468   -0.02942105
     atom    5 type  1   force =    -0.03759275   -0.05980055   -0.03599929
     atom    6 type  3   force =    -0.00599640   -0.06817484   -0.03912511
     atom    7 type  3   force =    -0.00523674   -0.06328300    0.04571857
     atom    8 type  1   force =     0.02961391   -0.04030405    0.02662725
     atom    9 type  3   force =     0.05819685   -0.01820923    0.04995191
     atom   10 type  1   force =     0.02218592   -0.03839866    0.07825824
     atom   11 type  1   force =    -0.36980955   -0.32714324   -0.03154731
     atom   12 type  2   force =     0.30355865    0.25542708   -0.01555288
     atom   13 type  3   force =     0.00627216    0.06981730    0.03567214
     atom   14 type  1   force =     0.04753859    0.01398173    0.06453976
     atom   15 type  3   force =     0.06800737    0.02039659    0.03502329
     atom   16 type  1   force =     0.08694707    0.05231412   -0.01735595
     atom   17 type  1   force =    -0.38529531    0.24556931    0.08465139
     atom   18 type  2   force =     0.33471360   -0.18710957   -0.06647645
     atom   19 type  3   force =     0.00675249    0.06168769   -0.04760413
     atom   20 type  1   force =    -0.02829709    0.04612716   -0.01509788
     atom   21 type  3   force =    -0.05761046    0.01761023   -0.05094906
     atom   22 type  1   force =    -0.00922198    0.02289647   -0.07875569
     atom   23 type  1   force =     0.38749228    0.30232129    0.02764896
     atom   24 type  2   force =    -0.33386964   -0.22240431    0.01568800
     The ionic contribution  to forces
     atom    1 type  2   force =     6.22479246   -3.15047984    0.92669579
     atom    2 type  1   force =     3.87348160   -1.81530804    0.41514678
     atom    3 type  1   force =     5.42570900    1.58044177    2.75977231
     atom    4 type  3   force =     2.34319511    0.71402343    1.05525576
     atom    5 type  1   force =     2.17840214    4.16357679    2.27194118
     atom    6 type  3   force =     0.55383301    1.94754052    1.28285528
     atom    7 type  3   force =    -0.27014823    1.95146540   -1.45419053
     atom    8 type  1   force =    -1.63757285    4.26538369   -2.65157506
     atom    9 type  3   force =    -1.99468705    0.75044369   -1.54749870
     atom   10 type  1   force =    -4.60125281    1.70234823   -3.56945781
     atom   11 type  1   force =    -3.06053666   -1.60013942   -1.03380143
     atom   12 type  2   force =    -6.59221069   -4.58929571   -1.11088466
     atom   13 type  3   force =    -0.22666656   -1.98978180   -1.08109820
     atom   14 type  1   force =    -0.25460426   -3.90335690   -2.29664265
     atom   15 type  3   force =    -1.93928556   -0.77827384   -1.01812965
     atom   16 type  1   force =    -3.75527407   -2.36906022   -1.47187167
     atom   17 type  1   force =    -1.16877072    1.77414891   -0.19363832
     atom   18 type  2   force =    -5.90238532    4.42547209    0.30167815
     atom   19 type  3   force =    -0.10185917   -1.93503574    1.35323211
     atom   20 type  1   force =     0.26579169   -4.26967890    2.00876988
     atom   21 type  3   force =     1.72560194   -0.67904008    1.46481662
     atom   22 type  1   force =     3.09190248   -1.54557574    3.13312139
     atom   23 type  1   force =     1.60927747    1.73788464    0.36949703
     atom   24 type  2   force =     4.21326707    3.61229705    0.08600640
     The local contribution  to forces
     atom    1 type  2   force =    -6.00028622    2.94658836   -0.93667726
     atom    2 type  1   force =    -4.24608527    2.11577859   -0.38388558
     atom    3 type  1   force =    -5.38613298   -1.53365230   -2.70989766
     atom    4 type  3   force =    -2.27531320   -0.69319869   -1.02062611
     atom    5 type  1   force =    -2.14666515   -4.10375059   -2.22677261
     atom    6 type  3   force =    -0.54546735   -1.87857250   -1.24526864
     atom    7 type  3   force =     0.27344449   -1.88891984    1.40758573
     atom    8 type  1   force =     1.61372322   -4.22932714    2.61101994
     atom    9 type  3   force =     1.93637465   -0.73462312    1.49767389
     atom   10 type  1   force =     4.56524390   -1.65743886    3.50583681
     atom   11 type  1   force =     3.42974532    1.90887575    1.06662841
     atom   12 type  2   force =     6.29415391    4.34716500    1.11307124
     atom   13 type  3   force =     0.22015903    1.92152574    1.04009082
     atom   14 type  1   force =     0.20854289    3.86486662    2.25231488
     atom   15 type  3   force =     1.87087393    0.75434618    0.98910434
     atom   16 type  1   force =     3.69677071    2.32592648    1.45980497
     atom   17 type  1   force =     1.57328732   -2.05311552    0.11687707
     atom   18 type  2   force =     5.53911560   -4.19851512   -0.23182072
     atom   19 type  3   force =     0.09886922    1.87188415   -1.30749358
     atom   20 type  1   force =    -0.24441718    4.23532577   -1.97422169
     atom   21 type  3   force =    -1.66707149    0.66300446   -1.41227983
     atom   22 type  1   force =    -3.07047301    1.50756996   -3.07563700
     atom   23 type  1   force =    -1.98814248   -2.02654244   -0.39346299
     atom   24 type  2   force =    -3.90348569   -3.39694296   -0.09296441
     The core correction contribution to forces
     atom    1 type  2   force =     0.01350974   -0.01345815   -0.00044196
     atom    2 type  1   force =    -0.01158163    0.00927434    0.00093194
     atom    3 type  1   force =    -0.00141660    0.00026583   -0.00017762
     atom    4 type  3   force =     0.00000000    0.00000000    0.00000000
     atom    5 type  1   force =     0.00010830   -0.00102387   -0.00004807
     atom    6 type  3   force =     0.00000000    0.00000000    0.00000000
     atom    7 type  3   force =     0.00000000    0.00000000    0.00000000
     atom    8 type  1   force =    -0.00014484   -0.00126380    0.00058446
     atom    9 type  3   force =     0.00000000    0.00000000    0.00000000
     atom   10 type  1   force =     0.00106597    0.00023113    0.00050671
     atom   11 type  1   force =     0.00978536    0.00803231    0.00094051
     atom   12 type  2   force =    -0.01202183   -0.01041436    0.00103858
     atom   13 type  3   force =     0.00000000    0.00000000    0.00000000
     atom   14 type  1   force =    -0.00059505    0.00115411    0.00071876
     atom   15 type  3   force =     0.00000000    0.00000000    0.00000000
     atom   16 type  1   force =     0.00060493    0.00037835    0.00051358
     atom   17 type  1   force =     0.00899367   -0.00646668   -0.00154588
     atom   18 type  2   force =    -0.01166445    0.00579725    0.00237947
     atom   19 type  3   force =     0.00000000    0.00000000    0.00000000
     atom   20 type  1   force =     0.00009879    0.00127782   -0.00063105
     atom   21 type  3   force =     0.00000000    0.00000000    0.00000000
     atom   22 type  1   force =    -0.00113314   -0.00014676   -0.00070660
     atom   23 type  1   force =    -0.01012481   -0.00764318   -0.00067004
     atom   24 type  2   force =     0.01367628    0.00893088   -0.00082220
     The Hubbard contrib.    to forces
     atom    1 type  2   force =     0.00000000    0.00000000    0.00000000
     atom    2 type  1   force =     0.00000000    0.00000000    0.00000000
     atom    3 type  1   force =     0.00000000    0.00000000    0.00000000
     atom    4 type  3   force =     0.00000000    0.00000000    0.00000000
     atom    5 type  1   force =     0.00000000    0.00000000    0.00000000
     atom    6 type  3   force =     0.00000000    0.00000000    0.00000000
     atom    7 type  3   force =     0.00000000    0.00000000    0.00000000
     atom    8 type  1   force =     0.00000000    0.00000000    0.00000000
     atom    9 type  3   force =     0.00000000    0.00000000    0.00000000
     atom   10 type  1   force =     0.00000000    0.00000000    0.00000000
     atom   11 type  1   force =     0.00000000    0.00000000    0.00000000
     atom   12 type  2   force =     0.00000000    0.00000000    0.00000000
     atom   13 type  3   force =     0.00000000    0.00000000    0.00000000
     atom   14 type  1   force =     0.00000000    0.00000000    0.00000000
     atom   15 type  3   force =     0.00000000    0.00000000    0.00000000
     atom   16 type  1   force =     0.00000000    0.00000000    0.00000000
     atom   17 type  1   force =     0.00000000    0.00000000    0.00000000
     atom   18 type  2   force =     0.00000000    0.00000000    0.00000000
     atom   19 type  3   force =     0.00000000    0.00000000    0.00000000
     atom   20 type  1   force =     0.00000000    0.00000000    0.00000000
     atom   21 type  3   force =     0.00000000    0.00000000    0.00000000
     atom   22 type  1   force =     0.00000000    0.00000000    0.00000000
     atom   23 type  1   force =     0.00000000    0.00000000    0.00000000
     atom   24 type  2   force =     0.00000000    0.00000000    0.00000000
     The SCF correction term to forces
     atom    1 type  2   force =    -0.00004871    0.00011195    0.00000006
     atom    2 type  1   force =     0.00013257    0.00005991    0.00006801
     atom    3 type  1   force =     0.00002714   -0.00002953    0.00000231
     atom    4 type  3   force =    -0.00000739   -0.00000769   -0.00000356
     atom    5 type  1   force =     0.00010570   -0.00002768    0.00003639
     atom    6 type  3   force =     0.00001567   -0.00001370    0.00000346
     atom    7 type  3   force =    -0.00000095   -0.00000507   -0.00000314
     atom    8 type  1   force =     0.00001552   -0.00003115    0.00001394
     atom    9 type  3   force =    -0.00000404    0.00000426   -0.00000273
     atom   10 type  1   force =     0.00000242    0.00003652   -0.00001469
     atom   11 type  1   force =    -0.00001131    0.00005641   -0.00000769
     atom   12 type  2   force =    -0.00017479   -0.00007596   -0.00001188
     atom   13 type  3   force =     0.00001515   -0.00002050   -0.00000347
     atom   14 type  1   force =     0.00013095    0.00002293    0.00005367
     atom   15 type  3   force =    -0.00001368   -0.00000083   -0.00000446
     atom   16 type  1   force =     0.00001594    0.00004301    0.00002615
     atom   17 type  1   force =     0.00009676    0.00002712    0.00004798
     atom   18 type  2   force =    -0.00005116    0.00005552    0.00007295
     atom   19 type  3   force =    -0.00000308   -0.00000415    0.00000498
     atom   20 type  1   force =     0.00001493    0.00004436    0.00001433
     atom   21 type  3   force =    -0.00000741    0.00000229   -0.00000185
     atom   22 type  1   force =    -0.00004829    0.00005341   -0.00004245
     atom   23 type  1   force =    -0.00003787   -0.00000343   -0.00002645
     atom   24 type  2   force =    -0.00011452    0.00000795   -0.00009407

     Total force =     0.138890     Total SCF correction =     0.000425

     Writing output data file scf-344.save
 writing file ./scratch/scf-344.save/charge-density
 writing file ./scratch/scf-344.save/charge-density
 writing file ./scratch/scf-344.save/charge-density
 writing file ./scratch/scf-344.save/charge-density
 writing file ./scratch/scf-344.save/charge-density
 writing file ./scratch/scf-344.save/charge-density
 writing file ./scratch/scf-344.save/charge-density
 writing file ./scratch/scf-344.save/charge-density
 writing file ./scratch/scf-344.save/charge-density
 writing file ./scratch/scf-344.save/charge-density
 writing file ./scratch/scf-344.save/charge-density
 writing file ./scratch/scf-344.save/charge-density
 writing file ./scratch/scf-344.save/charge-density
 writing file ./scratch/scf-344.save/charge-density
 writing file ./scratch/scf-344.save/charge-density
 writing file ./scratch/scf-344.save/charge-density
 writing file ./scratch/scf-344.save/charge-density
 writing file ./scratch/scf-344.save/charge-density
 writing file ./scratch/scf-344.save/charge-density
 writing file ./scratch/scf-344.save/charge-density
 writing file ./scratch/scf-344.save/charge-density
 writing file ./scratch/scf-344.save/charge-density
 writing file ./scratch/scf-344.save/charge-density
 writing file ./scratch/scf-344.save/charge-density
 writing file ./scratch/scf-344.save/charge-density
 writing file ./scratch/scf-344.save/charge-density
 writing file ./scratch/scf-344.save/charge-density
 writing file ./scratch/scf-344.save/charge-density
 writing file ./scratch/scf-344.save/charge-density
 writing file ./scratch/scf-344.save/charge-density
 writing file ./scratch/scf-344.save/charge-density
 writing file ./scratch/scf-344.save/charge-density
 
     init_run     :      4.38s CPU      4.59s WALL (       1 calls)
     electrons    :     49.58s CPU     52.39s WALL (       1 calls)
     forces       :      2.32s CPU      2.49s WALL (       1 calls)

     Called by init_run:
     wfcinit      :      1.59s CPU      1.62s WALL (       1 calls)
     wfcinit:atom :      0.02s CPU      0.02s WALL (      16 calls)
     wfcinit:wfcr :      1.47s CPU      1.50s WALL (      16 calls)
     potinit      :      0.89s CPU      0.91s WALL (       1 calls)

     Called by electrons:
     c_bands      :     38.76s CPU     38.99s WALL (      11 calls)
     sum_band     :      6.77s CPU      7.95s WALL (      11 calls)
     v_of_rho     :      0.91s CPU      0.97s WALL (      12 calls)
     v_h          :      0.06s CPU      0.06s WALL (      12 calls)
     v_xc         :      0.92s CPU      0.98s WALL (      13 calls)
     newd         :      1.50s CPU      2.87s WALL (      12 calls)
     PAW_pot      :      1.64s CPU      1.69s WALL (      12 calls)
     mix_rho      :      0.14s CPU      0.14s WALL (      11 calls)

     Called by c_bands:
     init_us_2    :      0.89s CPU      0.88s WALL (     384 calls)
     cegterg      :     36.46s CPU     36.59s WALL (     176 calls)

     Called by sum_band:
     sum_band:bec :      0.02s CPU      0.02s WALL (     176 calls)
     addusdens    :      1.54s CPU      2.68s WALL (      11 calls)

     Called by *egterg:
     h_psi        :     27.04s CPU     27.20s WALL (     863 calls)
     s_psi        :      2.02s CPU      2.00s WALL (     863 calls)
     g_psi        :      0.19s CPU      0.16s WALL (     671 calls)
     cdiaghg      :      3.40s CPU      3.41s WALL (     847 calls)
     cegterg:over :      1.66s CPU      1.68s WALL (     671 calls)
     cegterg:upda :      1.24s CPU      1.25s WALL (     671 calls)
     cegterg:last :      0.42s CPU      0.43s WALL (     192 calls)

     Called by h_psi:
     h_psi:pot    :     26.78s CPU     26.94s WALL (     863 calls)
     h_psi:calbec :      2.19s CPU      2.26s WALL (     863 calls)
     vloc_psi     :     22.56s CPU     22.72s WALL (     863 calls)
     add_vuspsi   :      2.03s CPU      1.96s WALL (     863 calls)

     General routines
     calbec       :      2.94s CPU      3.00s WALL (    1103 calls)
     fft          :      0.72s CPU      0.76s WALL (     199 calls)
     ffts         :      0.02s CPU      0.03s WALL (      23 calls)
     fftw         :     21.01s CPU     21.23s WALL (   55470 calls)
     interpolate  :      0.14s CPU      0.15s WALL (      23 calls)
     davcio       :      0.00s CPU      0.01s WALL (      16 calls)
 
     Parallel routines
     fft_scatter  :      7.56s CPU      7.43s WALL (   55692 calls)

     PAW routines
     PAW_pot      :      1.64s CPU      1.69s WALL (      12 calls)
 
     PWSCF        :  0m56.99s CPU     1m 0.79s WALL

 
   This run was terminated on:  12:29:29  20May2017            

=------------------------------------------------------------------------------=
   JOB DONE.
=------------------------------------------------------------------------------=
