
     Program PWSCF v.6.1 starts on 20May2017 at 14:36:34 

     This program is part of the open-source Quantum ESPRESSO suite
     for quantum simulation of materials; please cite
         "P. Giannozzi et al., J. Phys.:Condens. Matter 21 395502 (2009);
          URL http://www.quantum-espresso.org", 
     in publications or presentations arising from this work. More details at
     http://www.quantum-espresso.org/quote

     Parallel version (MPI & OpenMP), running on      32 processor cores
     Number of MPI processes:                32
     Threads/MPI process:                     1
     R & G space division:  proc/nbgrp/npool/nimage =      32
     Waiting for input...
     Reading input from standard input
Warning: card &IONS ignored
Warning: card     ION_TEMPERATURE   = 'INITIAL' ignored
Warning: card     TEMPW             = 586.D0 ignored
Warning: card     TOLP              = 100.D0 ignored
Warning: card     DELTA_T           = 1.D0 ignored
Warning: card     NRAISE            = 1 ignored
Warning: card / ignored
Warning: card &CELL ignored
Warning: card     CELL_DYNAMICS     = 'BFGS' ignored
Warning: card / ignored

     Current dimensions of program PWSCF are:
     Max number of different atomic species (ntypx) = 10
     Max number of k-points (npk) =  40000
     Max angular momentum in pseudopotentials (lmaxx) =  3
               file C.pbe-n-kjpaw_psl.1.0.0.UPF: wavefunction(s)  2S 2P renormalized
               file Cl.pbe-n-kjpaw_psl.1.0.0.UPF: wavefunction(s)  3S 3P renormalized
               file H.pbe-kjpaw_psl.1.0.0.UPF: wavefunction(s)  1S renormalized

     Subspace diagonalization in iterative solution of the eigenvalue problem:
     a serial algorithm will be used

 
     Parallelization info
     --------------------
     sticks:   dense  smooth     PW     G-vecs:    dense   smooth      PW
     Min         764     305     83                36108     9133    1292
     Max         765     306     84                36110     9135    1293
     Sum       24467    9791   2657              1155489   292295   41363
 


     bravais-lattice index     =            0
     lattice parameter (alat)  =       1.8897  a.u.
     unit-cell volume          =    2163.5316 (a.u.)^3
     number of atoms/cell      =           24
     number of atomic types    =            3
     number of electrons       =        84.00
     number of Kohn-Sham states=           42
     kinetic-energy cutoff     =     100.0000  Ry
     charge density cutoff     =    1000.0000  Ry
     convergence threshold     =      1.0E-07
     mixing beta               =       0.7000
     number of iterations used =            8  plain     mixing
     Exchange-correlation      =  SLA  PW   PBX  PBC ( 1  4  3  4 0 0)

     celldm(1)=   1.889726  celldm(2)=   0.000000  celldm(3)=   0.000000
     celldm(4)=   0.000000  celldm(5)=   0.000000  celldm(6)=   0.000000

     crystal axes: (cart. coord. in units of alat)
               a(1) = (  14.762000   0.000000   0.000000 )  
               a(2) = (   0.000000   5.832000   0.000000 )  
               a(3) = (  -1.563876   0.000000   3.723951 )  

     reciprocal axes: (cart. coord. in units 2 pi/alat)
               b(1) = (  0.067741  0.000000  0.028448 )  
               b(2) = (  0.000000  0.171468  0.000000 )  
               b(3) = (  0.000000  0.000000  0.268532 )  


     PseudoPot. # 1 for  C read from file:
     /global/cscratch1/sd/almno10/.data/PSEUDOPOTENTIALS/C.pbe-n-kjpaw_psl.1.0.0.UPF
     MD5 check sum: 2ba8448e293caca687844dde9a1b88a8
     Pseudo is Projector augmented-wave + core cor, Zval =  4.0
     Generated using "atomic" code by A. Dal Corso  v.5.3.0 svn rev. 11974
     Shape of augmentation charge: PSQ
     Using radial grid of 1073 points,  4 beta functions with: 
                l(1) =   0
                l(2) =   0
                l(3) =   1
                l(4) =   1
     Q(r) pseudized with 0 coefficients 


     PseudoPot. # 2 for Cl read from file:
     /global/cscratch1/sd/almno10/.data/PSEUDOPOTENTIALS/Cl.pbe-n-kjpaw_psl.1.0.0.UPF
     MD5 check sum: dca63699d6b897c5771335df08a09219
     Pseudo is Projector augmented-wave + core cor, Zval =  7.0
     Generated using "atomic" code by A. Dal Corso  v.5.3.0 svn rev. 11974
     Shape of augmentation charge: PSQ
     Using radial grid of 1157 points,  6 beta functions with: 
                l(1) =   0
                l(2) =   0
                l(3) =   1
                l(4) =   1
                l(5) =   2
                l(6) =   2
     Q(r) pseudized with 0 coefficients 


     PseudoPot. # 3 for  H read from file:
     /global/cscratch1/sd/almno10/.data/PSEUDOPOTENTIALS/H.pbe-kjpaw_psl.1.0.0.UPF
     MD5 check sum: bc0feb48a24907a0b97fa6ee2d589a29
     Pseudo is Projector augmented-wave, Zval =  1.0
     Generated using "atomic" code by A. Dal Corso  v.5.3.0 svn rev. 11974
     Shape of augmentation charge: PSQ
     Using radial grid of  929 points,  2 beta functions with: 
                l(1) =   0
                l(2) =   0
     Q(r) pseudized with 0 coefficients 


     atomic species   valence    mass     pseudopotential
        C              4.00    12.01100      C( 1.00)
        Cl             7.00    35.45270     Cl( 1.00)
        H              1.00     1.00790      H( 1.00)

     No symmetry found


                                    s                        frac. trans.

      isym =  1     identity                                     

 cryst.   s( 1) = (     1          0          0      )
                  (     0          1          0      )
                  (     0          0          1      )

 cart.    s( 1) = (  1.0000000  0.0000000 -0.0000000 )
                  (  0.0000000  1.0000000  0.0000000 )
                  (  0.0000000  0.0000000  1.0000000 )


   Cartesian axes

     site n.     atom                  positions (alat units)
         1           Cl  tau(   1) = (  16.2058053   0.6645290   1.8273763  )
         2           C   tau(   2) = (  14.9375790   1.8571009   1.7847457  )
         3           C   tau(   3) = (  15.1407884   3.0255767   2.5185383  )
         4           H   tau(   4) = (  16.1098697   3.2798575   2.9450722  )
         5           C   tau(   5) = (  14.1258287   3.9799902   2.4761145  )
         6           H   tau(   6) = (  14.2306311   4.9082369   3.0356022  )
         7           H   tau(   7) = (   6.8148503   2.2424203   0.5499080  )
         8           C   tau(   8) = (   6.7166454   1.3400966   1.1488894  )
         9           H   tau(   9) = (   4.8793777   0.7264620   0.1993035  )
        10           C   tau(  10) = (   5.6566331   0.4631499   0.9156614  )
        11           C   tau(  11) = (   5.5843117  -0.6820322   1.7085104  )
        12           Cl  tau(  12) = (   4.3355659  -1.8758133   1.4509412  )
        13           H   tau(  13) = (  13.5934403   0.6714876   0.6020843  )
        14           C   tau(  14) = (  13.7194615   1.5994065   1.1569789  )
        15           H   tau(  15) = (  11.7250011   2.2974964   0.7342474  )
        16           C   tau(  16) = (  12.6670541   2.5112228   1.2335512  )
        17           C   tau(  17) = (  12.8760416   3.6738918   1.9401933  )
        18           Cl  tau(  18) = (  11.5623771   4.7672171   2.1002739  )
        19           H   tau(  19) = (   6.4611512  -1.8617427   3.2728328  )
        20           C   tau(  20) = (   6.5600324  -0.9630477   2.6655753  )
        21           H   tau(  21) = (   8.3976709  -0.3503030   3.6067176  )
        22           C   tau(  22) = (   7.6501676  -0.1163388   2.8521127  )
        23           C   tau(  23) = (   7.7258950   1.0233352   2.0553866  )
        24           Cl  tau(  24) = (   9.0961977   2.1956646   2.0297605  )

   Crystallographic axes

     site n.     atom                  positions (cryst. coord.)
         1           Cl  tau(   1) = (  1.1497909  0.1139453  0.4907089  )
         2           C   tau(   2) = (  1.0626666  0.3184329  0.4792613  )
         3           C   tau(   3) = (  1.0973073  0.5187889  0.6763081  )
         4           H   tau(   4) = (  1.1750884  0.5623898  0.7908460  )
         5           C   tau(   5) = (  1.0273455  0.6824400  0.6649159  )
         6           H   tau(   6) = (  1.0503613  0.8416044  0.8151562  )
         7           H   tau(   7) = (  0.4772920  0.3845028  0.1476679  )
         8           C   tau(   8) = (  0.4876793  0.2297834  0.3085135  )
         9           H   tau(   9) = (  0.3362062  0.1245648  0.0535194  )
        10           C   tau(  10) = (  0.4092376  0.0794153  0.2458844  )
        11           C   tau(  11) = (  0.4268935 -0.1169465  0.4587897  )
        12           Cl  tau(  12) = (  0.3349742 -0.3216415  0.3896241  )
        13           H   tau(  13) = (  0.9379682  0.1151385  0.1616789  )
        14           C   tau(  14) = (  0.9622907  0.2742467  0.3106858  )
        15           H   tau(  15) = (  0.8151571  0.3939466  0.1971689  )
        16           C   tau(  16) = (  0.8931774  0.4305938  0.3312479  )
        17           C   tau(  17) = (  0.9274371  0.6299540  0.5210039  )
        18           Cl  tau(  18) = (  0.8430015  0.8174241  0.5639907  )
        19           H   tau(  19) = (  0.5307939 -0.3192289  0.8788602  )
        20           C   tau(  20) = (  0.5202169 -0.1651316  0.7157922  )
        21           H   tau(  21) = (  0.6714750 -0.0600657  0.9685190  )
        22           C   tau(  22) = (  0.5993710 -0.0199484  0.7658834  )
        23           C   tau(  23) = (  0.5818355  0.1754690  0.5519370  )
        24           Cl  tau(  24) = (  0.6739329  0.3764857  0.5450556  )

     number of k points=    16
                       cart. coord. in units 2pi/alat
        k(    1) = (   0.0169354   0.0214335   0.0406785), wk =   0.1250000
        k(    2) = (   0.0169354   0.0214335   0.1078115), wk =   0.1250000
        k(    3) = (   0.0169354   0.0214335  -0.0935875), wk =   0.1250000
        k(    4) = (   0.0169354   0.0214335  -0.0264545), wk =   0.1250000
        k(    5) = (   0.0169354   0.0643004   0.0406785), wk =   0.1250000
        k(    6) = (   0.0169354   0.0643004   0.1078115), wk =   0.1250000
        k(    7) = (   0.0169354   0.0643004  -0.0935875), wk =   0.1250000
        k(    8) = (   0.0169354   0.0643004  -0.0264545), wk =   0.1250000
        k(    9) = (  -0.0169354   0.0214335  -0.0406785), wk =   0.1250000
        k(   10) = (  -0.0169354   0.0214335  -0.1078115), wk =   0.1250000
        k(   11) = (  -0.0169354   0.0214335   0.0935875), wk =   0.1250000
        k(   12) = (  -0.0169354   0.0214335   0.0264545), wk =   0.1250000
        k(   13) = (  -0.0169354   0.0643004  -0.0406785), wk =   0.1250000
        k(   14) = (  -0.0169354   0.0643004  -0.1078115), wk =   0.1250000
        k(   15) = (  -0.0169354   0.0643004   0.0935875), wk =   0.1250000
        k(   16) = (  -0.0169354   0.0643004   0.0264545), wk =   0.1250000

                       cryst. coord.
        k(    1) = (   0.2500000   0.1250000   0.1250000), wk =   0.1250000
        k(    2) = (   0.2500000   0.1250000   0.3750000), wk =   0.1250000
        k(    3) = (   0.2500000   0.1250000  -0.3750000), wk =   0.1250000
        k(    4) = (   0.2500000   0.1250000  -0.1250000), wk =   0.1250000
        k(    5) = (   0.2500000   0.3750000   0.1250000), wk =   0.1250000
        k(    6) = (   0.2500000   0.3750000   0.3750000), wk =   0.1250000
        k(    7) = (   0.2500000   0.3750000  -0.3750000), wk =   0.1250000
        k(    8) = (   0.2500000   0.3750000  -0.1250000), wk =   0.1250000
        k(    9) = (  -0.2500000   0.1250000  -0.1250000), wk =   0.1250000
        k(   10) = (  -0.2500000   0.1250000  -0.3750000), wk =   0.1250000
        k(   11) = (  -0.2500000   0.1250000   0.3750000), wk =   0.1250000
        k(   12) = (  -0.2500000   0.1250000   0.1250000), wk =   0.1250000
        k(   13) = (  -0.2500000   0.3750000  -0.1250000), wk =   0.1250000
        k(   14) = (  -0.2500000   0.3750000  -0.3750000), wk =   0.1250000
        k(   15) = (  -0.2500000   0.3750000   0.3750000), wk =   0.1250000
        k(   16) = (  -0.2500000   0.3750000   0.1250000), wk =   0.1250000

     Dense  grid:  1155489 G-vectors     FFT dimensions: ( 288, 120,  80)

     Smooth grid:   292295 G-vectors     FFT dimensions: ( 180,  72,  50)

     Estimated max dynamical RAM per process >     147.21MB

     Estimated total allocated dynamical RAM >    4710.62MB

     Initial potential from superposition of free atoms

     starting charge   83.99939, renormalised to   84.00000
     Starting wfc are   72 randomized atomic wfcs
     Checking if some PAW data can be deallocated... 
       node    0, deallocated PAW data for type:  1
       node    0, deallocated PAW data for type:  3
       node    1, deallocated PAW data for type:  1
       node    1, deallocated PAW data for type:  3
       node    2, deallocated PAW data for type:  2
       node    2, deallocated PAW data for type:  3
       node    3, deallocated PAW data for type:  2
       node    3, deallocated PAW data for type:  3
       node    4, deallocated PAW data for type:  2
       node    4, deallocated PAW data for type:  3
       node    5, deallocated PAW data for type:  2
       node    5, deallocated PAW data for type:  3
       node    6, deallocated PAW data for type:  1
       node    6, deallocated PAW data for type:  2
       node    7, deallocated PAW data for type:  1
       node    7, deallocated PAW data for type:  2
       node    8, deallocated PAW data for type:  2
       node    8, deallocated PAW data for type:  3
       node    9, deallocated PAW data for type:  2
       node    9, deallocated PAW data for type:  3
       node   10, deallocated PAW data for type:  1
       node   10, deallocated PAW data for type:  2
       node   11, deallocated PAW data for type:  1
       node   11, deallocated PAW data for type:  2
       node   12, deallocated PAW data for type:  1
       node   12, deallocated PAW data for type:  2
       node   13, deallocated PAW data for type:  1
       node   13, deallocated PAW data for type:  2
       node   14, deallocated PAW data for type:  2
       node   14, deallocated PAW data for type:  3
       node   15, deallocated PAW data for type:  2
       node   15, deallocated PAW data for type:  3
       node   16, deallocated PAW data for type:  1
       node   16, deallocated PAW data for type:  2
       node   17, deallocated PAW data for type:  2
       node   17, deallocated PAW data for type:  3
       node   18, deallocated PAW data for type:  2
       node   18, deallocated PAW data for type:  3
       node   19, deallocated PAW data for type:  1
       node   19, deallocated PAW data for type:  3
       node   20, deallocated PAW data for type:  1
       node   20, deallocated PAW data for type:  2
       node   21, deallocated PAW data for type:  2
       node   21, deallocated PAW data for type:  3
       node   22, deallocated PAW data for type:  1
       node   22, deallocated PAW data for type:  2
       node   23, deallocated PAW data for type:  2
       node   23, deallocated PAW data for type:  3
       node   24, deallocated PAW data for type:  2
       node   24, deallocated PAW data for type:  3
       node   25, deallocated PAW data for type:  1
       node   25, deallocated PAW data for type:  3
       node   26, deallocated PAW data for type:  1
       node   26, deallocated PAW data for type:  2
       node   27, deallocated PAW data for type:  2
       node   27, deallocated PAW data for type:  3
       node   28, deallocated PAW data for type:  1
       node   28, deallocated PAW data for type:  2
       node   29, deallocated PAW data for type:  2
       node   29, deallocated PAW data for type:  3
       node   30, deallocated PAW data for type:  2
       node   30, deallocated PAW data for type:  3
       node   31, deallocated PAW data for type:  1
       node   31, deallocated PAW data for type:  3

     total cpu time spent up to now is        5.2 secs

     per-process dynamical memory:    20.7 Mb

     Self-consistent Calculation

     iteration #  1     ecut=   100.00 Ry     beta= 0.70
     Davidson diagonalization with overlap
     ethr =  1.00E-04,  avg # of iterations =  5.0

     total cpu time spent up to now is       11.8 secs

     total energy              =    -547.11876705 Ry
     Harris-Foulkes estimate   =    -549.00322238 Ry
     estimated scf accuracy    <       2.75210496 Ry

     iteration #  2     ecut=   100.00 Ry     beta= 0.70
     Davidson diagonalization with overlap
     ethr =  3.28E-03,  avg # of iterations =  3.0

     total cpu time spent up to now is       16.5 secs

     total energy              =    -547.52593748 Ry
     Harris-Foulkes estimate   =    -548.61713470 Ry
     estimated scf accuracy    <       1.97154306 Ry

     iteration #  3     ecut=   100.00 Ry     beta= 0.70
     Davidson diagonalization with overlap
     ethr =  2.35E-03,  avg # of iterations =  3.0

     total cpu time spent up to now is       20.9 secs

     total energy              =    -548.01700967 Ry
     Harris-Foulkes estimate   =    -548.05688724 Ry
     estimated scf accuracy    <       0.08058999 Ry

     iteration #  4     ecut=   100.00 Ry     beta= 0.70
     Davidson diagonalization with overlap
     ethr =  9.59E-05,  avg # of iterations =  3.8

     total cpu time spent up to now is       25.5 secs

     total energy              =    -548.04308091 Ry
     Harris-Foulkes estimate   =    -548.05314991 Ry
     estimated scf accuracy    <       0.01978705 Ry

     iteration #  5     ecut=   100.00 Ry     beta= 0.70
     Davidson diagonalization with overlap
     ethr =  2.36E-05,  avg # of iterations =  3.0

     total cpu time spent up to now is       29.8 secs

     total energy              =    -548.04700501 Ry
     Harris-Foulkes estimate   =    -548.04781884 Ry
     estimated scf accuracy    <       0.00149469 Ry

     iteration #  6     ecut=   100.00 Ry     beta= 0.70
     Davidson diagonalization with overlap
     ethr =  1.78E-06,  avg # of iterations =  4.0

     total cpu time spent up to now is       34.5 secs

     total energy              =    -548.04725305 Ry
     Harris-Foulkes estimate   =    -548.04789208 Ry
     estimated scf accuracy    <       0.00164091 Ry

     iteration #  7     ecut=   100.00 Ry     beta= 0.70
     Davidson diagonalization with overlap
     ethr =  1.78E-06,  avg # of iterations =  4.0

     total cpu time spent up to now is       38.7 secs

     total energy              =    -548.04757668 Ry
     Harris-Foulkes estimate   =    -548.04761051 Ry
     estimated scf accuracy    <       0.00009404 Ry

     iteration #  8     ecut=   100.00 Ry     beta= 0.70
     Davidson diagonalization with overlap
     ethr =  1.12E-07,  avg # of iterations =  4.0

     total cpu time spent up to now is       43.1 secs

     total energy              =    -548.04759633 Ry
     Harris-Foulkes estimate   =    -548.04760126 Ry
     estimated scf accuracy    <       0.00001072 Ry

     iteration #  9     ecut=   100.00 Ry     beta= 0.70
     Davidson diagonalization with overlap
     ethr =  1.28E-08,  avg # of iterations =  4.0

     total cpu time spent up to now is       47.7 secs

     total energy              =    -548.04759891 Ry
     Harris-Foulkes estimate   =    -548.04760017 Ry
     estimated scf accuracy    <       0.00000290 Ry

     iteration # 10     ecut=   100.00 Ry     beta= 0.70
     Davidson diagonalization with overlap
     ethr =  3.45E-09,  avg # of iterations =  4.0

     total cpu time spent up to now is       52.2 secs

     total energy              =    -548.04759951 Ry
     Harris-Foulkes estimate   =    -548.04759962 Ry
     estimated scf accuracy    <       0.00000025 Ry

     iteration # 11     ecut=   100.00 Ry     beta= 0.70
     Davidson diagonalization with overlap
     ethr =  3.01E-10,  avg # of iterations =  4.0

     total cpu time spent up to now is       56.8 secs

     End of self-consistent calculation

          k = 0.0169 0.0214 0.0407 ( 36525 PWs)   bands (ev):

   -16.0810 -16.0610 -15.4070 -15.2790 -13.9865 -13.8636 -12.4258 -12.2042
   -11.4020 -11.1261  -9.0635  -8.8768  -8.3138  -8.0720  -6.4111  -6.2401
    -5.3820  -5.2254  -4.9815  -4.8588  -4.2551  -4.1272  -3.9557  -3.8546
    -3.2371  -3.1492  -2.7426  -2.6093  -2.4681  -2.3394  -2.1895  -2.0853
    -1.2310  -1.1136  -1.0365  -0.9802  -0.8755  -0.7297  -0.2660   0.2255
     0.6288   0.8072

     occupation numbers 
     1.0000   1.0000   1.0000   1.0000   1.0000   1.0000   1.0000   1.0000
     1.0000   1.0000   1.0000   1.0000   1.0000   1.0000   1.0000   1.0000
     1.0000   1.0000   1.0000   1.0000   1.0000   1.0000   1.0000   1.0000
     1.0000   1.0000   1.0000   1.0000   1.0000   1.0000   1.0000   1.0000
     1.0000   1.0000   1.0000   1.0000   1.0000   1.0000   1.0000   1.0000
     1.0000   1.0000

          k = 0.0169 0.0214 0.1078 ( 36561 PWs)   bands (ev):

   -15.9966 -15.9818 -15.3659 -15.2279 -13.9524 -13.8482 -12.4638 -12.1810
   -11.3691 -11.1186  -9.0467  -8.8397  -8.3147  -8.0174  -6.4201  -6.2504
    -5.3916  -5.2398  -5.0733  -4.9054  -4.3123  -4.2554  -4.0597  -3.9602
    -3.7579  -3.6366  -2.8611  -2.7409  -2.5859  -2.4405  -2.3936  -2.2061
    -1.3946  -1.2469  -1.1555  -1.0383  -0.8608  -0.7743  -0.1715  -0.0477
     0.4975   0.8628

     occupation numbers 
     1.0000   1.0000   1.0000   1.0000   1.0000   1.0000   1.0000   1.0000
     1.0000   1.0000   1.0000   1.0000   1.0000   1.0000   1.0000   1.0000
     1.0000   1.0000   1.0000   1.0000   1.0000   1.0000   1.0000   1.0000
     1.0000   1.0000   1.0000   1.0000   1.0000   1.0000   1.0000   1.0000
     1.0000   1.0000   1.0000   1.0000   1.0000   1.0000   1.0000   1.0000
     1.0000   1.0000

          k = 0.0169 0.0214-0.0936 ( 36547 PWs)   bands (ev):

   -15.9989 -15.9820 -15.3627 -15.2281 -13.9528 -13.8430 -12.4726 -12.1749
   -11.3671 -11.1351  -9.0152  -8.8639  -8.2753  -8.0652  -6.3773  -6.2356
    -5.3834  -5.2400  -5.1193  -4.8661  -4.3526  -4.2674  -4.1090  -3.9862
    -3.8037  -3.5951  -2.7496  -2.6857  -2.6169  -2.4810  -2.3559  -2.1932
    -1.3590  -1.2226  -1.1151  -1.0803  -0.9373  -0.8250  -0.1500  -0.0997
     0.4843   0.8764

     occupation numbers 
     1.0000   1.0000   1.0000   1.0000   1.0000   1.0000   1.0000   1.0000
     1.0000   1.0000   1.0000   1.0000   1.0000   1.0000   1.0000   1.0000
     1.0000   1.0000   1.0000   1.0000   1.0000   1.0000   1.0000   1.0000
     1.0000   1.0000   1.0000   1.0000   1.0000   1.0000   1.0000   1.0000
     1.0000   1.0000   1.0000   1.0000   1.0000   1.0000   1.0000   1.0000
     1.0000   1.0000

          k = 0.0169 0.0214-0.0265 ( 36551 PWs)   bands (ev):

   -16.0891 -16.0542 -15.4070 -15.2775 -13.9892 -13.8551 -12.4352 -12.2003
   -11.4001 -11.1387  -9.0380  -8.9000  -8.2989  -8.0802  -6.4418  -6.1484
    -5.3829  -5.2361  -5.1184  -4.7086  -4.3711  -4.1133  -4.0409  -3.7503
    -3.2716  -3.1278  -2.7739  -2.5594  -2.4702  -2.2409  -2.1982  -2.0835
    -1.2259  -1.1340  -1.0161  -0.9797  -0.8886  -0.7941  -0.2666   0.1731
     0.6276   0.8198

     occupation numbers 
     1.0000   1.0000   1.0000   1.0000   1.0000   1.0000   1.0000   1.0000
     1.0000   1.0000   1.0000   1.0000   1.0000   1.0000   1.0000   1.0000
     1.0000   1.0000   1.0000   1.0000   1.0000   1.0000   1.0000   1.0000
     1.0000   1.0000   1.0000   1.0000   1.0000   1.0000   1.0000   1.0000
     1.0000   1.0000   1.0000   1.0000   1.0000   1.0000   1.0000   1.0000
     1.0000   1.0000

          k = 0.0169 0.0643 0.0407 ( 36518 PWs)   bands (ev):

   -16.0466 -16.0190 -15.4240 -15.2940 -14.0236 -13.9235 -12.4585 -12.2539
   -11.4024 -11.1039  -8.9876  -8.7807  -8.2307  -7.9387  -6.4258  -6.3168
    -5.3645  -5.2174  -5.0172  -4.9648  -4.3276  -4.2860  -4.0426  -3.8942
    -3.3193  -3.2290  -2.6807  -2.5894  -2.4451  -2.3635  -2.1358  -2.1069
    -1.1178  -0.9784  -0.9226  -0.8264  -0.7855  -0.7262  -0.2229   0.2577
     0.6548   0.7913

     occupation numbers 
     1.0000   1.0000   1.0000   1.0000   1.0000   1.0000   1.0000   1.0000
     1.0000   1.0000   1.0000   1.0000   1.0000   1.0000   1.0000   1.0000
     1.0000   1.0000   1.0000   1.0000   1.0000   1.0000   1.0000   1.0000
     1.0000   1.0000   1.0000   1.0000   1.0000   1.0000   1.0000   1.0000
     1.0000   1.0000   1.0000   1.0000   1.0000   1.0000   1.0000   1.0000
     1.0000   1.0000

          k = 0.0169 0.0643 0.1078 ( 36558 PWs)   bands (ev):

   -15.9721 -15.9525 -15.3730 -15.2372 -13.9760 -13.8916 -12.4726 -12.2102
   -11.3728 -11.1300  -9.0322  -8.7876  -8.2942  -7.9766  -6.4238  -6.2724
    -5.3880  -5.2145  -4.9599  -4.8361  -4.3468  -4.1962  -4.0243  -3.9880
    -3.9332  -3.8032  -2.7828  -2.6997  -2.6387  -2.4994  -2.4162  -2.2823
    -1.3374  -1.1881  -1.0342  -1.0055  -0.9143  -0.7542  -0.0075   0.0920
     0.4518   0.8192

     occupation numbers 
     1.0000   1.0000   1.0000   1.0000   1.0000   1.0000   1.0000   1.0000
     1.0000   1.0000   1.0000   1.0000   1.0000   1.0000   1.0000   1.0000
     1.0000   1.0000   1.0000   1.0000   1.0000   1.0000   1.0000   1.0000
     1.0000   1.0000   1.0000   1.0000   1.0000   1.0000   1.0000   1.0000
     1.0000   1.0000   1.0000   1.0000   1.0000   1.0000   1.0000   1.0000
     1.0000   1.0000

          k = 0.0169 0.0643-0.0936 ( 36547 PWs)   bands (ev):

   -15.9700 -15.9576 -15.3677 -15.2390 -13.9793 -13.8834 -12.4817 -12.2043
   -11.3716 -11.1447  -9.0018  -8.8105  -8.2595  -8.0215  -6.4051  -6.2293
    -5.3897  -5.2146  -5.0076  -4.8028  -4.3091  -4.2658  -4.1241  -3.9690
    -3.9635  -3.7416  -2.7434  -2.6925  -2.6611  -2.5653  -2.3531  -2.1726
    -1.2828  -1.1682  -1.0917  -1.0278  -0.9514  -0.8037   0.0040   0.0421
     0.4473   0.8347

     occupation numbers 
     1.0000   1.0000   1.0000   1.0000   1.0000   1.0000   1.0000   1.0000
     1.0000   1.0000   1.0000   1.0000   1.0000   1.0000   1.0000   1.0000
     1.0000   1.0000   1.0000   1.0000   1.0000   1.0000   1.0000   1.0000
     1.0000   1.0000   1.0000   1.0000   1.0000   1.0000   1.0000   1.0000
     1.0000   1.0000   1.0000   1.0000   1.0000   1.0000   1.0000   1.0000
     1.0000   1.0000

          k = 0.0169 0.0643-0.0265 ( 36489 PWs)   bands (ev):

   -16.0455 -16.0228 -15.4196 -15.2953 -14.0269 -13.9159 -12.4669 -12.2457
   -11.4044 -11.1194  -8.9590  -8.7970  -8.1944  -7.9785  -6.4390  -6.2846
    -5.3580  -5.1943  -5.0791  -4.8521  -4.3878  -4.2201  -4.2067  -3.9278
    -3.3483  -3.1890  -2.6317  -2.4814  -2.4122  -2.3754  -2.1686  -2.0911
    -1.1263  -0.9824  -0.9320  -0.8621  -0.7897  -0.7303  -0.2364   0.2133
     0.6542   0.7990

     occupation numbers 
     1.0000   1.0000   1.0000   1.0000   1.0000   1.0000   1.0000   1.0000
     1.0000   1.0000   1.0000   1.0000   1.0000   1.0000   1.0000   1.0000
     1.0000   1.0000   1.0000   1.0000   1.0000   1.0000   1.0000   1.0000
     1.0000   1.0000   1.0000   1.0000   1.0000   1.0000   1.0000   1.0000
     1.0000   1.0000   1.0000   1.0000   1.0000   1.0000   1.0000   1.0000
     1.0000   1.0000

          k =-0.0169 0.0214-0.0407 ( 36525 PWs)   bands (ev):

   -16.0809 -16.0633 -15.4034 -15.2801 -13.9896 -13.8552 -12.4347 -12.1994
   -11.4004 -11.1402  -9.0326  -8.9013  -8.2821  -8.1081  -6.4008  -6.1897
    -5.3739  -5.2343  -5.0344  -4.8342  -4.2606  -4.1675  -4.0791  -3.7663
    -3.2697  -3.1167  -2.7103  -2.5905  -2.4597  -2.2696  -2.1673  -2.0922
    -1.2118  -1.1177  -1.0673  -0.9922  -0.8687  -0.7944  -0.2675   0.1713
     0.6255   0.8239

     occupation numbers 
     1.0000   1.0000   1.0000   1.0000   1.0000   1.0000   1.0000   1.0000
     1.0000   1.0000   1.0000   1.0000   1.0000   1.0000   1.0000   1.0000
     1.0000   1.0000   1.0000   1.0000   1.0000   1.0000   1.0000   1.0000
     1.0000   1.0000   1.0000   1.0000   1.0000   1.0000   1.0000   1.0000
     1.0000   1.0000   1.0000   1.0000   1.0000   1.0000   1.0000   1.0000
     1.0000   1.0000

          k =-0.0169 0.0214-0.1078 ( 36561 PWs)   bands (ev):

   -15.9933 -15.9879 -15.3608 -15.2297 -13.9562 -13.8394 -12.4728 -12.1747
   -11.3695 -11.1330  -9.0175  -8.8617  -8.2788  -8.0592  -6.4019  -6.2124
    -5.3851  -5.2419  -5.1131  -4.8879  -4.3344  -4.2724  -4.1069  -3.9512
    -3.8087  -3.6011  -2.8446  -2.7207  -2.5760  -2.4120  -2.3712  -2.1534
    -1.3920  -1.2301  -1.1589  -1.0153  -0.9464  -0.8224  -0.1503  -0.1047
     0.4883   0.8789

     occupation numbers 
     1.0000   1.0000   1.0000   1.0000   1.0000   1.0000   1.0000   1.0000
     1.0000   1.0000   1.0000   1.0000   1.0000   1.0000   1.0000   1.0000
     1.0000   1.0000   1.0000   1.0000   1.0000   1.0000   1.0000   1.0000
     1.0000   1.0000   1.0000   1.0000   1.0000   1.0000   1.0000   1.0000
     1.0000   1.0000   1.0000   1.0000   1.0000   1.0000   1.0000   1.0000
     1.0000   1.0000

          k =-0.0169 0.0214 0.0936 ( 36547 PWs)   bands (ev):

   -15.9986 -15.9796 -15.3674 -15.2265 -13.9493 -13.8518 -12.4638 -12.1803
   -11.3682 -11.1203  -9.0451  -8.8398  -8.3118  -8.0237  -6.3899  -6.2841
    -5.3869  -5.2418  -5.0677  -4.8875  -4.3285  -4.1958  -4.1286  -3.9932
    -3.7482  -3.6348  -2.7554  -2.7117  -2.6619  -2.4479  -2.4223  -2.2178
    -1.3726  -1.2242  -1.1465  -1.0686  -0.8692  -0.7760  -0.1687  -0.0449
     0.4940   0.8620

     occupation numbers 
     1.0000   1.0000   1.0000   1.0000   1.0000   1.0000   1.0000   1.0000
     1.0000   1.0000   1.0000   1.0000   1.0000   1.0000   1.0000   1.0000
     1.0000   1.0000   1.0000   1.0000   1.0000   1.0000   1.0000   1.0000
     1.0000   1.0000   1.0000   1.0000   1.0000   1.0000   1.0000   1.0000
     1.0000   1.0000   1.0000   1.0000   1.0000   1.0000   1.0000   1.0000
     1.0000   1.0000

          k =-0.0169 0.0214 0.0265 ( 36551 PWs)   bands (ev):

   -16.0899 -16.0510 -15.4112 -15.2760 -13.9850 -13.8645 -12.4259 -12.2065
   -11.3992 -11.1253  -9.0669  -8.8811  -8.3250  -8.0471  -6.4539  -6.1855
    -5.3885  -5.2265  -5.1370  -4.6846  -4.3751  -4.0222  -3.9573  -3.8034
    -3.2628  -3.1476  -2.8275  -2.6120  -2.4320  -2.3230  -2.2126  -2.0848
    -1.2182  -1.1349  -1.0388  -0.9273  -0.9010  -0.7261  -0.2673   0.2243
     0.6304   0.8067

     occupation numbers 
     1.0000   1.0000   1.0000   1.0000   1.0000   1.0000   1.0000   1.0000
     1.0000   1.0000   1.0000   1.0000   1.0000   1.0000   1.0000   1.0000
     1.0000   1.0000   1.0000   1.0000   1.0000   1.0000   1.0000   1.0000
     1.0000   1.0000   1.0000   1.0000   1.0000   1.0000   1.0000   1.0000
     1.0000   1.0000   1.0000   1.0000   1.0000   1.0000   1.0000   1.0000
     1.0000   1.0000

          k =-0.0169 0.0643-0.0407 ( 36518 PWs)   bands (ev):

   -16.0446 -16.0237 -15.4193 -15.2957 -14.0263 -13.9159 -12.4672 -12.2484
   -11.4007 -11.1189  -8.9590  -8.8031  -8.1930  -7.9833  -6.4072  -6.2745
    -5.3640  -5.1932  -5.1144  -4.9220  -4.3680  -4.3247  -4.0437  -3.8793
    -3.3543  -3.1878  -2.6796  -2.5781  -2.3870  -2.3240  -2.1611  -2.0862
    -1.0334  -1.0044  -0.9560  -0.8755  -0.8026  -0.7443  -0.2361   0.2107
     0.6511   0.8056

     occupation numbers 
     1.0000   1.0000   1.0000   1.0000   1.0000   1.0000   1.0000   1.0000
     1.0000   1.0000   1.0000   1.0000   1.0000   1.0000   1.0000   1.0000
     1.0000   1.0000   1.0000   1.0000   1.0000   1.0000   1.0000   1.0000
     1.0000   1.0000   1.0000   1.0000   1.0000   1.0000   1.0000   1.0000
     1.0000   1.0000   1.0000   1.0000   1.0000   1.0000   1.0000   1.0000
     1.0000   1.0000

          k =-0.0169 0.0643-0.1078 ( 36558 PWs)   bands (ev):

   -15.9677 -15.9600 -15.3673 -15.2392 -13.9799 -13.8829 -12.4816 -12.2034
   -11.3730 -11.1446  -9.0021  -8.8099  -8.2588  -8.0201  -6.4119  -6.2333
    -5.3818  -5.2070  -4.9972  -4.8071  -4.3282  -4.2302  -4.1507  -3.9935
    -3.9495  -3.7552  -2.7468  -2.6762  -2.5966  -2.5206  -2.4421  -2.1779
    -1.3315  -1.1863  -1.0745  -0.9991  -0.9414  -0.7954   0.0052   0.0405
     0.4470   0.8322

     occupation numbers 
     1.0000   1.0000   1.0000   1.0000   1.0000   1.0000   1.0000   1.0000
     1.0000   1.0000   1.0000   1.0000   1.0000   1.0000   1.0000   1.0000
     1.0000   1.0000   1.0000   1.0000   1.0000   1.0000   1.0000   1.0000
     1.0000   1.0000   1.0000   1.0000   1.0000   1.0000   1.0000   1.0000
     1.0000   1.0000   1.0000   1.0000   1.0000   1.0000   1.0000   1.0000
     1.0000   1.0000

          k =-0.0169 0.0643 0.0936 ( 36547 PWs)   bands (ev):

   -15.9717 -15.9528 -15.3731 -15.2370 -13.9759 -13.8916 -12.4728 -12.2101
   -11.3728 -11.1297  -9.0323  -8.7862  -8.2953  -7.9788  -6.4166  -6.2744
    -5.3923  -5.2231  -4.9653  -4.8269  -4.3160  -4.2278  -4.0138  -3.9736
    -3.9499  -3.7884  -2.7794  -2.7246  -2.6918  -2.5411  -2.3501  -2.2509
    -1.2900  -1.1769  -1.0699  -0.9939  -0.9300  -0.7776  -0.0045   0.0886
     0.4554   0.8220

     occupation numbers 
     1.0000   1.0000   1.0000   1.0000   1.0000   1.0000   1.0000   1.0000
     1.0000   1.0000   1.0000   1.0000   1.0000   1.0000   1.0000   1.0000
     1.0000   1.0000   1.0000   1.0000   1.0000   1.0000   1.0000   1.0000
     1.0000   1.0000   1.0000   1.0000   1.0000   1.0000   1.0000   1.0000
     1.0000   1.0000   1.0000   1.0000   1.0000   1.0000   1.0000   1.0000
     1.0000   1.0000

          k =-0.0169 0.0643 0.0265 ( 36489 PWs)   bands (ev):

   -16.0488 -16.0166 -15.4248 -15.2934 -14.0228 -13.9246 -12.4579 -12.2529
   -11.4035 -11.1053  -8.9867  -8.7795  -8.2307  -7.9322  -6.4589  -6.3146
    -5.3602  -5.2166  -5.0289  -4.8668  -4.3961  -4.2485  -4.0896  -3.9071
    -3.3232  -3.2285  -2.6779  -2.5023  -2.4689  -2.3598  -2.1747  -2.1079
    -1.1342  -1.0203  -0.9273  -0.8080  -0.7787  -0.6861  -0.2245   0.2561
     0.6521   0.7937

     occupation numbers 
     1.0000   1.0000   1.0000   1.0000   1.0000   1.0000   1.0000   1.0000
     1.0000   1.0000   1.0000   1.0000   1.0000   1.0000   1.0000   1.0000
     1.0000   1.0000   1.0000   1.0000   1.0000   1.0000   1.0000   1.0000
     1.0000   1.0000   1.0000   1.0000   1.0000   1.0000   1.0000   1.0000
     1.0000   1.0000   1.0000   1.0000   1.0000   1.0000   1.0000   1.0000
     1.0000   1.0000

     highest occupied level (ev):     0.8789

!    total energy              =    -548.04759957 Ry
     Harris-Foulkes estimate   =    -548.04759959 Ry
     estimated scf accuracy    <       0.00000003 Ry

     total all-electron energy =     -4615.891087 Ry

     The total energy is the sum of the following terms:

     one-electron contribution =    -152.50595195 Ry
     hartree contribution      =     107.62706396 Ry
     xc contribution           =    -104.25142885 Ry
     ewald contribution        =    -143.13325851 Ry
     one-center paw contrib.   =    -255.78402423 Ry
      -> PAW hartree energy AE =      19.31467037 Ry
      -> PAW hartree energy PS =     -19.20981635 Ry
      -> PAW xc energy AE      =     -55.68371730 Ry
      -> PAW xc energy PS      =      10.13635227 Ry
      -> total E_H with PAW    =     107.73191799 Ry
      -> total E_XC with PAW   =    -149.79879388 Ry

     convergence has been achieved in  11 iterations
 writing file ./scratch/scf-737.save/charge-density
 writing file ./scratch/scf-737.save/charge-density
 writing file ./scratch/scf-737.save/charge-density
 writing file ./scratch/scf-737.save/charge-density
 writing file ./scratch/scf-737.save/charge-density
 writing file ./scratch/scf-737.save/charge-density
 writing file ./scratch/scf-737.save/charge-density
 writing file ./scratch/scf-737.save/charge-density
 writing file ./scratch/scf-737.save/charge-density
 writing file ./scratch/scf-737.save/charge-density
 writing file ./scratch/scf-737.save/charge-density
 writing file ./scratch/scf-737.save/charge-density
 writing file ./scratch/scf-737.save/charge-density
 writing file ./scratch/scf-737.save/charge-density
 writing file ./scratch/scf-737.save/charge-density
 writing file ./scratch/scf-737.save/charge-density
 writing file ./scratch/scf-737.save/charge-density
 writing file ./scratch/scf-737.save/charge-density
 writing file ./scratch/scf-737.save/charge-density
 writing file ./scratch/scf-737.save/charge-density
 writing file ./scratch/scf-737.save/charge-density
 writing file ./scratch/scf-737.save/charge-density
 writing file ./scratch/scf-737.save/charge-density
 writing file ./scratch/scf-737.save/charge-density
 writing file ./scratch/scf-737.save/charge-density
 writing file ./scratch/scf-737.save/charge-density
 writing file ./scratch/scf-737.save/charge-density
 writing file ./scratch/scf-737.save/charge-density
 writing file ./scratch/scf-737.save/charge-density
 writing file ./scratch/scf-737.save/charge-density
 writing file ./scratch/scf-737.save/charge-density
 writing file ./scratch/scf-737.save/charge-density

     Forces acting on atoms (cartesian axes, Ry/au):

     atom    1 type  2   force =     0.00593552   -0.00244464   -0.01242424
     atom    2 type  1   force =    -0.00221181   -0.00062202    0.02499346
     atom    3 type  1   force =    -0.00635273    0.02000608   -0.04057786
     atom    4 type  3   force =    -0.00306261   -0.00553474    0.00523142
     atom    5 type  1   force =    -0.01364265    0.00317023    0.04464446
     atom    6 type  3   force =     0.00480756    0.00097534   -0.00295779
     atom    7 type  3   force =    -0.00447227    0.00041521   -0.00064662
     atom    8 type  1   force =     0.00203584   -0.00635206   -0.01504404
     atom    9 type  3   force =     0.00146016   -0.00562937   -0.00161938
     atom   10 type  1   force =    -0.00472869    0.00964116    0.02118944
     atom   11 type  1   force =     0.00868409   -0.00918739   -0.00789359
     atom   12 type  2   force =    -0.00564222    0.00802971    0.00276861
     atom   13 type  3   force =    -0.00099482    0.00013523   -0.00079275
     atom   14 type  1   force =     0.00767225   -0.01570470   -0.00942224
     atom   15 type  3   force =    -0.00001604    0.00023538    0.00377658
     atom   16 type  1   force =     0.01425500   -0.02657040   -0.00762362
     atom   17 type  1   force =     0.01660029    0.00498074   -0.00757097
     atom   18 type  2   force =    -0.01893504    0.02267314    0.00388432
     atom   19 type  3   force =     0.00398725    0.00097715    0.00036119
     atom   20 type  1   force =    -0.00440130   -0.00653151    0.00239938
     atom   21 type  3   force =     0.00366247   -0.00042322   -0.00191990
     atom   22 type  1   force =     0.00879422    0.01075568   -0.00180454
     atom   23 type  1   force =     0.01144699    0.03270026   -0.01470222
     atom   24 type  2   force =    -0.02488147   -0.03569526    0.01575090
     The non-local contrib.  to forces
     atom    1 type  2   force =    -0.28221532    0.27540559   -0.01797135
     atom    2 type  1   force =     0.34685992   -0.36197689    0.03566074
     atom    3 type  1   force =    -0.03390278    0.00044030   -0.09041172
     atom    4 type  3   force =    -0.06983188   -0.01914916   -0.03026877
     atom    5 type  1   force =    -0.07534868   -0.05538517    0.01799977
     atom    6 type  3   force =    -0.00779137   -0.06680865   -0.04076060
     atom    7 type  3   force =    -0.00686926   -0.06510075    0.04336352
     atom    8 type  1   force =     0.02286408   -0.04374594    0.01943471
     atom    9 type  3   force =     0.05625792   -0.01953758    0.05160294
     atom   10 type  1   force =     0.01922052   -0.02970561    0.08635529
     atom   11 type  1   force =    -0.34510607   -0.34642441   -0.08263623
     atom   12 type  2   force =     0.27637696    0.28138424    0.05909583
     atom   13 type  3   force =     0.00931679    0.06691510    0.04025700
     atom   14 type  1   force =     0.06330843    0.03328413    0.02822925
     atom   15 type  3   force =     0.06828647    0.01576278    0.03697070
     atom   16 type  1   force =     0.06865396   -0.00035095    0.03349455
     atom   17 type  1   force =    -0.35640817    0.35956470    0.01852620
     atom   18 type  2   force =     0.29957204   -0.24369426   -0.04265222
     atom   19 type  3   force =     0.00678662    0.06443464   -0.04372300
     atom   20 type  1   force =    -0.02129864    0.03717842   -0.03480271
     atom   21 type  3   force =    -0.05405872    0.01722800   -0.05507019
     atom   22 type  1   force =    -0.02108737    0.06608482   -0.06562292
     atom   23 type  1   force =     0.38749221    0.34208864    0.02683296
     atom   24 type  2   force =    -0.29256167   -0.27069489    0.02516315
     The ionic contribution  to forces
     atom    1 type  2   force =     6.80572172   -3.92729816    0.92415416
     atom    2 type  1   force =     2.85410138   -1.59227835    0.07871081
     atom    3 type  1   force =     5.02817121    1.21773004    3.16968112
     atom    4 type  3   force =     2.31553944    0.58218339    1.02644745
     atom    5 type  1   force =     2.20271501    3.97841565    1.96152918
     atom    6 type  3   force =     0.55661160    1.85722532    1.35960629
     atom    7 type  3   force =    -0.13930849    1.94163725   -1.41516536
     atom    8 type  1   force =    -1.26103835    4.03487192   -2.39976882
     atom    9 type  3   force =    -1.83973788    0.74295207   -1.57241475
     atom   10 type  1   force =    -4.17397516    1.62837125   -3.58593062
     atom   11 type  1   force =    -2.90593256   -1.44892658   -0.67941646
     atom   12 type  2   force =    -5.84341306   -4.49220719   -1.37147484
     atom   13 type  3   force =    -0.42148033   -1.86427208   -1.25465301
     atom   14 type  1   force =    -1.06374353   -3.80480512   -2.27479482
     atom   15 type  3   force =    -2.06266637   -0.60017217   -1.07519867
     atom   16 type  1   force =    -4.26647304   -1.72079054   -2.35393060
     atom   17 type  1   force =    -1.77051601    1.72207467    0.13295092
     atom   18 type  2   force =    -6.08808337    4.52937459   -0.12801385
     atom   19 type  3   force =    -0.08489633   -1.93224381    1.31265861
     atom   20 type  1   force =     0.20405381   -3.86223055    2.40934192
     atom   21 type  3   force =     1.69471269   -0.62553344    1.56715452
     atom   22 type  1   force =     3.66365267   -1.61295692    3.12601666
     atom   23 type  1   force =     2.38711118    1.62884950    0.81305686
     atom   24 type  2   force =     4.20887375    3.62002926    0.22945329
     The local contribution  to forces
     atom    1 type  2   force =    -6.52877559    3.66067293   -0.91964360
     atom    2 type  1   force =    -3.19416316    1.94457251   -0.08939282
     atom    3 type  1   force =    -4.99938934   -1.19798417   -3.11939343
     atom    4 type  3   force =    -2.24875885   -0.56857034   -0.99094329
     atom    5 type  1   force =    -2.14138170   -3.91870532   -1.93444735
     atom    6 type  3   force =    -0.54401410   -1.78943039   -1.32180118
     atom    7 type  3   force =     0.14169150   -1.87610331    1.37114063
     atom    8 type  1   force =     1.24004686   -3.99632716    2.36465182
     atom    9 type  3   force =     1.78494203   -0.72905112    1.51919878
     atom   10 type  1   force =     4.14882456   -1.58914774    3.52018151
     atom   11 type  1   force =     3.25038658    1.77764906    0.75226204
     atom   12 type  2   force =     5.57234417    4.23055843    1.31758603
     atom   13 type  3   force =     0.41117183    1.79750684    1.21361139
     atom   14 type  1   force =     1.00867491    3.75475108    2.23649615
     atom   15 type  3   force =     1.99438153    0.58464145    1.04201137
     atom   16 type  1   force =     4.21116333    1.69344186    2.31204688
     atom   17 type  1   force =     2.13462566   -2.06762744   -0.15788883
     atom   18 type  2   force =     5.78095483   -4.27202302    0.17292555
     atom   19 type  3   force =     0.08208720    1.86879829   -1.26858768
     atom   20 type  1   force =    -0.18757026    3.81742532   -2.37144101
     atom   21 type  3   force =    -1.63697690    0.60787081   -1.51398998
     atom   22 type  1   force =    -3.63252200    1.55803329   -3.06166482
     atom   23 type  1   force =    -2.75236162   -1.92942115   -0.85346373
     atom   24 type  2   force =    -3.95412781   -3.39735706   -0.23736721
     The core correction contribution to forces
     atom    1 type  2   force =     0.01118347   -0.01117768    0.00105023
     atom    2 type  1   force =    -0.00904670    0.00901525   -0.00001749
     atom    3 type  1   force =    -0.00121711   -0.00022236   -0.00046753
     atom    4 type  3   force =     0.00000000    0.00000000    0.00000000
     atom    5 type  1   force =     0.00036773   -0.00113357   -0.00043364
     atom    6 type  3   force =     0.00000000    0.00000000    0.00000000
     atom    7 type  3   force =     0.00000000    0.00000000    0.00000000
     atom    8 type  1   force =     0.00005383   -0.00115478    0.00058085
     atom    9 type  3   force =     0.00000000    0.00000000    0.00000000
     atom   10 type  1   force =     0.00109645    0.00009055    0.00052605
     atom   11 type  1   force =     0.00931327    0.00851227    0.00188340
     atom   12 type  2   force =    -0.01099955   -0.01170076   -0.00246716
     atom   13 type  3   force =     0.00000000    0.00000000    0.00000000
     atom   14 type  1   force =    -0.00057145    0.00106017    0.00065072
     atom   15 type  3   force =     0.00000000    0.00000000    0.00000000
     atom   16 type  1   force =     0.00094106    0.00106161    0.00075443
     atom   17 type  1   force =     0.00889843   -0.00906659   -0.00117388
     atom   18 type  2   force =    -0.01131588    0.00906016    0.00166169
     atom   19 type  3   force =     0.00000000    0.00000000    0.00000000
     atom   20 type  1   force =     0.00032558    0.00100670   -0.00070672
     atom   21 type  3   force =     0.00000000    0.00000000    0.00000000
     atom   22 type  1   force =    -0.00128817   -0.00048968   -0.00052348
     atom   23 type  1   force =    -0.01077458   -0.00877412   -0.00113592
     atom   24 type  2   force =     0.01299800    0.01238627   -0.00146995
     The Hubbard contrib.    to forces
     atom    1 type  2   force =     0.00000000    0.00000000    0.00000000
     atom    2 type  1   force =     0.00000000    0.00000000    0.00000000
     atom    3 type  1   force =     0.00000000    0.00000000    0.00000000
     atom    4 type  3   force =     0.00000000    0.00000000    0.00000000
     atom    5 type  1   force =     0.00000000    0.00000000    0.00000000
     atom    6 type  3   force =     0.00000000    0.00000000    0.00000000
     atom    7 type  3   force =     0.00000000    0.00000000    0.00000000
     atom    8 type  1   force =     0.00000000    0.00000000    0.00000000
     atom    9 type  3   force =     0.00000000    0.00000000    0.00000000
     atom   10 type  1   force =     0.00000000    0.00000000    0.00000000
     atom   11 type  1   force =     0.00000000    0.00000000    0.00000000
     atom   12 type  2   force =     0.00000000    0.00000000    0.00000000
     atom   13 type  3   force =     0.00000000    0.00000000    0.00000000
     atom   14 type  1   force =     0.00000000    0.00000000    0.00000000
     atom   15 type  3   force =     0.00000000    0.00000000    0.00000000
     atom   16 type  1   force =     0.00000000    0.00000000    0.00000000
     atom   17 type  1   force =     0.00000000    0.00000000    0.00000000
     atom   18 type  2   force =     0.00000000    0.00000000    0.00000000
     atom   19 type  3   force =     0.00000000    0.00000000    0.00000000
     atom   20 type  1   force =     0.00000000    0.00000000    0.00000000
     atom   21 type  3   force =     0.00000000    0.00000000    0.00000000
     atom   22 type  1   force =     0.00000000    0.00000000    0.00000000
     atom   23 type  1   force =     0.00000000    0.00000000    0.00000000
     atom   24 type  2   force =     0.00000000    0.00000000    0.00000000
     The SCF correction term to forces
     atom    1 type  2   force =     0.00002024   -0.00004754   -0.00001392
     atom    2 type  1   force =     0.00003575    0.00004524    0.00003198
     atom    3 type  1   force =    -0.00001570    0.00004206    0.00001345
     atom    4 type  3   force =    -0.00001233    0.00000114   -0.00000420
     atom    5 type  1   force =     0.00000399   -0.00002157   -0.00000374
     atom    6 type  3   force =     0.00000042   -0.00001115   -0.00000254
     atom    7 type  3   force =     0.00001298   -0.00001820    0.00001435
     atom    8 type  1   force =     0.00010842    0.00000368    0.00005716
     atom    9 type  3   force =    -0.00000291    0.00000704   -0.00000660
     atom   10 type  1   force =     0.00010394    0.00003250    0.00005697
     atom   11 type  1   force =     0.00002186    0.00000206    0.00001342
     atom   12 type  2   force =     0.00004826   -0.00000522    0.00002850
     atom   13 type  3   force =    -0.00000411   -0.00001484   -0.00000837
     atom   14 type  1   force =     0.00000289    0.00000483   -0.00000376
     atom   15 type  3   force =    -0.00001867    0.00000311   -0.00000706
     atom   16 type  1   force =    -0.00003132    0.00006740    0.00001088
     atom   17 type  1   force =    -0.00000063    0.00003518    0.00001439
     atom   18 type  2   force =    -0.00006365   -0.00004456   -0.00003709
     atom   19 type  3   force =     0.00000877   -0.00001219    0.00001302
     atom   20 type  1   force =     0.00008720    0.00008839    0.00000766
     atom   21 type  3   force =    -0.00001560    0.00001120   -0.00001448
     atom   22 type  1   force =     0.00003809    0.00008396   -0.00001021
     atom   23 type  1   force =    -0.00002119   -0.00004283    0.00000737
     atom   24 type  2   force =    -0.00006474   -0.00005905   -0.00002862

     Total force =     0.113576     Total SCF correction =     0.000310

     Writing output data file scf-737.save
 writing file ./scratch/scf-737.save/charge-density
 writing file ./scratch/scf-737.save/charge-density
 writing file ./scratch/scf-737.save/charge-density
 writing file ./scratch/scf-737.save/charge-density
 writing file ./scratch/scf-737.save/charge-density
 writing file ./scratch/scf-737.save/charge-density
 writing file ./scratch/scf-737.save/charge-density
 writing file ./scratch/scf-737.save/charge-density
 writing file ./scratch/scf-737.save/charge-density
 writing file ./scratch/scf-737.save/charge-density
 writing file ./scratch/scf-737.save/charge-density
 writing file ./scratch/scf-737.save/charge-density
 writing file ./scratch/scf-737.save/charge-density
 writing file ./scratch/scf-737.save/charge-density
 writing file ./scratch/scf-737.save/charge-density
 writing file ./scratch/scf-737.save/charge-density
 writing file ./scratch/scf-737.save/charge-density
 writing file ./scratch/scf-737.save/charge-density
 writing file ./scratch/scf-737.save/charge-density
 writing file ./scratch/scf-737.save/charge-density
 writing file ./scratch/scf-737.save/charge-density
 writing file ./scratch/scf-737.save/charge-density
 writing file ./scratch/scf-737.save/charge-density
 writing file ./scratch/scf-737.save/charge-density
 writing file ./scratch/scf-737.save/charge-density
 writing file ./scratch/scf-737.save/charge-density
 writing file ./scratch/scf-737.save/charge-density
 writing file ./scratch/scf-737.save/charge-density
 writing file ./scratch/scf-737.save/charge-density
 writing file ./scratch/scf-737.save/charge-density
 writing file ./scratch/scf-737.save/charge-density
 writing file ./scratch/scf-737.save/charge-density
 
     init_run     :      4.35s CPU      4.56s WALL (       1 calls)
     electrons    :     49.06s CPU     51.79s WALL (       1 calls)
     forces       :      2.34s CPU      2.48s WALL (       1 calls)

     Called by init_run:
     wfcinit      :      1.57s CPU      1.60s WALL (       1 calls)
     wfcinit:atom :      0.02s CPU      0.02s WALL (      16 calls)
     wfcinit:wfcr :      1.46s CPU      1.47s WALL (      16 calls)
     potinit      :      0.88s CPU      0.91s WALL (       1 calls)

     Called by electrons:
     c_bands      :     38.30s CPU     38.53s WALL (      11 calls)
     sum_band     :      6.68s CPU      7.81s WALL (      11 calls)
     v_of_rho     :      0.89s CPU      0.97s WALL (      12 calls)
     v_h          :      0.04s CPU      0.06s WALL (      12 calls)
     v_xc         :      0.92s CPU      0.98s WALL (      13 calls)
     newd         :      1.57s CPU      2.86s WALL (      12 calls)
     PAW_pot      :      1.62s CPU      1.69s WALL (      12 calls)
     mix_rho      :      0.13s CPU      0.14s WALL (      11 calls)

     Called by c_bands:
     init_us_2    :      0.88s CPU      0.85s WALL (     384 calls)
     cegterg      :     36.03s CPU     36.15s WALL (     176 calls)

     Called by sum_band:
     sum_band:bec :      0.01s CPU      0.02s WALL (     176 calls)
     addusdens    :      1.55s CPU      2.67s WALL (      11 calls)

     Called by *egterg:
     h_psi        :     26.65s CPU     26.78s WALL (     861 calls)
     s_psi        :      2.02s CPU      2.04s WALL (     861 calls)
     g_psi        :      0.14s CPU      0.16s WALL (     669 calls)
     cdiaghg      :      3.30s CPU      3.42s WALL (     845 calls)
     cegterg:over :      1.72s CPU      1.64s WALL (     669 calls)
     cegterg:upda :      1.40s CPU      1.28s WALL (     669 calls)
     cegterg:last :      0.50s CPU      0.43s WALL (     192 calls)

     Called by h_psi:
     h_psi:pot    :     26.38s CPU     26.50s WALL (     861 calls)
     h_psi:calbec :      2.27s CPU      2.27s WALL (     861 calls)
     vloc_psi     :     22.18s CPU     22.24s WALL (     861 calls)
     add_vuspsi   :      1.94s CPU      1.99s WALL (     861 calls)

     General routines
     calbec       :      3.01s CPU      3.02s WALL (    1101 calls)
     fft          :      0.75s CPU      0.78s WALL (     199 calls)
     ffts         :      0.04s CPU      0.03s WALL (      23 calls)
     fftw         :     20.99s CPU     21.05s WALL (   55538 calls)
     interpolate  :      0.15s CPU      0.15s WALL (      23 calls)
     davcio       :      0.00s CPU      0.01s WALL (      16 calls)
 
     Parallel routines
     fft_scatter  :      7.26s CPU      7.25s WALL (   55760 calls)

     PAW routines
     PAW_pot      :      1.62s CPU      1.69s WALL (      12 calls)
 
     PWSCF        :    56.44s CPU        59.90s WALL

 
   This run was terminated on:  14:37:33  20May2017            

=------------------------------------------------------------------------------=
   JOB DONE.
=------------------------------------------------------------------------------=
