
     Program PWSCF v.6.1 starts on 20May2017 at 13:29:27 

     This program is part of the open-source Quantum ESPRESSO suite
     for quantum simulation of materials; please cite
         "P. Giannozzi et al., J. Phys.:Condens. Matter 21 395502 (2009);
          URL http://www.quantum-espresso.org", 
     in publications or presentations arising from this work. More details at
     http://www.quantum-espresso.org/quote

     Parallel version (MPI & OpenMP), running on      32 processor cores
     Number of MPI processes:                32
     Threads/MPI process:                     1
     R & G space division:  proc/nbgrp/npool/nimage =      32
     Waiting for input...
     Reading input from standard input
Warning: card &IONS ignored
Warning: card     ION_TEMPERATURE   = 'INITIAL' ignored
Warning: card     TEMPW             = 586.D0 ignored
Warning: card     TOLP              = 100.D0 ignored
Warning: card     DELTA_T           = 1.D0 ignored
Warning: card     NRAISE            = 1 ignored
Warning: card / ignored
Warning: card &CELL ignored
Warning: card     CELL_DYNAMICS     = 'BFGS' ignored
Warning: card / ignored

     Current dimensions of program PWSCF are:
     Max number of different atomic species (ntypx) = 10
     Max number of k-points (npk) =  40000
     Max angular momentum in pseudopotentials (lmaxx) =  3
               file C.pbe-n-kjpaw_psl.1.0.0.UPF: wavefunction(s)  2S 2P renormalized
               file Cl.pbe-n-kjpaw_psl.1.0.0.UPF: wavefunction(s)  3S 3P renormalized
               file H.pbe-kjpaw_psl.1.0.0.UPF: wavefunction(s)  1S renormalized

     Subspace diagonalization in iterative solution of the eigenvalue problem:
     a serial algorithm will be used

 
     Parallelization info
     --------------------
     sticks:   dense  smooth     PW     G-vecs:    dense   smooth      PW
     Min         764     305     83                36108     9133    1292
     Max         765     306     84                36110     9135    1293
     Sum       24467    9791   2657              1155489   292295   41363
 


     bravais-lattice index     =            0
     lattice parameter (alat)  =       1.8897  a.u.
     unit-cell volume          =    2163.5316 (a.u.)^3
     number of atoms/cell      =           24
     number of atomic types    =            3
     number of electrons       =        84.00
     number of Kohn-Sham states=           42
     kinetic-energy cutoff     =     100.0000  Ry
     charge density cutoff     =    1000.0000  Ry
     convergence threshold     =      1.0E-07
     mixing beta               =       0.7000
     number of iterations used =            8  plain     mixing
     Exchange-correlation      =  SLA  PW   PBX  PBC ( 1  4  3  4 0 0)

     celldm(1)=   1.889726  celldm(2)=   0.000000  celldm(3)=   0.000000
     celldm(4)=   0.000000  celldm(5)=   0.000000  celldm(6)=   0.000000

     crystal axes: (cart. coord. in units of alat)
               a(1) = (  14.762000   0.000000   0.000000 )  
               a(2) = (   0.000000   5.832000   0.000000 )  
               a(3) = (  -1.563876   0.000000   3.723951 )  

     reciprocal axes: (cart. coord. in units 2 pi/alat)
               b(1) = (  0.067741  0.000000  0.028448 )  
               b(2) = (  0.000000  0.171468  0.000000 )  
               b(3) = (  0.000000  0.000000  0.268532 )  


     PseudoPot. # 1 for  C read from file:
     /global/cscratch1/sd/almno10/.data/PSEUDOPOTENTIALS/C.pbe-n-kjpaw_psl.1.0.0.UPF
     MD5 check sum: 2ba8448e293caca687844dde9a1b88a8
     Pseudo is Projector augmented-wave + core cor, Zval =  4.0
     Generated using "atomic" code by A. Dal Corso  v.5.3.0 svn rev. 11974
     Shape of augmentation charge: PSQ
     Using radial grid of 1073 points,  4 beta functions with: 
                l(1) =   0
                l(2) =   0
                l(3) =   1
                l(4) =   1
     Q(r) pseudized with 0 coefficients 


     PseudoPot. # 2 for Cl read from file:
     /global/cscratch1/sd/almno10/.data/PSEUDOPOTENTIALS/Cl.pbe-n-kjpaw_psl.1.0.0.UPF
     MD5 check sum: dca63699d6b897c5771335df08a09219
     Pseudo is Projector augmented-wave + core cor, Zval =  7.0
     Generated using "atomic" code by A. Dal Corso  v.5.3.0 svn rev. 11974
     Shape of augmentation charge: PSQ
     Using radial grid of 1157 points,  6 beta functions with: 
                l(1) =   0
                l(2) =   0
                l(3) =   1
                l(4) =   1
                l(5) =   2
                l(6) =   2
     Q(r) pseudized with 0 coefficients 


     PseudoPot. # 3 for  H read from file:
     /global/cscratch1/sd/almno10/.data/PSEUDOPOTENTIALS/H.pbe-kjpaw_psl.1.0.0.UPF
     MD5 check sum: bc0feb48a24907a0b97fa6ee2d589a29
     Pseudo is Projector augmented-wave, Zval =  1.0
     Generated using "atomic" code by A. Dal Corso  v.5.3.0 svn rev. 11974
     Shape of augmentation charge: PSQ
     Using radial grid of  929 points,  2 beta functions with: 
                l(1) =   0
                l(2) =   0
     Q(r) pseudized with 0 coefficients 


     atomic species   valence    mass     pseudopotential
        C              4.00    12.01100      C( 1.00)
        Cl             7.00    35.45270     Cl( 1.00)
        H              1.00     1.00790      H( 1.00)

     No symmetry found


                                    s                        frac. trans.

      isym =  1     identity                                     

 cryst.   s( 1) = (     1          0          0      )
                  (     0          1          0      )
                  (     0          0          1      )

 cart.    s( 1) = (  1.0000000  0.0000000 -0.0000000 )
                  (  0.0000000  1.0000000  0.0000000 )
                  (  0.0000000  0.0000000  1.0000000 )


   Cartesian axes

     site n.     atom                  positions (alat units)
         1           Cl  tau(   1) = (  16.4149477   1.0137637   1.5041500  )
         2           C   tau(   2) = (  14.9094069   2.0461306   1.7427852  )
         3           C   tau(   3) = (  14.9670523   3.1329681   2.6145373  )
         4           H   tau(   4) = (  15.8831532   3.3114793   3.1756834  )
         5           C   tau(   5) = (  13.9123556   4.0406144   2.6949666  )
         6           H   tau(   6) = (  13.9713147   4.8808249   3.3854608  )
         7           H   tau(   7) = (   6.5898517   2.2092926   0.8201638  )
         8           C   tau(   8) = (   6.6185491   1.2295136   1.2911707  )
         9           H   tau(   9) = (   4.5565396   0.7805433   0.8420000  )
        10           C   tau(  10) = (   5.4571841   0.4586078   1.3632241  )
        11           C   tau(  11) = (   5.5340888  -0.7955326   1.9676563  )
        12           Cl  tau(  12) = (   4.2639881  -1.9086378   2.0134110  )
        13           H   tau(  13) = (  13.6562714   0.8452333   0.4280155  )
        14           C   tau(  14) = (  13.7346339   1.7244920   1.0637561  )
        15           H   tau(  15) = (  11.7357695   2.4034585   0.6285722  )
        16           C   tau(  16) = (  12.6666455   2.6177319   1.1486431  )
        17           C   tau(  17) = (  12.7585281   3.7637394   1.9625365  )
        18           Cl  tau(  18) = (  11.4968833   4.8802827   1.8890004  )
        19           H   tau(  19) = (   6.7198734  -2.1823087   3.1175269  )
        20           C   tau(  20) = (   6.7011118  -1.2235587   2.6017258  )
        21           H   tau(  21) = (   8.7367244  -0.7404390   3.1127041  )
        22           C   tau(  22) = (   7.8297609  -0.4070815   2.6138685  )
        23           C   tau(  23) = (   7.7738278   0.8168829   1.9517994  )
        24           Cl  tau(  24) = (   9.2029102   1.8820206   1.7958844  )

   Crystallographic axes

     site n.     atom                  positions (cryst. coord.)
         1           Cl  tau(   1) = (  1.1547633  0.1738278  0.4039124  )
         2           C   tau(   2) = (  1.0595645  0.3508454  0.4679935  )
         3           C   tau(   3) = (  1.0882691  0.5372030  0.7020869  )
         4           H   tau(   4) = (  1.1662907  0.5678120  0.8527725  )
         5           C   tau(   5) = (  1.0191105  0.6928351  0.7236847  )
         6           H   tau(   6) = (  1.0427477  0.8369041  0.9091044  )
         7           H   tau(   7) = (  0.4697385  0.3788225  0.2202402  )
         8           C   tau(   8) = (  0.4850818  0.2108220  0.3467206  )
         9           H   tau(   9) = (  0.3326201  0.1338380  0.2261039  )
        10           C   tau(  10) = (  0.4084589  0.0786365  0.3660692  )
        11           C   tau(  11) = (  0.4308635 -0.1364082  0.5283786  )
        12           Cl  tau(  12) = (  0.3461266 -0.3272699  0.5406652  )
        13           H   tau(  13) = (  0.9372725  0.1449303  0.1149358  )
        14           C   tau(  14) = (  0.9606665  0.2956948  0.2856525  )
        15           H   tau(  15) = (  0.8128803  0.4121156  0.1687917  )
        16           C   tau(  16) = (  0.8907342  0.4488566  0.3084474  )
        17           C   tau(  17) = (  0.9201122  0.6453600  0.5270038  )
        18           Cl  tau(  18) = (  0.8325545  0.8368112  0.5072570  )
        19           H   tau(  19) = (  0.5439020 -0.3741956  0.8371556  )
        20           C   tau(  20) = (  0.5279575 -0.2098009  0.6986466  )
        21           H   tau(  21) = (  0.6803893 -0.1269614  0.8358606  )
        22           C   tau(  22) = (  0.6047593 -0.0698014  0.7019073  )
        23           C   tau(  23) = (  0.5821357  0.1400691  0.5241205  )
        24           Cl  tau(  24) = (  0.6745084  0.3227059  0.4822524  )

     number of k points=    16
                       cart. coord. in units 2pi/alat
        k(    1) = (   0.0169354   0.0214335   0.0406785), wk =   0.1250000
        k(    2) = (   0.0169354   0.0214335   0.1078115), wk =   0.1250000
        k(    3) = (   0.0169354   0.0214335  -0.0935875), wk =   0.1250000
        k(    4) = (   0.0169354   0.0214335  -0.0264545), wk =   0.1250000
        k(    5) = (   0.0169354   0.0643004   0.0406785), wk =   0.1250000
        k(    6) = (   0.0169354   0.0643004   0.1078115), wk =   0.1250000
        k(    7) = (   0.0169354   0.0643004  -0.0935875), wk =   0.1250000
        k(    8) = (   0.0169354   0.0643004  -0.0264545), wk =   0.1250000
        k(    9) = (  -0.0169354   0.0214335  -0.0406785), wk =   0.1250000
        k(   10) = (  -0.0169354   0.0214335  -0.1078115), wk =   0.1250000
        k(   11) = (  -0.0169354   0.0214335   0.0935875), wk =   0.1250000
        k(   12) = (  -0.0169354   0.0214335   0.0264545), wk =   0.1250000
        k(   13) = (  -0.0169354   0.0643004  -0.0406785), wk =   0.1250000
        k(   14) = (  -0.0169354   0.0643004  -0.1078115), wk =   0.1250000
        k(   15) = (  -0.0169354   0.0643004   0.0935875), wk =   0.1250000
        k(   16) = (  -0.0169354   0.0643004   0.0264545), wk =   0.1250000

                       cryst. coord.
        k(    1) = (   0.2500000   0.1250000   0.1250000), wk =   0.1250000
        k(    2) = (   0.2500000   0.1250000   0.3750000), wk =   0.1250000
        k(    3) = (   0.2500000   0.1250000  -0.3750000), wk =   0.1250000
        k(    4) = (   0.2500000   0.1250000  -0.1250000), wk =   0.1250000
        k(    5) = (   0.2500000   0.3750000   0.1250000), wk =   0.1250000
        k(    6) = (   0.2500000   0.3750000   0.3750000), wk =   0.1250000
        k(    7) = (   0.2500000   0.3750000  -0.3750000), wk =   0.1250000
        k(    8) = (   0.2500000   0.3750000  -0.1250000), wk =   0.1250000
        k(    9) = (  -0.2500000   0.1250000  -0.1250000), wk =   0.1250000
        k(   10) = (  -0.2500000   0.1250000  -0.3750000), wk =   0.1250000
        k(   11) = (  -0.2500000   0.1250000   0.3750000), wk =   0.1250000
        k(   12) = (  -0.2500000   0.1250000   0.1250000), wk =   0.1250000
        k(   13) = (  -0.2500000   0.3750000  -0.1250000), wk =   0.1250000
        k(   14) = (  -0.2500000   0.3750000  -0.3750000), wk =   0.1250000
        k(   15) = (  -0.2500000   0.3750000   0.3750000), wk =   0.1250000
        k(   16) = (  -0.2500000   0.3750000   0.1250000), wk =   0.1250000

     Dense  grid:  1155489 G-vectors     FFT dimensions: ( 288, 120,  80)

     Smooth grid:   292295 G-vectors     FFT dimensions: ( 180,  72,  50)

     Estimated max dynamical RAM per process >     147.21MB

     Estimated total allocated dynamical RAM >    4710.62MB

     Initial potential from superposition of free atoms

     starting charge   83.99939, renormalised to   84.00000
     Starting wfc are   72 randomized atomic wfcs
     Checking if some PAW data can be deallocated... 
       node    0, deallocated PAW data for type:  1
       node    0, deallocated PAW data for type:  3
       node    1, deallocated PAW data for type:  1
       node    1, deallocated PAW data for type:  3
       node    2, deallocated PAW data for type:  2
       node    2, deallocated PAW data for type:  3
       node    3, deallocated PAW data for type:  2
       node    3, deallocated PAW data for type:  3
       node    4, deallocated PAW data for type:  2
       node    4, deallocated PAW data for type:  3
       node    5, deallocated PAW data for type:  2
       node    5, deallocated PAW data for type:  3
       node    6, deallocated PAW data for type:  1
       node    6, deallocated PAW data for type:  2
       node    7, deallocated PAW data for type:  1
       node    7, deallocated PAW data for type:  2
       node    8, deallocated PAW data for type:  2
       node    8, deallocated PAW data for type:  3
       node    9, deallocated PAW data for type:  2
       node    9, deallocated PAW data for type:  3
       node   10, deallocated PAW data for type:  1
       node   10, deallocated PAW data for type:  2
       node   11, deallocated PAW data for type:  1
       node   11, deallocated PAW data for type:  2
       node   12, deallocated PAW data for type:  1
       node   12, deallocated PAW data for type:  2
       node   13, deallocated PAW data for type:  1
       node   13, deallocated PAW data for type:  2
       node   14, deallocated PAW data for type:  2
       node   14, deallocated PAW data for type:  3
       node   15, deallocated PAW data for type:  2
       node   15, deallocated PAW data for type:  3
       node   16, deallocated PAW data for type:  1
       node   16, deallocated PAW data for type:  2
       node   17, deallocated PAW data for type:  2
       node   17, deallocated PAW data for type:  3
       node   18, deallocated PAW data for type:  2
       node   18, deallocated PAW data for type:  3
       node   19, deallocated PAW data for type:  1
       node   19, deallocated PAW data for type:  3
       node   20, deallocated PAW data for type:  1
       node   20, deallocated PAW data for type:  2
       node   21, deallocated PAW data for type:  2
       node   21, deallocated PAW data for type:  3
       node   22, deallocated PAW data for type:  1
       node   22, deallocated PAW data for type:  2
       node   23, deallocated PAW data for type:  2
       node   23, deallocated PAW data for type:  3
       node   24, deallocated PAW data for type:  2
       node   24, deallocated PAW data for type:  3
       node   25, deallocated PAW data for type:  1
       node   25, deallocated PAW data for type:  3
       node   26, deallocated PAW data for type:  1
       node   26, deallocated PAW data for type:  2
       node   27, deallocated PAW data for type:  2
       node   27, deallocated PAW data for type:  3
       node   28, deallocated PAW data for type:  1
       node   28, deallocated PAW data for type:  2
       node   29, deallocated PAW data for type:  2
       node   29, deallocated PAW data for type:  3
       node   30, deallocated PAW data for type:  2
       node   30, deallocated PAW data for type:  3
       node   31, deallocated PAW data for type:  1
       node   31, deallocated PAW data for type:  3

     total cpu time spent up to now is        5.2 secs

     per-process dynamical memory:    20.7 Mb

     Self-consistent Calculation

     iteration #  1     ecut=   100.00 Ry     beta= 0.70
     Davidson diagonalization with overlap
     ethr =  1.00E-04,  avg # of iterations =  5.0

     total cpu time spent up to now is       12.0 secs

     total energy              =    -547.12272913 Ry
     Harris-Foulkes estimate   =    -548.99171333 Ry
     estimated scf accuracy    <       2.73247763 Ry

     iteration #  2     ecut=   100.00 Ry     beta= 0.70
     Davidson diagonalization with overlap
     ethr =  3.25E-03,  avg # of iterations =  3.0

     total cpu time spent up to now is       16.9 secs

     total energy              =    -547.52553114 Ry
     Harris-Foulkes estimate   =    -548.61339750 Ry
     estimated scf accuracy    <       1.96813261 Ry

     iteration #  3     ecut=   100.00 Ry     beta= 0.70
     Davidson diagonalization with overlap
     ethr =  2.34E-03,  avg # of iterations =  3.0

     total cpu time spent up to now is       21.2 secs

     total energy              =    -548.01379043 Ry
     Harris-Foulkes estimate   =    -548.05426389 Ry
     estimated scf accuracy    <       0.08162817 Ry

     iteration #  4     ecut=   100.00 Ry     beta= 0.70
     Davidson diagonalization with overlap
     ethr =  9.72E-05,  avg # of iterations =  4.0

     total cpu time spent up to now is       26.1 secs

     total energy              =    -548.04069332 Ry
     Harris-Foulkes estimate   =    -548.05134609 Ry
     estimated scf accuracy    <       0.02114045 Ry

     iteration #  5     ecut=   100.00 Ry     beta= 0.70
     Davidson diagonalization with overlap
     ethr =  2.52E-05,  avg # of iterations =  3.0

     total cpu time spent up to now is       30.5 secs

     total energy              =    -548.04499222 Ry
     Harris-Foulkes estimate   =    -548.04560647 Ry
     estimated scf accuracy    <       0.00121737 Ry

     iteration #  6     ecut=   100.00 Ry     beta= 0.70
     Davidson diagonalization with overlap
     ethr =  1.45E-06,  avg # of iterations =  4.0

     total cpu time spent up to now is       35.4 secs

     total energy              =    -548.04524347 Ry
     Harris-Foulkes estimate   =    -548.04555634 Ry
     estimated scf accuracy    <       0.00069064 Ry

     iteration #  7     ecut=   100.00 Ry     beta= 0.70
     Davidson diagonalization with overlap
     ethr =  8.22E-07,  avg # of iterations =  4.0

     total cpu time spent up to now is       39.9 secs

     total energy              =    -548.04538956 Ry
     Harris-Foulkes estimate   =    -548.04545224 Ry
     estimated scf accuracy    <       0.00016276 Ry

     iteration #  8     ecut=   100.00 Ry     beta= 0.70
     Davidson diagonalization with overlap
     ethr =  1.94E-07,  avg # of iterations =  4.0

     total cpu time spent up to now is       44.3 secs

     total energy              =    -548.04542108 Ry
     Harris-Foulkes estimate   =    -548.04543256 Ry
     estimated scf accuracy    <       0.00002759 Ry

     iteration #  9     ecut=   100.00 Ry     beta= 0.70
     Davidson diagonalization with overlap
     ethr =  3.28E-08,  avg # of iterations =  4.0

     total cpu time spent up to now is       48.9 secs

     total energy              =    -548.04542675 Ry
     Harris-Foulkes estimate   =    -548.04542797 Ry
     estimated scf accuracy    <       0.00000264 Ry

     iteration # 10     ecut=   100.00 Ry     beta= 0.70
     Davidson diagonalization with overlap
     ethr =  3.14E-09,  avg # of iterations =  4.0

     total cpu time spent up to now is       53.6 secs

     total energy              =    -548.04542746 Ry
     Harris-Foulkes estimate   =    -548.04542777 Ry
     estimated scf accuracy    <       0.00000070 Ry

     iteration # 11     ecut=   100.00 Ry     beta= 0.70
     Davidson diagonalization with overlap
     ethr =  8.36E-10,  avg # of iterations =  3.8

     total cpu time spent up to now is       58.1 secs

     End of self-consistent calculation

          k = 0.0169 0.0214 0.0407 ( 36525 PWs)   bands (ev):

   -16.2114 -16.1592 -15.3921 -15.1629 -13.9457 -13.8243 -12.3493 -12.3072
   -11.2426 -11.1939  -9.0296  -8.8838  -8.2578  -8.1287  -6.3645  -6.2368
    -5.3663  -5.2548  -5.0288  -4.8161  -4.2495  -4.1292  -3.9533  -3.8939
    -3.2428  -3.1866  -2.7289  -2.6107  -2.4085  -2.3604  -2.2244  -2.0835
    -1.2242  -1.1189  -0.9906  -0.9803  -0.9259  -0.8027  -0.0041   0.0544
     0.5855   0.7136

     occupation numbers 
     1.0000   1.0000   1.0000   1.0000   1.0000   1.0000   1.0000   1.0000
     1.0000   1.0000   1.0000   1.0000   1.0000   1.0000   1.0000   1.0000
     1.0000   1.0000   1.0000   1.0000   1.0000   1.0000   1.0000   1.0000
     1.0000   1.0000   1.0000   1.0000   1.0000   1.0000   1.0000   1.0000
     1.0000   1.0000   1.0000   1.0000   1.0000   1.0000   1.0000   1.0000
     1.0000   1.0000

          k = 0.0169 0.0214 0.1078 ( 36561 PWs)   bands (ev):

   -16.1409 -16.0822 -15.3389 -15.0842 -13.9315 -13.8210 -12.3231 -12.3022
   -11.2487 -11.2072  -8.9888  -8.8492  -8.2123  -8.1167  -6.3667  -6.3025
    -5.3609  -5.2558  -5.0654  -4.9632  -4.2697  -4.1958  -4.1390  -3.9522
    -3.7890  -3.7200  -2.8228  -2.7396  -2.6199  -2.4412  -2.3716  -2.3373
    -1.3027  -1.1865  -1.1114  -0.9544  -0.8728  -0.7933  -0.3034  -0.0960
     0.7040   0.8026

     occupation numbers 
     1.0000   1.0000   1.0000   1.0000   1.0000   1.0000   1.0000   1.0000
     1.0000   1.0000   1.0000   1.0000   1.0000   1.0000   1.0000   1.0000
     1.0000   1.0000   1.0000   1.0000   1.0000   1.0000   1.0000   1.0000
     1.0000   1.0000   1.0000   1.0000   1.0000   1.0000   1.0000   1.0000
     1.0000   1.0000   1.0000   1.0000   1.0000   1.0000   1.0000   1.0000
     1.0000   1.0000

          k = 0.0169 0.0214-0.0936 ( 36547 PWs)   bands (ev):

   -16.1379 -16.0857 -15.3416 -15.0818 -13.9357 -13.8119 -12.3290 -12.2978
   -11.2375 -11.2215  -8.9631  -8.8852  -8.1997  -8.1341  -6.3883  -6.2676
    -5.3568  -5.2600  -5.1130  -4.8789  -4.2886  -4.1959  -4.1341  -3.9948
    -3.7701  -3.7188  -2.7538  -2.7222  -2.6505  -2.4245  -2.3868  -2.3491
    -1.2742  -1.1663  -1.1299  -0.9792  -0.9174  -0.8114  -0.2530  -0.1510
     0.7006   0.8100

     occupation numbers 
     1.0000   1.0000   1.0000   1.0000   1.0000   1.0000   1.0000   1.0000
     1.0000   1.0000   1.0000   1.0000   1.0000   1.0000   1.0000   1.0000
     1.0000   1.0000   1.0000   1.0000   1.0000   1.0000   1.0000   1.0000
     1.0000   1.0000   1.0000   1.0000   1.0000   1.0000   1.0000   1.0000
     1.0000   1.0000   1.0000   1.0000   1.0000   1.0000   1.0000   1.0000
     1.0000   1.0000

          k = 0.0169 0.0214-0.0265 ( 36551 PWs)   bands (ev):

   -16.2104 -16.1604 -15.3951 -15.1605 -13.9507 -13.8144 -12.3559 -12.3022
   -11.2408 -11.1980  -9.0081  -8.9176  -8.2654  -8.1195  -6.4092  -6.1777
    -5.3664  -5.2722  -5.0848  -4.7134  -4.2798  -4.1209  -3.9769  -3.8554
    -3.2496  -3.1655  -2.7576  -2.6080  -2.4345  -2.3009  -2.1972  -2.1093
    -1.2122  -1.1152  -1.0405  -0.9844  -0.9139  -0.8287   0.0022   0.0368
     0.5925   0.7073

     occupation numbers 
     1.0000   1.0000   1.0000   1.0000   1.0000   1.0000   1.0000   1.0000
     1.0000   1.0000   1.0000   1.0000   1.0000   1.0000   1.0000   1.0000
     1.0000   1.0000   1.0000   1.0000   1.0000   1.0000   1.0000   1.0000
     1.0000   1.0000   1.0000   1.0000   1.0000   1.0000   1.0000   1.0000
     1.0000   1.0000   1.0000   1.0000   1.0000   1.0000   1.0000   1.0000
     1.0000   1.0000

          k = 0.0169 0.0643 0.0407 ( 36518 PWs)   bands (ev):

   -16.1810 -16.1360 -15.4009 -15.1730 -13.9813 -13.8582 -12.3971 -12.3337
   -11.2527 -11.1914  -8.9251  -8.8154  -8.1433  -8.0576  -6.3805  -6.3110
    -5.3206  -5.2356  -5.0625  -4.9737  -4.3586  -4.2236  -4.0307  -3.9504
    -3.2963  -3.2582  -2.6492  -2.5528  -2.4685  -2.3721  -2.1663  -2.0488
    -1.0873  -0.9869  -0.9265  -0.8566  -0.8507  -0.8245   0.0342   0.0619
     0.6705   0.7292

     occupation numbers 
     1.0000   1.0000   1.0000   1.0000   1.0000   1.0000   1.0000   1.0000
     1.0000   1.0000   1.0000   1.0000   1.0000   1.0000   1.0000   1.0000
     1.0000   1.0000   1.0000   1.0000   1.0000   1.0000   1.0000   1.0000
     1.0000   1.0000   1.0000   1.0000   1.0000   1.0000   1.0000   1.0000
     1.0000   1.0000   1.0000   1.0000   1.0000   1.0000   1.0000   1.0000
     1.0000   1.0000

          k = 0.0169 0.0643 0.1078 ( 36558 PWs)   bands (ev):

   -16.1205 -16.0683 -15.3417 -15.0886 -13.9511 -13.8338 -12.3530 -12.3113
   -11.2697 -11.2274  -8.9337  -8.8477  -8.1780  -8.1173  -6.3708  -6.2834
    -5.3317  -5.2497  -4.9601  -4.8729  -4.3063  -4.2226  -4.1031  -3.9907
    -3.9267  -3.8717  -2.8078  -2.6557  -2.5920  -2.5301  -2.3973  -2.3056
    -1.2581  -1.1379  -1.0342  -0.9760  -0.9337  -0.8324  -0.1453   0.0315
     0.7391   0.7954

     occupation numbers 
     1.0000   1.0000   1.0000   1.0000   1.0000   1.0000   1.0000   1.0000
     1.0000   1.0000   1.0000   1.0000   1.0000   1.0000   1.0000   1.0000
     1.0000   1.0000   1.0000   1.0000   1.0000   1.0000   1.0000   1.0000
     1.0000   1.0000   1.0000   1.0000   1.0000   1.0000   1.0000   1.0000
     1.0000   1.0000   1.0000   1.0000   1.0000   1.0000   1.0000   1.0000
     1.0000   1.0000

          k = 0.0169 0.0643-0.0936 ( 36547 PWs)   bands (ev):

   -16.1168 -16.0726 -15.3442 -15.0863 -13.9569 -13.8231 -12.3587 -12.3062
   -11.2621 -11.2392  -8.9079  -8.8834  -8.1666  -8.1306  -6.3720  -6.2737
    -5.3346  -5.2628  -5.0039  -4.7757  -4.3045  -4.2457  -4.1196  -4.0071
    -3.9128  -3.8464  -2.7718  -2.6766  -2.6195  -2.5871  -2.3458  -2.2319
    -1.2247  -1.1477  -1.0999  -1.0039  -0.9229  -0.8603  -0.1045  -0.0199
     0.7356   0.8066

     occupation numbers 
     1.0000   1.0000   1.0000   1.0000   1.0000   1.0000   1.0000   1.0000
     1.0000   1.0000   1.0000   1.0000   1.0000   1.0000   1.0000   1.0000
     1.0000   1.0000   1.0000   1.0000   1.0000   1.0000   1.0000   1.0000
     1.0000   1.0000   1.0000   1.0000   1.0000   1.0000   1.0000   1.0000
     1.0000   1.0000   1.0000   1.0000   1.0000   1.0000   1.0000   1.0000
     1.0000   1.0000

          k = 0.0169 0.0643-0.0265 ( 36489 PWs)   bands (ev):

   -16.1781 -16.1394 -15.4034 -15.1705 -13.9871 -13.8484 -12.4023 -12.3271
   -11.2477 -11.2026  -8.9020  -8.8456  -8.1281  -8.0748  -6.4102  -6.2904
    -5.3220  -5.2290  -5.0917  -4.8864  -4.3350  -4.2113  -4.0769  -4.0020
    -3.3212  -3.2351  -2.6075  -2.4921  -2.4319  -2.3866  -2.1934  -2.0612
    -1.1069  -1.0046  -0.9561  -0.8964  -0.8405  -0.7945  -0.0071   0.0938
     0.6672   0.7284

     occupation numbers 
     1.0000   1.0000   1.0000   1.0000   1.0000   1.0000   1.0000   1.0000
     1.0000   1.0000   1.0000   1.0000   1.0000   1.0000   1.0000   1.0000
     1.0000   1.0000   1.0000   1.0000   1.0000   1.0000   1.0000   1.0000
     1.0000   1.0000   1.0000   1.0000   1.0000   1.0000   1.0000   1.0000
     1.0000   1.0000   1.0000   1.0000   1.0000   1.0000   1.0000   1.0000
     1.0000   1.0000

          k =-0.0169 0.0214-0.0407 ( 36525 PWs)   bands (ev):

   -16.2083 -16.1629 -15.3940 -15.1612 -13.9511 -13.8144 -12.3546 -12.3025
   -11.2353 -11.2050  -9.0031  -8.9189  -8.2379  -8.1555  -6.3697  -6.2205
    -5.3604  -5.2674  -5.0325  -4.7723  -4.2082  -4.1524  -4.0443  -3.8567
    -3.2526  -3.1509  -2.6849  -2.6467  -2.4497  -2.2739  -2.2161  -2.0978
    -1.2381  -1.1143  -1.0529  -0.9609  -0.9187  -0.8269   0.0047   0.0364
     0.5800   0.7169

     occupation numbers 
     1.0000   1.0000   1.0000   1.0000   1.0000   1.0000   1.0000   1.0000
     1.0000   1.0000   1.0000   1.0000   1.0000   1.0000   1.0000   1.0000
     1.0000   1.0000   1.0000   1.0000   1.0000   1.0000   1.0000   1.0000
     1.0000   1.0000   1.0000   1.0000   1.0000   1.0000   1.0000   1.0000
     1.0000   1.0000   1.0000   1.0000   1.0000   1.0000   1.0000   1.0000
     1.0000   1.0000

          k =-0.0169 0.0214-0.1078 ( 36561 PWs)   bands (ev):

   -16.1371 -16.0866 -15.3410 -15.0822 -13.9373 -13.8102 -12.3292 -12.2971
   -11.2431 -11.2167  -8.9626  -8.8842  -8.1841  -8.1519  -6.3735  -6.2846
    -5.3543  -5.2631  -5.0776  -4.9174  -4.3001  -4.1652  -4.1436  -3.9796
    -3.7951  -3.7022  -2.8305  -2.7490  -2.5940  -2.4165  -2.3683  -2.3185
    -1.3192  -1.1738  -1.1129  -0.9669  -0.8975  -0.8233  -0.2604  -0.1478
     0.6983   0.8122

     occupation numbers 
     1.0000   1.0000   1.0000   1.0000   1.0000   1.0000   1.0000   1.0000
     1.0000   1.0000   1.0000   1.0000   1.0000   1.0000   1.0000   1.0000
     1.0000   1.0000   1.0000   1.0000   1.0000   1.0000   1.0000   1.0000
     1.0000   1.0000   1.0000   1.0000   1.0000   1.0000   1.0000   1.0000
     1.0000   1.0000   1.0000   1.0000   1.0000   1.0000   1.0000   1.0000
     1.0000   1.0000

          k =-0.0169 0.0214 0.0936 ( 36547 PWs)   bands (ev):

   -16.1414 -16.0815 -15.3394 -15.0838 -13.9300 -13.8225 -12.3231 -12.3024
   -11.2449 -11.2106  -8.9887  -8.8501  -8.2178  -8.1094  -6.3774  -6.2933
    -5.3549  -5.2608  -5.1075  -4.9146  -4.2900  -4.1792  -4.1032  -4.0065
    -3.7809  -3.7206  -2.7729  -2.7141  -2.6383  -2.4757  -2.3962  -2.3482
    -1.2534  -1.1859  -1.1029  -0.9886  -0.8860  -0.7885  -0.3015  -0.0944
     0.7039   0.8044

     occupation numbers 
     1.0000   1.0000   1.0000   1.0000   1.0000   1.0000   1.0000   1.0000
     1.0000   1.0000   1.0000   1.0000   1.0000   1.0000   1.0000   1.0000
     1.0000   1.0000   1.0000   1.0000   1.0000   1.0000   1.0000   1.0000
     1.0000   1.0000   1.0000   1.0000   1.0000   1.0000   1.0000   1.0000
     1.0000   1.0000   1.0000   1.0000   1.0000   1.0000   1.0000   1.0000
     1.0000   1.0000

          k =-0.0169 0.0214 0.0265 ( 36551 PWs)   bands (ev):

   -16.2132 -16.1571 -15.3932 -15.1623 -13.9447 -13.8250 -12.3494 -12.3080
   -11.2445 -11.1907  -9.0305  -8.8865  -8.2749  -8.1033  -6.4007  -6.2010
    -5.3669  -5.2659  -5.0798  -4.7455  -4.2610  -4.1646  -3.9210  -3.8655
    -3.2543  -3.1835  -2.7731  -2.5913  -2.4003  -2.3497  -2.2453  -2.0910
    -1.1575  -1.1396  -1.0569  -0.9649  -0.9095  -0.7974  -0.0079   0.0560
     0.5921   0.7097

     occupation numbers 
     1.0000   1.0000   1.0000   1.0000   1.0000   1.0000   1.0000   1.0000
     1.0000   1.0000   1.0000   1.0000   1.0000   1.0000   1.0000   1.0000
     1.0000   1.0000   1.0000   1.0000   1.0000   1.0000   1.0000   1.0000
     1.0000   1.0000   1.0000   1.0000   1.0000   1.0000   1.0000   1.0000
     1.0000   1.0000   1.0000   1.0000   1.0000   1.0000   1.0000   1.0000
     1.0000   1.0000

          k =-0.0169 0.0643-0.0407 ( 36518 PWs)   bands (ev):

   -16.1774 -16.1401 -15.4030 -15.1709 -13.9864 -13.8489 -12.4023 -12.3283
   -11.2454 -11.2030  -8.9006  -8.8485  -8.1218  -8.0857  -6.3812  -6.2971
    -5.3248  -5.2307  -5.1064  -4.9108  -4.3284  -4.2405  -4.1011  -3.9080
    -3.3216  -3.2298  -2.6226  -2.5602  -2.4197  -2.3610  -2.1958  -2.0410
    -1.0725  -0.9889  -0.9505  -0.9184  -0.8409  -0.8279  -0.0076   0.0933
     0.6616   0.7365

     occupation numbers 
     1.0000   1.0000   1.0000   1.0000   1.0000   1.0000   1.0000   1.0000
     1.0000   1.0000   1.0000   1.0000   1.0000   1.0000   1.0000   1.0000
     1.0000   1.0000   1.0000   1.0000   1.0000   1.0000   1.0000   1.0000
     1.0000   1.0000   1.0000   1.0000   1.0000   1.0000   1.0000   1.0000
     1.0000   1.0000   1.0000   1.0000   1.0000   1.0000   1.0000   1.0000
     1.0000   1.0000

          k =-0.0169 0.0643-0.1078 ( 36558 PWs)   bands (ev):

   -16.1166 -16.0729 -15.3440 -15.0864 -13.9571 -13.8229 -12.3590 -12.3060
   -11.2628 -11.2383  -8.9081  -8.8839  -8.1624  -8.1355  -6.3709  -6.2682
    -5.3292  -5.2623  -5.0071  -4.8117  -4.3002  -4.2093  -4.1165  -3.9828
    -3.9123  -3.8973  -2.7559  -2.6868  -2.6001  -2.5213  -2.3954  -2.2717
    -1.2615  -1.1208  -1.0701  -1.0044  -0.9366  -0.8555  -0.1031  -0.0192
     0.7325   0.8061

     occupation numbers 
     1.0000   1.0000   1.0000   1.0000   1.0000   1.0000   1.0000   1.0000
     1.0000   1.0000   1.0000   1.0000   1.0000   1.0000   1.0000   1.0000
     1.0000   1.0000   1.0000   1.0000   1.0000   1.0000   1.0000   1.0000
     1.0000   1.0000   1.0000   1.0000   1.0000   1.0000   1.0000   1.0000
     1.0000   1.0000   1.0000   1.0000   1.0000   1.0000   1.0000   1.0000
     1.0000   1.0000

          k =-0.0169 0.0643 0.0936 ( 36547 PWs)   bands (ev):

   -16.1206 -16.0682 -15.3417 -15.0885 -13.9513 -13.8337 -12.3528 -12.3111
   -11.2689 -11.2289  -8.9325  -8.8476  -8.1764  -8.1184  -6.3564  -6.3087
    -5.3301  -5.2573  -4.9475  -4.8480  -4.3160  -4.2000  -4.1368  -4.0207
    -3.9059  -3.8531  -2.8307  -2.6896  -2.6424  -2.4997  -2.3212  -2.3088
    -1.2249  -1.1461  -1.0592  -0.9926  -0.8925  -0.8664  -0.1486   0.0324
     0.7418   0.7984

     occupation numbers 
     1.0000   1.0000   1.0000   1.0000   1.0000   1.0000   1.0000   1.0000
     1.0000   1.0000   1.0000   1.0000   1.0000   1.0000   1.0000   1.0000
     1.0000   1.0000   1.0000   1.0000   1.0000   1.0000   1.0000   1.0000
     1.0000   1.0000   1.0000   1.0000   1.0000   1.0000   1.0000   1.0000
     1.0000   1.0000   1.0000   1.0000   1.0000   1.0000   1.0000   1.0000
     1.0000   1.0000

          k =-0.0169 0.0643 0.0265 ( 36489 PWs)   bands (ev):

   -16.1815 -16.1353 -15.4012 -15.1726 -13.9813 -13.8585 -12.3959 -12.3335
   -11.2526 -11.1936  -8.9226  -8.8155  -8.1457  -8.0516  -6.4020  -6.3145
    -5.3169  -5.2338  -5.0428  -4.9459  -4.3189  -4.2012  -4.1344  -3.9693
    -3.3001  -3.2585  -2.6051  -2.4929  -2.4638  -2.4153  -2.1988  -2.0445
    -1.1082  -1.0066  -0.9495  -0.8706  -0.8248  -0.7773   0.0374   0.0630
     0.6644   0.7313

     occupation numbers 
     1.0000   1.0000   1.0000   1.0000   1.0000   1.0000   1.0000   1.0000
     1.0000   1.0000   1.0000   1.0000   1.0000   1.0000   1.0000   1.0000
     1.0000   1.0000   1.0000   1.0000   1.0000   1.0000   1.0000   1.0000
     1.0000   1.0000   1.0000   1.0000   1.0000   1.0000   1.0000   1.0000
     1.0000   1.0000   1.0000   1.0000   1.0000   1.0000   1.0000   1.0000
     1.0000   1.0000

     highest occupied level (ev):     0.8122

!    total energy              =    -548.04542761 Ry
     Harris-Foulkes estimate   =    -548.04542762 Ry
     estimated scf accuracy    <       0.00000003 Ry

     total all-electron energy =     -4615.888915 Ry

     The total energy is the sum of the following terms:

     one-electron contribution =    -153.57578880 Ry
     hartree contribution      =     108.14054334 Ry
     xc contribution           =    -104.21703822 Ry
     ewald contribution        =    -142.61048156 Ry
     one-center paw contrib.   =    -255.78266237 Ry
      -> PAW hartree energy AE =      18.87279512 Ry
      -> PAW hartree energy PS =     -18.76861186 Ry
      -> PAW xc energy AE      =     -55.60113289 Ry
      -> PAW xc energy PS      =      10.05641140 Ry
      -> total E_H with PAW    =     108.24472659 Ry
      -> total E_XC with PAW   =    -149.76175970 Ry

     convergence has been achieved in  11 iterations
 writing file ./scratch/scf-2117.save/charge-density
 writing file ./scratch/scf-2117.save/charge-density
 writing file ./scratch/scf-2117.save/charge-density
 writing file ./scratch/scf-2117.save/charge-density
 writing file ./scratch/scf-2117.save/charge-density
 writing file ./scratch/scf-2117.save/charge-density
 writing file ./scratch/scf-2117.save/charge-density
 writing file ./scratch/scf-2117.save/charge-density
 writing file ./scratch/scf-2117.save/charge-density
 writing file ./scratch/scf-2117.save/charge-density
 writing file ./scratch/scf-2117.save/charge-density
 writing file ./scratch/scf-2117.save/charge-density
 writing file ./scratch/scf-2117.save/charge-density
 writing file ./scratch/scf-2117.save/charge-density
 writing file ./scratch/scf-2117.save/charge-density
 writing file ./scratch/scf-2117.save/charge-density
 writing file ./scratch/scf-2117.save/charge-density
 writing file ./scratch/scf-2117.save/charge-density
 writing file ./scratch/scf-2117.save/charge-density
 writing file ./scratch/scf-2117.save/charge-density
 writing file ./scratch/scf-2117.save/charge-density
 writing file ./scratch/scf-2117.save/charge-density
 writing file ./scratch/scf-2117.save/charge-density
 writing file ./scratch/scf-2117.save/charge-density
 writing file ./scratch/scf-2117.save/charge-density
 writing file ./scratch/scf-2117.save/charge-density
 writing file ./scratch/scf-2117.save/charge-density
 writing file ./scratch/scf-2117.save/charge-density
 writing file ./scratch/scf-2117.save/charge-density
 writing file ./scratch/scf-2117.save/charge-density
 writing file ./scratch/scf-2117.save/charge-density
 writing file ./scratch/scf-2117.save/charge-density

     Forces acting on atoms (cartesian axes, Ry/au):

     atom    1 type  2   force =    -0.05262337    0.02983232    0.01715085
     atom    2 type  1   force =     0.02623686   -0.02626756    0.00181183
     atom    3 type  1   force =     0.02824270    0.00135049   -0.01194520
     atom    4 type  3   force =    -0.00070314    0.00251730    0.00134265
     atom    5 type  1   force =    -0.00562196   -0.02145805    0.00727520
     atom    6 type  3   force =     0.00066229    0.00317860   -0.00561468
     atom    7 type  3   force =    -0.00034217   -0.00197858   -0.00652501
     atom    8 type  1   force =    -0.00859330    0.01303836    0.02072084
     atom    9 type  3   force =    -0.00131732    0.00055305    0.00371638
     atom   10 type  1   force =     0.00740566   -0.01306188   -0.02016812
     atom   11 type  1   force =     0.03689589    0.01345694    0.01372185
     atom   12 type  2   force =    -0.05658415   -0.02122946   -0.00771513
     atom   13 type  3   force =     0.00181418   -0.00005851   -0.00038160
     atom   14 type  1   force =     0.01085261    0.00852319   -0.00476739
     atom   15 type  3   force =     0.00219190    0.00124270   -0.00469797
     atom   16 type  1   force =     0.00209481    0.00174658    0.02346376
     atom   17 type  1   force =     0.03650618   -0.03531046   -0.02838992
     atom   18 type  2   force =    -0.04300289    0.03553283    0.00891969
     atom   19 type  3   force =     0.00190178    0.00016077   -0.00210367
     atom   20 type  1   force =     0.01344871    0.01431048    0.00576404
     atom   21 type  3   force =     0.00089359    0.00144274    0.00032823
     atom   22 type  1   force =     0.00832260    0.00316433   -0.00275464
     atom   23 type  1   force =     0.01433394    0.01302913   -0.02024892
     atom   24 type  2   force =    -0.02301541   -0.02371532    0.01109692
     The non-local contrib.  to forces
     atom    1 type  2   force =    -0.32186108    0.21488547    0.05982605
     atom    2 type  1   force =     0.42360815   -0.33061291   -0.03158376
     atom    3 type  1   force =    -0.00109650   -0.03565886   -0.07324375
     atom    4 type  3   force =    -0.06601418   -0.01277479   -0.04058032
     atom    5 type  1   force =    -0.03586318   -0.07950461   -0.02705664
     atom    6 type  3   force =    -0.00479573   -0.06027648   -0.05040451
     atom    7 type  3   force =     0.00246279   -0.07108501    0.03384485
     atom    8 type  1   force =     0.01223080   -0.02285805    0.06949841
     atom    9 type  3   force =     0.06450270   -0.02335361    0.03795967
     atom   10 type  1   force =     0.04576162   -0.07092275    0.00494295
     atom   11 type  1   force =    -0.35597394   -0.29163227    0.02747263
     atom   12 type  2   force =     0.27790889    0.27432179   -0.02119144
     atom   13 type  3   force =     0.00623072    0.06361631    0.04622113
     atom   14 type  1   force =     0.05826869    0.05175351    0.03288463
     atom   15 type  3   force =     0.06739930    0.01607783    0.03785670
     atom   16 type  1   force =     0.04495161    0.02598781    0.07887195
     atom   17 type  1   force =    -0.33799511    0.29947970   -0.04924092
     atom   18 type  2   force =     0.28725286   -0.26529811    0.03111386
     atom   19 type  3   force =    -0.00178105    0.06898152   -0.03757354
     atom   20 type  1   force =    -0.00282034    0.05663784   -0.02232565
     atom   21 type  3   force =    -0.06580186    0.02458445   -0.03640095
     atom   22 type  1   force =    -0.02747032    0.07031993   -0.04504711
     atom   23 type  1   force =     0.42265913    0.29976907   -0.05662137
     atom   24 type  2   force =    -0.31136596   -0.24186060    0.04477541
     The ionic contribution  to forces
     atom    1 type  2   force =     6.44838162   -3.73394120    0.88322252
     atom    2 type  1   force =     3.55919333   -2.00739756    0.46085405
     atom    3 type  1   force =     5.10992914    1.42091829    3.14401656
     atom    4 type  3   force =     2.29993591    0.59210414    1.34053480
     atom    5 type  1   force =     2.23496109    4.14633551    2.85589149
     atom    6 type  3   force =     0.60061143    1.80267500    1.54250645
     atom    7 type  3   force =    -0.44045628    1.99217447   -1.22479489
     atom    8 type  1   force =    -1.63807958    3.86072455   -2.81488317
     atom    9 type  3   force =    -2.17775221    0.80922079   -1.28469352
     atom   10 type  1   force =    -5.26129754    2.26939626   -2.42360661
     atom   11 type  1   force =    -3.09471932   -1.05344609   -0.86498919
     atom   12 type  2   force =    -7.46874112   -4.38309709   -0.97900524
     atom   13 type  3   force =    -0.18762511   -1.87136584   -1.27653035
     atom   14 type  1   force =    -0.44549217   -4.15016802   -2.02586758
     atom   15 type  3   force =    -1.96617235   -0.56800558   -1.15255027
     atom   16 type  1   force =    -3.55723848   -1.44127227   -2.39706056
     atom   17 type  1   force =    -1.40001327    1.32844598    0.28809248
     atom   18 type  2   force =    -5.10979234    4.50486935   -0.44785207
     atom   19 type  3   force =     0.10334900   -1.97739448    1.13926980
     atom   20 type  1   force =     0.45598525   -4.04661555    1.82325515
     atom   21 type  3   force =     1.88353154   -0.82218756    1.04142795
     atom   22 type  1   force =     3.68163177   -1.93023277    2.21377796
     atom   23 type  1   force =     1.98408130    1.67359850    0.32207354
     atom   24 type  2   force =     4.38578839    3.58466117   -0.16308928
     The local contribution  to forces
     atom    1 type  2   force =    -6.19447053    3.55898317   -0.92282732
     atom    2 type  1   force =    -3.94488543    2.30289997   -0.42877588
     atom    3 type  1   force =    -5.07918524   -1.38419914   -3.08242269
     atom    4 type  3   force =    -2.23461622   -0.57681071   -1.29860627
     atom    5 type  1   force =    -2.20494624   -4.08748258   -2.82088635
     atom    6 type  3   force =    -0.59516241   -1.73920580   -1.49771412
     atom    7 type  3   force =     0.43763866   -1.92305591    1.18441908
     atom    8 type  1   force =     1.61717922   -3.82366088    2.76562755
     atom    9 type  3   force =     2.11193060   -0.78532048    1.25045261
     atom   10 type  1   force =     5.22159063   -2.21160131    2.39809394
     atom   11 type  1   force =     3.47857899    1.35177858    0.85143368
     atom   12 type  2   force =     7.14332689    4.09764049    0.99143091
     atom   13 type  3   force =     0.18320309    1.80770558    1.22993485
     atom   14 type  1   force =     0.39859693    4.10572468    1.98766224
     atom   15 type  3   force =     1.90097422    0.55316999    1.10999969
     atom   16 type  1   force =     3.51361177    1.41722397    2.34183880
     atom   17 type  1   force =     1.76605642   -1.65647198   -0.26781124
     atom   18 type  2   force =     4.78923616   -4.21324972    0.42718456
     atom   19 type  3   force =    -0.09966960    1.90857470   -1.10380077
     atom   20 type  1   force =    -0.43950276    4.00323852   -1.79462268
     atom   21 type  3   force =    -1.81683040    0.79904187   -1.00469585
     atom   22 type  1   force =    -3.64444924    1.86342885   -2.17097133
     atom   23 type  1   force =    -2.38111213   -1.95236002   -0.28649281
     atom   24 type  2   force =    -4.11096181   -3.37725907    0.13161116
     The core correction contribution to forces
     atom    1 type  2   force =     0.01537716   -0.01014228   -0.00306861
     atom    2 type  1   force =    -0.01175567    0.00879289    0.00127326
     atom    3 type  1   force =    -0.00141173    0.00027666   -0.00029506
     atom    4 type  3   force =     0.00000000    0.00000000    0.00000000
     atom    5 type  1   force =     0.00015657   -0.00078310   -0.00069244
     atom    6 type  3   force =     0.00000000    0.00000000    0.00000000
     atom    7 type  3   force =     0.00000000    0.00000000    0.00000000
     atom    8 type  1   force =    -0.00002759   -0.00113522    0.00043122
     atom    9 type  3   force =     0.00000000    0.00000000    0.00000000
     atom   10 type  1   force =     0.00127435    0.00001057    0.00039727
     atom   11 type  1   force =     0.00894008    0.00673286   -0.00022135
     atom   12 type  2   force =    -0.00897033   -0.00999354    0.00103367
     atom   13 type  3   force =     0.00000000    0.00000000    0.00000000
     atom   14 type  1   force =    -0.00057882    0.00119416    0.00053044
     atom   15 type  3   force =     0.00000000    0.00000000    0.00000000
     atom   16 type  1   force =     0.00077793   -0.00022983   -0.00019305
     atom   17 type  1   force =     0.00841773   -0.00678241    0.00054372
     atom   18 type  2   force =    -0.00965831    0.00920773   -0.00152921
     atom   19 type  3   force =     0.00000000    0.00000000    0.00000000
     atom   20 type  1   force =    -0.00026165    0.00101928   -0.00055789
     atom   21 type  3   force =     0.00000000    0.00000000    0.00000000
     atom   22 type  1   force =    -0.00132878   -0.00043243   -0.00046386
     atom   23 type  1   force =    -0.01126415   -0.00799975    0.00082126
     atom   24 type  2   force =     0.01369709    0.01081324   -0.00213147
     The Hubbard contrib.    to forces
     atom    1 type  2   force =     0.00000000    0.00000000    0.00000000
     atom    2 type  1   force =     0.00000000    0.00000000    0.00000000
     atom    3 type  1   force =     0.00000000    0.00000000    0.00000000
     atom    4 type  3   force =     0.00000000    0.00000000    0.00000000
     atom    5 type  1   force =     0.00000000    0.00000000    0.00000000
     atom    6 type  3   force =     0.00000000    0.00000000    0.00000000
     atom    7 type  3   force =     0.00000000    0.00000000    0.00000000
     atom    8 type  1   force =     0.00000000    0.00000000    0.00000000
     atom    9 type  3   force =     0.00000000    0.00000000    0.00000000
     atom   10 type  1   force =     0.00000000    0.00000000    0.00000000
     atom   11 type  1   force =     0.00000000    0.00000000    0.00000000
     atom   12 type  2   force =     0.00000000    0.00000000    0.00000000
     atom   13 type  3   force =     0.00000000    0.00000000    0.00000000
     atom   14 type  1   force =     0.00000000    0.00000000    0.00000000
     atom   15 type  3   force =     0.00000000    0.00000000    0.00000000
     atom   16 type  1   force =     0.00000000    0.00000000    0.00000000
     atom   17 type  1   force =     0.00000000    0.00000000    0.00000000
     atom   18 type  2   force =     0.00000000    0.00000000    0.00000000
     atom   19 type  3   force =     0.00000000    0.00000000    0.00000000
     atom   20 type  1   force =     0.00000000    0.00000000    0.00000000
     atom   21 type  3   force =     0.00000000    0.00000000    0.00000000
     atom   22 type  1   force =     0.00000000    0.00000000    0.00000000
     atom   23 type  1   force =     0.00000000    0.00000000    0.00000000
     atom   24 type  2   force =     0.00000000    0.00000000    0.00000000
     The SCF correction term to forces
     atom    1 type  2   force =    -0.00005083    0.00004796   -0.00000178
     atom    2 type  1   force =     0.00007619    0.00005086    0.00004419
     atom    3 type  1   force =     0.00000674    0.00001434   -0.00000024
     atom    4 type  3   force =    -0.00000893   -0.00000054   -0.00000554
     atom    5 type  1   force =     0.00006952   -0.00002247    0.00001915
     atom    6 type  3   force =     0.00000872   -0.00001331   -0.00000248
     atom    7 type  3   force =     0.00001237   -0.00001133    0.00000596
     atom    8 type  1   force =     0.00010356   -0.00003123    0.00004686
     atom    9 type  3   force =     0.00000130    0.00000714   -0.00000236
     atom   10 type  1   force =     0.00007631    0.00005616    0.00000435
     atom   11 type  1   force =     0.00006979    0.00002465    0.00002609
     atom   12 type  2   force =    -0.00010876   -0.00010030    0.00001698
     atom   13 type  3   force =     0.00000520   -0.00001376   -0.00000722
     atom   14 type  1   force =     0.00005770    0.00001966    0.00002290
     atom   15 type  3   force =    -0.00000956    0.00000126   -0.00000408
     atom   16 type  1   force =    -0.00000830    0.00003770    0.00000664
     atom   17 type  1   force =     0.00004012    0.00001906    0.00002605
     atom   18 type  2   force =    -0.00004154    0.00000439    0.00000257
     atom   19 type  3   force =     0.00000315   -0.00000017    0.00000085
     atom   20 type  1   force =     0.00004793    0.00003119    0.00001514
     atom   21 type  3   force =    -0.00000599    0.00000478   -0.00000289
     atom   22 type  1   force =    -0.00006111    0.00008155   -0.00005028
     atom   23 type  1   force =    -0.00003050    0.00002213   -0.00002952
     atom   24 type  2   force =    -0.00017341   -0.00006926   -0.00006888

     Total force =     0.153560     Total SCF correction =     0.000377

     Writing output data file scf-2117.save
 writing file ./scratch/scf-2117.save/charge-density
 writing file ./scratch/scf-2117.save/charge-density
 writing file ./scratch/scf-2117.save/charge-density
 writing file ./scratch/scf-2117.save/charge-density
 writing file ./scratch/scf-2117.save/charge-density
 writing file ./scratch/scf-2117.save/charge-density
 writing file ./scratch/scf-2117.save/charge-density
 writing file ./scratch/scf-2117.save/charge-density
 writing file ./scratch/scf-2117.save/charge-density
 writing file ./scratch/scf-2117.save/charge-density
 writing file ./scratch/scf-2117.save/charge-density
 writing file ./scratch/scf-2117.save/charge-density
 writing file ./scratch/scf-2117.save/charge-density
 writing file ./scratch/scf-2117.save/charge-density
 writing file ./scratch/scf-2117.save/charge-density
 writing file ./scratch/scf-2117.save/charge-density
 writing file ./scratch/scf-2117.save/charge-density
 writing file ./scratch/scf-2117.save/charge-density
 writing file ./scratch/scf-2117.save/charge-density
 writing file ./scratch/scf-2117.save/charge-density
 writing file ./scratch/scf-2117.save/charge-density
 writing file ./scratch/scf-2117.save/charge-density
 writing file ./scratch/scf-2117.save/charge-density
 writing file ./scratch/scf-2117.save/charge-density
 writing file ./scratch/scf-2117.save/charge-density
 writing file ./scratch/scf-2117.save/charge-density
 writing file ./scratch/scf-2117.save/charge-density
 writing file ./scratch/scf-2117.save/charge-density
 writing file ./scratch/scf-2117.save/charge-density
 writing file ./scratch/scf-2117.save/charge-density
 writing file ./scratch/scf-2117.save/charge-density
 writing file ./scratch/scf-2117.save/charge-density
 
     init_run     :      4.38s CPU      4.60s WALL (       1 calls)
     electrons    :     50.22s CPU     53.04s WALL (       1 calls)
     forces       :      2.35s CPU      2.49s WALL (       1 calls)

     Called by init_run:
     wfcinit      :      1.60s CPU      1.63s WALL (       1 calls)
     wfcinit:atom :      0.01s CPU      0.02s WALL (      16 calls)
     wfcinit:wfcr :      1.49s CPU      1.51s WALL (      16 calls)
     potinit      :      0.89s CPU      0.91s WALL (       1 calls)

     Called by electrons:
     c_bands      :     39.22s CPU     39.49s WALL (      11 calls)
     sum_band     :      6.97s CPU      8.09s WALL (      11 calls)
     v_of_rho     :      0.90s CPU      0.97s WALL (      12 calls)
     v_h          :      0.05s CPU      0.06s WALL (      12 calls)
     v_xc         :      0.93s CPU      0.98s WALL (      13 calls)
     newd         :      1.48s CPU      2.86s WALL (      12 calls)
     PAW_pot      :      1.64s CPU      1.69s WALL (      12 calls)
     mix_rho      :      0.14s CPU      0.14s WALL (      11 calls)

     Called by c_bands:
     init_us_2    :      0.83s CPU      0.87s WALL (     384 calls)
     cegterg      :     36.90s CPU     37.11s WALL (     176 calls)

     Called by sum_band:
     sum_band:bec :      0.02s CPU      0.02s WALL (     176 calls)
     addusdens    :      1.59s CPU      2.70s WALL (      11 calls)

     Called by *egterg:
     h_psi        :     27.50s CPU     27.63s WALL (     861 calls)
     s_psi        :      2.15s CPU      2.07s WALL (     861 calls)
     g_psi        :      0.14s CPU      0.16s WALL (     669 calls)
     cdiaghg      :      3.52s CPU      3.49s WALL (     845 calls)
     cegterg:over :      1.61s CPU      1.63s WALL (     669 calls)
     cegterg:upda :      1.15s CPU      1.28s WALL (     669 calls)
     cegterg:last :      0.44s CPU      0.43s WALL (     192 calls)

     Called by h_psi:
     h_psi:pot    :     27.22s CPU     27.35s WALL (     861 calls)
     h_psi:calbec :      2.24s CPU      2.26s WALL (     861 calls)
     vloc_psi     :     23.01s CPU     23.09s WALL (     861 calls)
     add_vuspsi   :      1.96s CPU      2.00s WALL (     861 calls)

     General routines
     calbec       :      3.04s CPU      3.01s WALL (    1101 calls)
     fft          :      0.77s CPU      0.78s WALL (     199 calls)
     ffts         :      0.04s CPU      0.03s WALL (      23 calls)
     fftw         :     21.20s CPU     21.27s WALL (   55626 calls)
     interpolate  :      0.15s CPU      0.15s WALL (      23 calls)
     davcio       :      0.00s CPU      0.01s WALL (      16 calls)
 
     Parallel routines
     fft_scatter  :      7.44s CPU      7.46s WALL (   55848 calls)

     PAW routines
     PAW_pot      :      1.64s CPU      1.69s WALL (      12 calls)
 
     PWSCF        :  0m57.63s CPU     1m 6.38s WALL

 
   This run was terminated on:  13:30:33  20May2017            

=------------------------------------------------------------------------------=
   JOB DONE.
=------------------------------------------------------------------------------=
