
     Program PWSCF v.6.1 starts on 20May2017 at 15:32: 8 

     This program is part of the open-source Quantum ESPRESSO suite
     for quantum simulation of materials; please cite
         "P. Giannozzi et al., J. Phys.:Condens. Matter 21 395502 (2009);
          URL http://www.quantum-espresso.org", 
     in publications or presentations arising from this work. More details at
     http://www.quantum-espresso.org/quote

     Parallel version (MPI & OpenMP), running on      32 processor cores
     Number of MPI processes:                32
     Threads/MPI process:                     1
     R & G space division:  proc/nbgrp/npool/nimage =      32
     Waiting for input...
     Reading input from standard input
Warning: card &IONS ignored
Warning: card     ION_TEMPERATURE   = 'INITIAL' ignored
Warning: card     TEMPW             = 586.D0 ignored
Warning: card     TOLP              = 100.D0 ignored
Warning: card     DELTA_T           = 1.D0 ignored
Warning: card     NRAISE            = 1 ignored
Warning: card / ignored
Warning: card &CELL ignored
Warning: card     CELL_DYNAMICS     = 'BFGS' ignored
Warning: card / ignored

     Current dimensions of program PWSCF are:
     Max number of different atomic species (ntypx) = 10
     Max number of k-points (npk) =  40000
     Max angular momentum in pseudopotentials (lmaxx) =  3
               file C.pbe-n-kjpaw_psl.1.0.0.UPF: wavefunction(s)  2S 2P renormalized
               file Cl.pbe-n-kjpaw_psl.1.0.0.UPF: wavefunction(s)  3S 3P renormalized
               file H.pbe-kjpaw_psl.1.0.0.UPF: wavefunction(s)  1S renormalized

     Subspace diagonalization in iterative solution of the eigenvalue problem:
     a serial algorithm will be used

 
     Parallelization info
     --------------------
     sticks:   dense  smooth     PW     G-vecs:    dense   smooth      PW
     Min         764     305     83                36108     9133    1292
     Max         765     306     84                36110     9135    1293
     Sum       24467    9791   2657              1155489   292295   41363
 


     bravais-lattice index     =            0
     lattice parameter (alat)  =       1.8897  a.u.
     unit-cell volume          =    2163.5316 (a.u.)^3
     number of atoms/cell      =           24
     number of atomic types    =            3
     number of electrons       =        84.00
     number of Kohn-Sham states=           42
     kinetic-energy cutoff     =     100.0000  Ry
     charge density cutoff     =    1000.0000  Ry
     convergence threshold     =      1.0E-07
     mixing beta               =       0.7000
     number of iterations used =            8  plain     mixing
     Exchange-correlation      =  SLA  PW   PBX  PBC ( 1  4  3  4 0 0)

     celldm(1)=   1.889726  celldm(2)=   0.000000  celldm(3)=   0.000000
     celldm(4)=   0.000000  celldm(5)=   0.000000  celldm(6)=   0.000000

     crystal axes: (cart. coord. in units of alat)
               a(1) = (  14.762000   0.000000   0.000000 )  
               a(2) = (   0.000000   5.832000   0.000000 )  
               a(3) = (  -1.563876   0.000000   3.723951 )  

     reciprocal axes: (cart. coord. in units 2 pi/alat)
               b(1) = (  0.067741  0.000000  0.028448 )  
               b(2) = (  0.000000  0.171468  0.000000 )  
               b(3) = (  0.000000  0.000000  0.268532 )  


     PseudoPot. # 1 for  C read from file:
     /global/cscratch1/sd/almno10/.data/PSEUDOPOTENTIALS/C.pbe-n-kjpaw_psl.1.0.0.UPF
     MD5 check sum: 2ba8448e293caca687844dde9a1b88a8
     Pseudo is Projector augmented-wave + core cor, Zval =  4.0
     Generated using "atomic" code by A. Dal Corso  v.5.3.0 svn rev. 11974
     Shape of augmentation charge: PSQ
     Using radial grid of 1073 points,  4 beta functions with: 
                l(1) =   0
                l(2) =   0
                l(3) =   1
                l(4) =   1
     Q(r) pseudized with 0 coefficients 


     PseudoPot. # 2 for Cl read from file:
     /global/cscratch1/sd/almno10/.data/PSEUDOPOTENTIALS/Cl.pbe-n-kjpaw_psl.1.0.0.UPF
     MD5 check sum: dca63699d6b897c5771335df08a09219
     Pseudo is Projector augmented-wave + core cor, Zval =  7.0
     Generated using "atomic" code by A. Dal Corso  v.5.3.0 svn rev. 11974
     Shape of augmentation charge: PSQ
     Using radial grid of 1157 points,  6 beta functions with: 
                l(1) =   0
                l(2) =   0
                l(3) =   1
                l(4) =   1
                l(5) =   2
                l(6) =   2
     Q(r) pseudized with 0 coefficients 


     PseudoPot. # 3 for  H read from file:
     /global/cscratch1/sd/almno10/.data/PSEUDOPOTENTIALS/H.pbe-kjpaw_psl.1.0.0.UPF
     MD5 check sum: bc0feb48a24907a0b97fa6ee2d589a29
     Pseudo is Projector augmented-wave, Zval =  1.0
     Generated using "atomic" code by A. Dal Corso  v.5.3.0 svn rev. 11974
     Shape of augmentation charge: PSQ
     Using radial grid of  929 points,  2 beta functions with: 
                l(1) =   0
                l(2) =   0
     Q(r) pseudized with 0 coefficients 


     atomic species   valence    mass     pseudopotential
        C              4.00    12.01100      C( 1.00)
        Cl             7.00    35.45270     Cl( 1.00)
        H              1.00     1.00790      H( 1.00)

     No symmetry found


                                    s                        frac. trans.

      isym =  1     identity                                     

 cryst.   s( 1) = (     1          0          0      )
                  (     0          1          0      )
                  (     0          0          1      )

 cart.    s( 1) = (  1.0000000  0.0000000 -0.0000000 )
                  (  0.0000000  1.0000000  0.0000000 )
                  (  0.0000000  0.0000000  1.0000000 )


   Cartesian axes

     site n.     atom                  positions (alat units)
         1           Cl  tau(   1) = (  16.2577885   0.6428752   1.7492720  )
         2           C   tau(   2) = (  14.8908092   1.8955417   1.8408519  )
         3           C   tau(   3) = (  15.1599437   3.0990023   2.4914329  )
         4           H   tau(   4) = (  16.1361858   3.3412433   2.9095480  )
         5           C   tau(   5) = (  14.1131010   4.0141420   2.5895105  )
         6           H   tau(   6) = (  14.2708027   4.9666709   3.0935896  )
         7           H   tau(   7) = (   6.8081829   2.1958401   0.4235948  )
         8           C   tau(   8) = (   6.7195809   1.3000467   1.0344143  )
         9           H   tau(   9) = (   4.7430567   0.8204636   0.3141773  )
        10           C   tau(  10) = (   5.5776337   0.5031154   0.9380491  )
        11           C   tau(  11) = (   5.4993040  -0.6421789   1.7295480  )
        12           Cl  tau(  12) = (   4.1647347  -1.7113750   1.6950435  )
        13           H   tau(  13) = (  13.4989679   0.7286833   0.7008375  )
        14           C   tau(  14) = (  13.6443495   1.6455886   1.2677613  )
        15           H   tau(  15) = (  11.6515521   2.3730185   0.8897399  )
        16           C   tau(  16) = (  12.6157610   2.5833650   1.3469875  )
        17           C   tau(  17) = (  12.8502360   3.7312979   2.0699458  )
        18           Cl  tau(  18) = (  11.6305866   4.8523160   2.1162600  )
        19           H   tau(  19) = (   6.4255136  -1.8663815   3.2391866  )
        20           C   tau(  20) = (   6.5411114  -1.0048141   2.5833212  )
        21           H   tau(  21) = (   8.4883248  -0.4920736   3.3494302  )
        22           C   tau(  22) = (   7.6803174  -0.2079848   2.6786565  )
        23           C   tau(  23) = (   7.7897794   0.8901577   1.8281413  )
        24           Cl  tau(  24) = (   9.2465774   1.9312554   1.8680329  )

   Crystallographic axes

     site n.     atom                  positions (cryst. coord.)
         1           Cl  tau(   1) = (  1.1510904  0.1102324  0.4697355  )
         2           C   tau(   2) = (  1.0610944  0.3250243  0.4943276  )
         3           C   tau(   3) = (  1.0978338  0.5313790  0.6690294  )
         4           H   tau(   4) = (  1.1758605  0.5729155  0.7813067  )
         5           C   tau(   5) = (  1.0297092  0.6882960  0.6953663  )
         6           H   tau(   6) = (  1.0547323  0.8516239  0.8307277  )
         7           H   tau(   7) = (  0.4732470  0.3765158  0.1137487  )
         8           C   tau(   8) = (  0.4846216  0.2229161  0.2777733  )
         9           H   tau(   9) = (  0.3302395  0.1406831  0.0843666  )
        10           C   tau(  10) = (  0.4045230  0.0862681  0.2518962  )
        11           C   tau(  11) = (  0.4217334 -0.1101130  0.4644389  )
        12           Cl  tau(  12) = (  0.3303461 -0.2934457  0.4551734  )
        13           H   tau(  13) = (  0.9343778  0.1249457  0.1881973  )
        14           C   tau(  14) = (  0.9603541  0.2821654  0.3404344  )
        15           H   tau(  15) = (  0.8146050  0.4068962  0.2389236  )
        16           C   tau(  16) = (  0.8929298  0.4429638  0.3617092  )
        17           C   tau(  17) = (  0.9293802  0.6397973  0.5558466  )
        18           Cl  tau(  18) = (  0.8480769  0.8320158  0.5682835  )
        19           H   tau(  19) = (  0.5274226 -0.3200243  0.8698251  )
        20           C   tau(  20) = (  0.5165952 -0.1722932  0.6937043  )
        21           H   tau(  21) = (  0.6702967 -0.0843748  0.8994291  )
        22           C   tau(  22) = (  0.5964788 -0.0356627  0.7193049  )
        23           C   tau(  23) = (  0.5796984  0.1526334  0.4909144  )
        24           Cl  tau(  24) = (  0.6795190  0.3311480  0.5016266  )

     number of k points=    16
                       cart. coord. in units 2pi/alat
        k(    1) = (   0.0169354   0.0214335   0.0406785), wk =   0.1250000
        k(    2) = (   0.0169354   0.0214335   0.1078115), wk =   0.1250000
        k(    3) = (   0.0169354   0.0214335  -0.0935875), wk =   0.1250000
        k(    4) = (   0.0169354   0.0214335  -0.0264545), wk =   0.1250000
        k(    5) = (   0.0169354   0.0643004   0.0406785), wk =   0.1250000
        k(    6) = (   0.0169354   0.0643004   0.1078115), wk =   0.1250000
        k(    7) = (   0.0169354   0.0643004  -0.0935875), wk =   0.1250000
        k(    8) = (   0.0169354   0.0643004  -0.0264545), wk =   0.1250000
        k(    9) = (  -0.0169354   0.0214335  -0.0406785), wk =   0.1250000
        k(   10) = (  -0.0169354   0.0214335  -0.1078115), wk =   0.1250000
        k(   11) = (  -0.0169354   0.0214335   0.0935875), wk =   0.1250000
        k(   12) = (  -0.0169354   0.0214335   0.0264545), wk =   0.1250000
        k(   13) = (  -0.0169354   0.0643004  -0.0406785), wk =   0.1250000
        k(   14) = (  -0.0169354   0.0643004  -0.1078115), wk =   0.1250000
        k(   15) = (  -0.0169354   0.0643004   0.0935875), wk =   0.1250000
        k(   16) = (  -0.0169354   0.0643004   0.0264545), wk =   0.1250000

                       cryst. coord.
        k(    1) = (   0.2500000   0.1250000   0.1250000), wk =   0.1250000
        k(    2) = (   0.2500000   0.1250000   0.3750000), wk =   0.1250000
        k(    3) = (   0.2500000   0.1250000  -0.3750000), wk =   0.1250000
        k(    4) = (   0.2500000   0.1250000  -0.1250000), wk =   0.1250000
        k(    5) = (   0.2500000   0.3750000   0.1250000), wk =   0.1250000
        k(    6) = (   0.2500000   0.3750000   0.3750000), wk =   0.1250000
        k(    7) = (   0.2500000   0.3750000  -0.3750000), wk =   0.1250000
        k(    8) = (   0.2500000   0.3750000  -0.1250000), wk =   0.1250000
        k(    9) = (  -0.2500000   0.1250000  -0.1250000), wk =   0.1250000
        k(   10) = (  -0.2500000   0.1250000  -0.3750000), wk =   0.1250000
        k(   11) = (  -0.2500000   0.1250000   0.3750000), wk =   0.1250000
        k(   12) = (  -0.2500000   0.1250000   0.1250000), wk =   0.1250000
        k(   13) = (  -0.2500000   0.3750000  -0.1250000), wk =   0.1250000
        k(   14) = (  -0.2500000   0.3750000  -0.3750000), wk =   0.1250000
        k(   15) = (  -0.2500000   0.3750000   0.3750000), wk =   0.1250000
        k(   16) = (  -0.2500000   0.3750000   0.1250000), wk =   0.1250000

     Dense  grid:  1155489 G-vectors     FFT dimensions: ( 288, 120,  80)

     Smooth grid:   292295 G-vectors     FFT dimensions: ( 180,  72,  50)

     Estimated max dynamical RAM per process >     147.21MB

     Estimated total allocated dynamical RAM >    4710.62MB

     Initial potential from superposition of free atoms

     starting charge   83.99939, renormalised to   84.00000
     Starting wfc are   72 randomized atomic wfcs
     Checking if some PAW data can be deallocated... 
       node    0, deallocated PAW data for type:  1
       node    0, deallocated PAW data for type:  3
       node    1, deallocated PAW data for type:  1
       node    1, deallocated PAW data for type:  3
       node    2, deallocated PAW data for type:  2
       node    2, deallocated PAW data for type:  3
       node    3, deallocated PAW data for type:  2
       node    3, deallocated PAW data for type:  3
       node    4, deallocated PAW data for type:  2
       node    4, deallocated PAW data for type:  3
       node    5, deallocated PAW data for type:  2
       node    5, deallocated PAW data for type:  3
       node    6, deallocated PAW data for type:  1
       node    6, deallocated PAW data for type:  2
       node    7, deallocated PAW data for type:  1
       node    7, deallocated PAW data for type:  2
       node    8, deallocated PAW data for type:  2
       node    8, deallocated PAW data for type:  3
       node    9, deallocated PAW data for type:  2
       node    9, deallocated PAW data for type:  3
       node   10, deallocated PAW data for type:  1
       node   10, deallocated PAW data for type:  2
       node   11, deallocated PAW data for type:  1
       node   11, deallocated PAW data for type:  2
       node   12, deallocated PAW data for type:  1
       node   12, deallocated PAW data for type:  2
       node   13, deallocated PAW data for type:  1
       node   13, deallocated PAW data for type:  2
       node   14, deallocated PAW data for type:  2
       node   14, deallocated PAW data for type:  3
       node   15, deallocated PAW data for type:  2
       node   15, deallocated PAW data for type:  3
       node   16, deallocated PAW data for type:  1
       node   16, deallocated PAW data for type:  2
       node   17, deallocated PAW data for type:  2
       node   17, deallocated PAW data for type:  3
       node   18, deallocated PAW data for type:  2
       node   18, deallocated PAW data for type:  3
       node   19, deallocated PAW data for type:  1
       node   19, deallocated PAW data for type:  3
       node   20, deallocated PAW data for type:  1
       node   20, deallocated PAW data for type:  2
       node   21, deallocated PAW data for type:  2
       node   21, deallocated PAW data for type:  3
       node   22, deallocated PAW data for type:  1
       node   22, deallocated PAW data for type:  2
       node   23, deallocated PAW data for type:  2
       node   23, deallocated PAW data for type:  3
       node   24, deallocated PAW data for type:  2
       node   24, deallocated PAW data for type:  3
       node   25, deallocated PAW data for type:  1
       node   25, deallocated PAW data for type:  3
       node   26, deallocated PAW data for type:  1
       node   26, deallocated PAW data for type:  2
       node   27, deallocated PAW data for type:  2
       node   27, deallocated PAW data for type:  3
       node   28, deallocated PAW data for type:  1
       node   28, deallocated PAW data for type:  2
       node   29, deallocated PAW data for type:  2
       node   29, deallocated PAW data for type:  3
       node   30, deallocated PAW data for type:  2
       node   30, deallocated PAW data for type:  3
       node   31, deallocated PAW data for type:  1
       node   31, deallocated PAW data for type:  3

     total cpu time spent up to now is        5.2 secs

     per-process dynamical memory:    20.7 Mb

     Self-consistent Calculation

     iteration #  1     ecut=   100.00 Ry     beta= 0.70
     Davidson diagonalization with overlap
     ethr =  1.00E-04,  avg # of iterations =  5.0

     total cpu time spent up to now is       12.0 secs

     total energy              =    -547.11180839 Ry
     Harris-Foulkes estimate   =    -548.99396168 Ry
     estimated scf accuracy    <       2.75023108 Ry

     iteration #  2     ecut=   100.00 Ry     beta= 0.70
     Davidson diagonalization with overlap
     ethr =  3.27E-03,  avg # of iterations =  3.0

     total cpu time spent up to now is       16.9 secs

     total energy              =    -547.51751814 Ry
     Harris-Foulkes estimate   =    -548.60913812 Ry
     estimated scf accuracy    <       1.97220981 Ry

     iteration #  3     ecut=   100.00 Ry     beta= 0.70
     Davidson diagonalization with overlap
     ethr =  2.35E-03,  avg # of iterations =  2.9

     total cpu time spent up to now is       21.3 secs

     total energy              =    -548.00785746 Ry
     Harris-Foulkes estimate   =    -548.04936892 Ry
     estimated scf accuracy    <       0.08348500 Ry

     iteration #  4     ecut=   100.00 Ry     beta= 0.70
     Davidson diagonalization with overlap
     ethr =  9.94E-05,  avg # of iterations =  4.0

     total cpu time spent up to now is       26.2 secs

     total energy              =    -548.03464075 Ry
     Harris-Foulkes estimate   =    -548.04553088 Ry
     estimated scf accuracy    <       0.02159311 Ry

     iteration #  5     ecut=   100.00 Ry     beta= 0.70
     Davidson diagonalization with overlap
     ethr =  2.57E-05,  avg # of iterations =  3.0

     total cpu time spent up to now is       30.6 secs

     total energy              =    -548.03899784 Ry
     Harris-Foulkes estimate   =    -548.03975272 Ry
     estimated scf accuracy    <       0.00145279 Ry

     iteration #  6     ecut=   100.00 Ry     beta= 0.70
     Davidson diagonalization with overlap
     ethr =  1.73E-06,  avg # of iterations =  4.0

     total cpu time spent up to now is       35.5 secs

     total energy              =    -548.03931226 Ry
     Harris-Foulkes estimate   =    -548.03972227 Ry
     estimated scf accuracy    <       0.00094029 Ry

     iteration #  7     ecut=   100.00 Ry     beta= 0.70
     Davidson diagonalization with overlap
     ethr =  1.12E-06,  avg # of iterations =  4.0

     total cpu time spent up to now is       39.9 secs

     total energy              =    -548.03950052 Ry
     Harris-Foulkes estimate   =    -548.03956822 Ry
     estimated scf accuracy    <       0.00016904 Ry

     iteration #  8     ecut=   100.00 Ry     beta= 0.70
     Davidson diagonalization with overlap
     ethr =  2.01E-07,  avg # of iterations =  4.0

     total cpu time spent up to now is       44.4 secs

     total energy              =    -548.03953604 Ry
     Harris-Foulkes estimate   =    -548.03954870 Ry
     estimated scf accuracy    <       0.00003123 Ry

     iteration #  9     ecut=   100.00 Ry     beta= 0.70
     Davidson diagonalization with overlap
     ethr =  3.72E-08,  avg # of iterations =  4.0

     total cpu time spent up to now is       48.9 secs

     total energy              =    -548.03954218 Ry
     Harris-Foulkes estimate   =    -548.03954337 Ry
     estimated scf accuracy    <       0.00000254 Ry

     iteration # 10     ecut=   100.00 Ry     beta= 0.70
     Davidson diagonalization with overlap
     ethr =  3.02E-09,  avg # of iterations =  4.0

     total cpu time spent up to now is       53.7 secs

     total energy              =    -548.03954290 Ry
     Harris-Foulkes estimate   =    -548.03954324 Ry
     estimated scf accuracy    <       0.00000078 Ry

     iteration # 11     ecut=   100.00 Ry     beta= 0.70
     Davidson diagonalization with overlap
     ethr =  9.29E-10,  avg # of iterations =  4.0

     total cpu time spent up to now is       58.3 secs

     End of self-consistent calculation

          k = 0.0169 0.0214 0.0407 ( 36525 PWs)   bands (ev):

   -16.2943 -16.2076 -15.4175 -15.0563 -14.0286 -13.7333 -12.4302 -12.2226
   -11.3538 -11.1580  -9.0812  -8.8823  -8.3040  -8.0954  -6.4439  -6.2351
    -5.4159  -5.2276  -5.0332  -4.7938  -4.2657  -4.1059  -4.0013  -3.8545
    -3.2682  -3.1911  -2.7845  -2.5940  -2.5136  -2.2813  -2.2118  -2.0266
    -1.2411  -1.1328  -0.9899  -0.9520  -0.8971  -0.6853  -0.2509   0.2522
     0.5707   0.7760

     occupation numbers 
     1.0000   1.0000   1.0000   1.0000   1.0000   1.0000   1.0000   1.0000
     1.0000   1.0000   1.0000   1.0000   1.0000   1.0000   1.0000   1.0000
     1.0000   1.0000   1.0000   1.0000   1.0000   1.0000   1.0000   1.0000
     1.0000   1.0000   1.0000   1.0000   1.0000   1.0000   1.0000   1.0000
     1.0000   1.0000   1.0000   1.0000   1.0000   1.0000   1.0000   1.0000
     1.0000   1.0000

          k = 0.0169 0.0214 0.1078 ( 36561 PWs)   bands (ev):

   -16.2285 -16.1227 -15.3616 -15.0055 -13.9991 -13.7166 -12.4551 -12.1943
   -11.3478 -11.1493  -9.0499  -8.8479  -8.3036  -8.0423  -6.4429  -6.2734
    -5.4189  -5.2404  -5.0819  -4.9061  -4.2976  -4.2833  -4.1034  -3.9463
    -3.8366  -3.6530  -2.8834  -2.7322  -2.5907  -2.4399  -2.3576  -2.1985
    -1.3441  -1.2289  -1.1132  -1.0353  -0.8354  -0.7503  -0.2396  -0.0544
     0.5603   0.8463

     occupation numbers 
     1.0000   1.0000   1.0000   1.0000   1.0000   1.0000   1.0000   1.0000
     1.0000   1.0000   1.0000   1.0000   1.0000   1.0000   1.0000   1.0000
     1.0000   1.0000   1.0000   1.0000   1.0000   1.0000   1.0000   1.0000
     1.0000   1.0000   1.0000   1.0000   1.0000   1.0000   1.0000   1.0000
     1.0000   1.0000   1.0000   1.0000   1.0000   1.0000   1.0000   1.0000
     1.0000   1.0000

          k = 0.0169 0.0214-0.0936 ( 36547 PWs)   bands (ev):

   -16.2323 -16.1192 -15.3640 -15.0026 -14.0016 -13.7072 -12.4648 -12.1887
   -11.3456 -11.1688  -9.0148  -8.8714  -8.2716  -8.0828  -6.4220  -6.2249
    -5.4117  -5.2436  -5.1773  -4.8199  -4.3426  -4.2948  -4.1231  -3.9966
    -3.8749  -3.6166  -2.7919  -2.6720  -2.5566  -2.4936  -2.3877  -2.1820
    -1.3067  -1.1649  -1.1228  -1.0609  -0.9221  -0.7978  -0.2078  -0.1150
     0.5534   0.8625

     occupation numbers 
     1.0000   1.0000   1.0000   1.0000   1.0000   1.0000   1.0000   1.0000
     1.0000   1.0000   1.0000   1.0000   1.0000   1.0000   1.0000   1.0000
     1.0000   1.0000   1.0000   1.0000   1.0000   1.0000   1.0000   1.0000
     1.0000   1.0000   1.0000   1.0000   1.0000   1.0000   1.0000   1.0000
     1.0000   1.0000   1.0000   1.0000   1.0000   1.0000   1.0000   1.0000
     1.0000   1.0000

          k = 0.0169 0.0214-0.0265 ( 36551 PWs)   bands (ev):

   -16.2983 -16.2036 -15.4199 -15.0536 -14.0311 -13.7233 -12.4405 -12.2184
   -11.3521 -11.1745  -9.0491  -8.9053  -8.2952  -8.1034  -6.4547  -6.1560
    -5.4127  -5.2353  -5.1370  -4.6961  -4.3424  -4.1498  -4.0480  -3.7772
    -3.3031  -3.1646  -2.7846  -2.5346  -2.4815  -2.3006  -2.1552  -2.0482
    -1.2153  -1.1224  -1.0217  -0.9507  -0.9183  -0.7531  -0.2358   0.1886
     0.5758   0.7914

     occupation numbers 
     1.0000   1.0000   1.0000   1.0000   1.0000   1.0000   1.0000   1.0000
     1.0000   1.0000   1.0000   1.0000   1.0000   1.0000   1.0000   1.0000
     1.0000   1.0000   1.0000   1.0000   1.0000   1.0000   1.0000   1.0000
     1.0000   1.0000   1.0000   1.0000   1.0000   1.0000   1.0000   1.0000
     1.0000   1.0000   1.0000   1.0000   1.0000   1.0000   1.0000   1.0000
     1.0000   1.0000

          k = 0.0169 0.0643 0.0407 ( 36518 PWs)   bands (ev):

   -16.2646 -16.1890 -15.4229 -15.0573 -14.0499 -13.7991 -12.4609 -12.2747
   -11.3627 -11.1281  -9.0148  -8.7873  -8.2417  -7.9523  -6.4526  -6.3304
    -5.3905  -5.2190  -5.0659  -4.8948  -4.3499  -4.2587  -4.0938  -3.8667
    -3.3417  -3.2653  -2.7038  -2.5522  -2.4707  -2.3884  -2.1965  -1.9887
    -1.1365  -1.0178  -0.9572  -0.7907  -0.7234  -0.6939  -0.2131   0.2747
     0.6362   0.7476

     occupation numbers 
     1.0000   1.0000   1.0000   1.0000   1.0000   1.0000   1.0000   1.0000
     1.0000   1.0000   1.0000   1.0000   1.0000   1.0000   1.0000   1.0000
     1.0000   1.0000   1.0000   1.0000   1.0000   1.0000   1.0000   1.0000
     1.0000   1.0000   1.0000   1.0000   1.0000   1.0000   1.0000   1.0000
     1.0000   1.0000   1.0000   1.0000   1.0000   1.0000   1.0000   1.0000
     1.0000   1.0000

          k = 0.0169 0.0643 0.1078 ( 36558 PWs)   bands (ev):

   -16.2085 -16.1112 -15.3631 -15.0002 -14.0109 -13.7606 -12.4610 -12.2261
   -11.3577 -11.1585  -9.0517  -8.7962  -8.3038  -7.9908  -6.4616  -6.2663
    -5.4138  -5.2147  -5.0027  -4.7983  -4.3349  -4.1815  -4.0861  -4.0158
    -3.9686  -3.8003  -2.7978  -2.7553  -2.5715  -2.5204  -2.4336  -2.2276
    -1.3043  -1.1886  -1.0333  -0.9886  -0.8927  -0.7435  -0.0845   0.0783
     0.5805   0.7967

     occupation numbers 
     1.0000   1.0000   1.0000   1.0000   1.0000   1.0000   1.0000   1.0000
     1.0000   1.0000   1.0000   1.0000   1.0000   1.0000   1.0000   1.0000
     1.0000   1.0000   1.0000   1.0000   1.0000   1.0000   1.0000   1.0000
     1.0000   1.0000   1.0000   1.0000   1.0000   1.0000   1.0000   1.0000
     1.0000   1.0000   1.0000   1.0000   1.0000   1.0000   1.0000   1.0000
     1.0000   1.0000

          k = 0.0169 0.0643-0.0936 ( 36547 PWs)   bands (ev):

   -16.2121 -16.1079 -15.3651 -14.9974 -14.0139 -13.7513 -12.4708 -12.2192
   -11.3576 -11.1773  -9.0163  -8.8171  -8.2723  -8.0360  -6.4434  -6.2270
    -5.4086  -5.2145  -5.0456  -4.7237  -4.3330  -4.2535  -4.1864  -4.0152
    -3.9799  -3.7504  -2.7955  -2.7031  -2.6228  -2.5732  -2.3529  -2.1238
    -1.2608  -1.1497  -1.1048  -1.0037  -0.9715  -0.7752  -0.0574   0.0220
     0.5767   0.8168

     occupation numbers 
     1.0000   1.0000   1.0000   1.0000   1.0000   1.0000   1.0000   1.0000
     1.0000   1.0000   1.0000   1.0000   1.0000   1.0000   1.0000   1.0000
     1.0000   1.0000   1.0000   1.0000   1.0000   1.0000   1.0000   1.0000
     1.0000   1.0000   1.0000   1.0000   1.0000   1.0000   1.0000   1.0000
     1.0000   1.0000   1.0000   1.0000   1.0000   1.0000   1.0000   1.0000
     1.0000   1.0000

          k = 0.0169 0.0643-0.0265 ( 36489 PWs)   bands (ev):

   -16.2682 -16.1858 -15.4247 -15.0545 -14.0530 -13.7905 -12.4700 -12.2665
   -11.3645 -11.1471  -8.9818  -8.8037  -8.2069  -7.9958  -6.4449  -6.3007
    -5.3837  -5.1946  -5.1426  -4.7877  -4.3382  -4.3140  -4.1791  -3.9202
    -3.3686  -3.2227  -2.6436  -2.4772  -2.4307  -2.3957  -2.2305  -1.9795
    -1.1096  -1.0162  -0.9571  -0.8972  -0.7402  -0.6920  -0.1988   0.2321
     0.6304   0.7573

     occupation numbers 
     1.0000   1.0000   1.0000   1.0000   1.0000   1.0000   1.0000   1.0000
     1.0000   1.0000   1.0000   1.0000   1.0000   1.0000   1.0000   1.0000
     1.0000   1.0000   1.0000   1.0000   1.0000   1.0000   1.0000   1.0000
     1.0000   1.0000   1.0000   1.0000   1.0000   1.0000   1.0000   1.0000
     1.0000   1.0000   1.0000   1.0000   1.0000   1.0000   1.0000   1.0000
     1.0000   1.0000

          k =-0.0169 0.0214-0.0407 ( 36525 PWs)   bands (ev):

   -16.2975 -16.2048 -15.4190 -15.0542 -14.0312 -13.7234 -12.4400 -12.2184
   -11.3518 -11.1754  -9.0457  -8.9069  -8.2770  -8.1297  -6.4339  -6.1662
    -5.4060  -5.2357  -5.1146  -4.7655  -4.2682  -4.1807  -4.0677  -3.7821
    -3.3040  -3.1556  -2.7616  -2.5522  -2.4878  -2.2696  -2.1582  -2.0506
    -1.2204  -1.1241  -1.0477  -0.9478  -0.9083  -0.7496  -0.2366   0.1910
     0.5716   0.7940

     occupation numbers 
     1.0000   1.0000   1.0000   1.0000   1.0000   1.0000   1.0000   1.0000
     1.0000   1.0000   1.0000   1.0000   1.0000   1.0000   1.0000   1.0000
     1.0000   1.0000   1.0000   1.0000   1.0000   1.0000   1.0000   1.0000
     1.0000   1.0000   1.0000   1.0000   1.0000   1.0000   1.0000   1.0000
     1.0000   1.0000   1.0000   1.0000   1.0000   1.0000   1.0000   1.0000
     1.0000   1.0000

          k =-0.0169 0.0214-0.1078 ( 36561 PWs)   bands (ev):

   -16.2320 -16.1197 -15.3633 -15.0032 -14.0019 -13.7068 -12.4649 -12.1880
   -11.3467 -11.1686  -9.0155  -8.8699  -8.2680  -8.0873  -6.4192  -6.2289
    -5.4102  -5.2407  -5.1608  -4.8601  -4.3495  -4.2641  -4.1278  -3.9654
    -3.8872  -3.6157  -2.8537  -2.7442  -2.5405  -2.4189  -2.3453  -2.1673
    -1.3492  -1.2050  -1.1237  -1.0096  -0.9143  -0.8061  -0.2140  -0.1109
     0.5561   0.8635

     occupation numbers 
     1.0000   1.0000   1.0000   1.0000   1.0000   1.0000   1.0000   1.0000
     1.0000   1.0000   1.0000   1.0000   1.0000   1.0000   1.0000   1.0000
     1.0000   1.0000   1.0000   1.0000   1.0000   1.0000   1.0000   1.0000
     1.0000   1.0000   1.0000   1.0000   1.0000   1.0000   1.0000   1.0000
     1.0000   1.0000   1.0000   1.0000   1.0000   1.0000   1.0000   1.0000
     1.0000   1.0000

          k =-0.0169 0.0214 0.0936 ( 36547 PWs)   bands (ev):

   -16.2288 -16.1224 -15.3619 -15.0055 -13.9974 -13.7184 -12.4551 -12.1943
   -11.3457 -11.1509  -9.0496  -8.8499  -8.3029  -8.0407  -6.4421  -6.2742
    -5.4144  -5.2413  -5.1311  -4.8435  -4.3267  -4.2537  -4.1251  -3.9612
    -3.8333  -3.6493  -2.8010  -2.7529  -2.5727  -2.4742  -2.4127  -2.1986
    -1.3039  -1.1957  -1.1578  -1.0397  -0.8506  -0.7427  -0.2355  -0.0503
     0.5573   0.8455

     occupation numbers 
     1.0000   1.0000   1.0000   1.0000   1.0000   1.0000   1.0000   1.0000
     1.0000   1.0000   1.0000   1.0000   1.0000   1.0000   1.0000   1.0000
     1.0000   1.0000   1.0000   1.0000   1.0000   1.0000   1.0000   1.0000
     1.0000   1.0000   1.0000   1.0000   1.0000   1.0000   1.0000   1.0000
     1.0000   1.0000   1.0000   1.0000   1.0000   1.0000   1.0000   1.0000
     1.0000   1.0000

          k =-0.0169 0.0214 0.0265 ( 36551 PWs)   bands (ev):

   -16.2953 -16.2062 -15.4182 -15.0562 -14.0272 -13.7340 -12.4303 -12.2250
   -11.3510 -11.1571  -9.0825  -8.8885  -8.3173  -8.0703  -6.4784  -6.1828
    -5.4180  -5.2280  -5.1638  -4.6675  -4.3595  -4.0195  -3.9859  -3.8156
    -3.2925  -3.1936  -2.8726  -2.6000  -2.4215  -2.3084  -2.2385  -2.0286
    -1.1885  -1.1527  -1.0042  -0.9676  -0.8783  -0.6829  -0.2524   0.2477
     0.5765   0.7742

     occupation numbers 
     1.0000   1.0000   1.0000   1.0000   1.0000   1.0000   1.0000   1.0000
     1.0000   1.0000   1.0000   1.0000   1.0000   1.0000   1.0000   1.0000
     1.0000   1.0000   1.0000   1.0000   1.0000   1.0000   1.0000   1.0000
     1.0000   1.0000   1.0000   1.0000   1.0000   1.0000   1.0000   1.0000
     1.0000   1.0000   1.0000   1.0000   1.0000   1.0000   1.0000   1.0000
     1.0000   1.0000

          k =-0.0169 0.0643-0.0407 ( 36518 PWs)   bands (ev):

   -16.2681 -16.1859 -15.4246 -15.0549 -14.0523 -13.7905 -12.4702 -12.2692
   -11.3607 -11.1466  -8.9815  -8.8104  -8.2055  -7.9989  -6.4362  -6.2682
    -5.3858  -5.2046  -5.1768  -4.8464  -4.4051  -4.2908  -4.0543  -3.8841
    -3.3757  -3.2205  -2.7160  -2.5354  -2.4025  -2.3354  -2.2388  -1.9761
    -1.0717  -1.0212  -0.9573  -0.9124  -0.7498  -0.6952  -0.1994   0.2248
     0.6331   0.7614

     occupation numbers 
     1.0000   1.0000   1.0000   1.0000   1.0000   1.0000   1.0000   1.0000
     1.0000   1.0000   1.0000   1.0000   1.0000   1.0000   1.0000   1.0000
     1.0000   1.0000   1.0000   1.0000   1.0000   1.0000   1.0000   1.0000
     1.0000   1.0000   1.0000   1.0000   1.0000   1.0000   1.0000   1.0000
     1.0000   1.0000   1.0000   1.0000   1.0000   1.0000   1.0000   1.0000
     1.0000   1.0000

          k =-0.0169 0.0643-0.1078 ( 36558 PWs)   bands (ev):

   -16.2121 -16.1080 -15.3649 -14.9976 -14.0135 -13.7516 -12.4708 -12.2192
   -11.3567 -11.1779  -9.0167  -8.8184  -8.2709  -8.0368  -6.4421  -6.2213
    -5.4039  -5.2070  -5.0629  -4.7571  -4.3150  -4.2255  -4.1790  -4.0402
    -3.9790  -3.7571  -2.7588  -2.7255  -2.6005  -2.5040  -2.4369  -2.1385
    -1.2879  -1.1817  -1.0673  -1.0139  -0.9419  -0.7688  -0.0579   0.0266
     0.5782   0.8096

     occupation numbers 
     1.0000   1.0000   1.0000   1.0000   1.0000   1.0000   1.0000   1.0000
     1.0000   1.0000   1.0000   1.0000   1.0000   1.0000   1.0000   1.0000
     1.0000   1.0000   1.0000   1.0000   1.0000   1.0000   1.0000   1.0000
     1.0000   1.0000   1.0000   1.0000   1.0000   1.0000   1.0000   1.0000
     1.0000   1.0000   1.0000   1.0000   1.0000   1.0000   1.0000   1.0000
     1.0000   1.0000

          k =-0.0169 0.0643 0.0936 ( 36547 PWs)   bands (ev):

   -16.2085 -16.1112 -15.3629 -15.0006 -14.0096 -13.7619 -12.4611 -12.2254
   -11.3576 -11.1595  -9.0516  -8.7951  -8.3033  -7.9910  -6.4605  -6.2748
    -5.4137  -5.2227  -5.0008  -4.7581  -4.3661  -4.2113  -4.0504  -4.0076
    -3.9718  -3.7918  -2.8078  -2.7783  -2.6461  -2.5289  -2.3504  -2.2067
    -1.2604  -1.2011  -1.0555  -0.9832  -0.9145  -0.7465  -0.0835   0.0774
     0.5834   0.7991

     occupation numbers 
     1.0000   1.0000   1.0000   1.0000   1.0000   1.0000   1.0000   1.0000
     1.0000   1.0000   1.0000   1.0000   1.0000   1.0000   1.0000   1.0000
     1.0000   1.0000   1.0000   1.0000   1.0000   1.0000   1.0000   1.0000
     1.0000   1.0000   1.0000   1.0000   1.0000   1.0000   1.0000   1.0000
     1.0000   1.0000   1.0000   1.0000   1.0000   1.0000   1.0000   1.0000
     1.0000   1.0000

          k =-0.0169 0.0643 0.0265 ( 36489 PWs)   bands (ev):

   -16.2649 -16.1886 -15.4229 -15.0575 -14.0491 -13.8000 -12.4603 -12.2745
   -11.3629 -11.1292  -9.0134  -8.7894  -8.2397  -7.9472  -6.4851  -6.3156
    -5.3870  -5.2155  -5.0867  -4.8228  -4.4053  -4.2462  -4.0835  -3.8866
    -3.3497  -3.2663  -2.7205  -2.5110  -2.4423  -2.3657  -2.2531  -1.9923
    -1.1494  -1.0344  -0.9624  -0.7720  -0.7212  -0.6765  -0.2136   0.2743
     0.6332   0.7486

     occupation numbers 
     1.0000   1.0000   1.0000   1.0000   1.0000   1.0000   1.0000   1.0000
     1.0000   1.0000   1.0000   1.0000   1.0000   1.0000   1.0000   1.0000
     1.0000   1.0000   1.0000   1.0000   1.0000   1.0000   1.0000   1.0000
     1.0000   1.0000   1.0000   1.0000   1.0000   1.0000   1.0000   1.0000
     1.0000   1.0000   1.0000   1.0000   1.0000   1.0000   1.0000   1.0000
     1.0000   1.0000

     highest occupied level (ev):     0.8635

!    total energy              =    -548.03954306 Ry
     Harris-Foulkes estimate   =    -548.03954308 Ry
     estimated scf accuracy    <       0.00000004 Ry

     total all-electron energy =     -4615.883031 Ry

     The total energy is the sum of the following terms:

     one-electron contribution =    -152.44051634 Ry
     hartree contribution      =     107.58102441 Ry
     xc contribution           =    -104.25300182 Ry
     ewald contribution        =    -143.14220100 Ry
     one-center paw contrib.   =    -255.78484831 Ry
      -> PAW hartree energy AE =      18.83936350 Ry
      -> PAW hartree energy PS =     -18.73519332 Ry
      -> PAW xc energy AE      =     -55.59511528 Ry
      -> PAW xc energy PS      =      10.05037281 Ry
      -> total E_H with PAW    =     107.68519459 Ry
      -> total E_XC with PAW   =    -149.79774428 Ry

     convergence has been achieved in  11 iterations
 writing file ./scratch/scf-2518.save/charge-density
 writing file ./scratch/scf-2518.save/charge-density
 writing file ./scratch/scf-2518.save/charge-density
 writing file ./scratch/scf-2518.save/charge-density
 writing file ./scratch/scf-2518.save/charge-density
 writing file ./scratch/scf-2518.save/charge-density
 writing file ./scratch/scf-2518.save/charge-density
 writing file ./scratch/scf-2518.save/charge-density
 writing file ./scratch/scf-2518.save/charge-density
 writing file ./scratch/scf-2518.save/charge-density
 writing file ./scratch/scf-2518.save/charge-density
 writing file ./scratch/scf-2518.save/charge-density
 writing file ./scratch/scf-2518.save/charge-density
 writing file ./scratch/scf-2518.save/charge-density
 writing file ./scratch/scf-2518.save/charge-density
 writing file ./scratch/scf-2518.save/charge-density
 writing file ./scratch/scf-2518.save/charge-density
 writing file ./scratch/scf-2518.save/charge-density
 writing file ./scratch/scf-2518.save/charge-density
 writing file ./scratch/scf-2518.save/charge-density
 writing file ./scratch/scf-2518.save/charge-density
 writing file ./scratch/scf-2518.save/charge-density
 writing file ./scratch/scf-2518.save/charge-density
 writing file ./scratch/scf-2518.save/charge-density
 writing file ./scratch/scf-2518.save/charge-density
 writing file ./scratch/scf-2518.save/charge-density
 writing file ./scratch/scf-2518.save/charge-density
 writing file ./scratch/scf-2518.save/charge-density
 writing file ./scratch/scf-2518.save/charge-density
 writing file ./scratch/scf-2518.save/charge-density
 writing file ./scratch/scf-2518.save/charge-density
 writing file ./scratch/scf-2518.save/charge-density

     Forces acting on atoms (cartesian axes, Ry/au):

     atom    1 type  2   force =    -0.04933814    0.04900304   -0.00200593
     atom    2 type  1   force =     0.03790439   -0.02094037    0.00278389
     atom    3 type  1   force =    -0.01126488   -0.00749197   -0.00384393
     atom    4 type  3   force =    -0.00166269   -0.00336411   -0.00097774
     atom    5 type  1   force =     0.00284651    0.00858354    0.01602679
     atom    6 type  3   force =     0.00186485   -0.00236484    0.00091733
     atom    7 type  3   force =    -0.00240564    0.00096442    0.00025599
     atom    8 type  1   force =     0.00843382   -0.00828978   -0.01386351
     atom    9 type  3   force =     0.00069943   -0.00423590   -0.00222098
     atom   10 type  1   force =    -0.00625898    0.00791718    0.01351792
     atom   11 type  1   force =     0.02740688   -0.00032476    0.00202515
     atom   12 type  2   force =    -0.03221690   -0.01109227   -0.00876625
     atom   13 type  3   force =    -0.00229796   -0.00155832    0.00123204
     atom   14 type  1   force =     0.01921604   -0.02308376   -0.01530646
     atom   15 type  3   force =     0.00264810    0.00221561   -0.00207158
     atom   16 type  1   force =     0.01993339   -0.04039360    0.00354194
     atom   17 type  1   force =     0.05412770   -0.02520020   -0.01685400
     atom   18 type  2   force =    -0.06971387    0.06709937    0.01508135
     atom   19 type  3   force =     0.00386733   -0.00135632   -0.00282919
     atom   20 type  1   force =     0.00414789    0.01169363    0.01092159
     atom   21 type  3   force =     0.00144699    0.00190804    0.00085965
     atom   22 type  1   force =     0.01166186   -0.00966907   -0.01677305
     atom   23 type  1   force =     0.00826764    0.03297127    0.01612916
     atom   24 type  2   force =    -0.02931375   -0.02299085    0.00221983
     The non-local contrib.  to forces
     atom    1 type  2   force =    -0.28474221    0.26848687    0.01620266
     atom    2 type  1   force =     0.38969288   -0.36969617   -0.03072683
     atom    3 type  1   force =    -0.04735049   -0.04935276   -0.03126457
     atom    4 type  3   force =    -0.07010672   -0.01801466   -0.03029032
     atom    5 type  1   force =    -0.05067659   -0.06396218   -0.01382615
     atom    6 type  3   force =    -0.01188528   -0.06886369   -0.03656213
     atom    7 type  3   force =    -0.00605819   -0.06438644    0.04420162
     atom    8 type  1   force =     0.04253404   -0.05246741    0.00802928
     atom    9 type  3   force =     0.06046615   -0.02321744    0.04510153
     atom   10 type  1   force =     0.03245252   -0.03659850    0.07907359
     atom   11 type  1   force =    -0.36172995   -0.30803804   -0.03167878
     atom   12 type  2   force =     0.29938835    0.25718551    0.00008791
     atom   13 type  3   force =     0.01052303    0.06628311    0.04139604
     atom   14 type  1   force =     0.08447042    0.02232417    0.03021783
     atom   15 type  3   force =     0.06964042    0.01584985    0.03353545
     atom   16 type  1   force =     0.06268066   -0.03539712    0.04471543
     atom   17 type  1   force =    -0.31011515    0.33464020    0.00497544
     atom   18 type  2   force =     0.27818768   -0.25880784    0.00053626
     atom   19 type  3   force =     0.00794730    0.06153562   -0.04745784
     atom   20 type  1   force =    -0.01162109    0.04620099   -0.01755889
     atom   21 type  3   force =    -0.05848300    0.02090953   -0.04875537
     atom   22 type  1   force =    -0.00194993    0.02590500   -0.08789267
     atom   23 type  1   force =     0.39956946    0.32645687    0.05034130
     atom   24 type  2   force =    -0.32155343   -0.23523427   -0.00752119
     The ionic contribution  to forces
     atom    1 type  2   force =     5.84325991   -2.87379270    0.61595404
     atom    2 type  1   force =     3.07440080   -2.17335708    0.31044329
     atom    3 type  1   force =     5.30810264    1.21444489    2.41649750
     atom    4 type  3   force =     2.33817863    0.49738215    1.01404127
     atom    5 type  1   force =     2.04083561    3.61759944    2.38820560
     atom    6 type  3   force =     0.62610361    1.86846027    1.23550831
     atom    7 type  3   force =    -0.09222577    1.99174024   -1.34870570
     atom    8 type  1   force =    -0.93299184    4.39255798   -2.30141999
     atom    9 type  3   force =    -1.88287089    0.91997420   -1.34630345
     atom   10 type  1   force =    -4.05924404    2.05957620   -3.12256833
     atom   11 type  1   force =    -2.46072960   -1.28238149   -0.64656989
     atom   12 type  2   force =    -5.76856836   -4.86471414   -0.72755280
     atom   13 type  3   force =    -0.48265596   -1.82222961   -1.29333265
     atom   14 type  1   force =    -1.23600375   -3.81944926   -2.09275772
     atom   15 type  3   force =    -2.14446054   -0.51989760   -1.14003947
     atom   16 type  1   force =    -4.41967553   -1.56702311   -2.59048437
     atom   17 type  1   force =    -1.71662207    1.27524557    0.44419497
     atom   18 type  2   force =    -6.82531175    4.70711062   -0.52447924
     atom   19 type  3   force =    -0.01340730   -1.95988514    1.40551513
     atom   20 type  1   force =     0.63300377   -4.25435259    2.31486459
     atom   21 type  3   force =     1.78704966   -0.81987952    1.42984252
     atom   22 type  1   force =     3.66967371   -1.85200268    3.06578402
     atom   23 type  1   force =     2.55207779    1.45341082    0.13162306
     atom   24 type  2   force =     4.16208126    3.81146254    0.36173931
     The local contribution  to forces
     atom    1 type  2   force =    -5.62158559    2.66741016   -0.63353104
     atom    2 type  1   force =    -3.41565275    2.51170919   -0.27791407
     atom    3 type  1   force =    -5.27061411   -1.17284166   -2.38862172
     atom    4 type  3   force =    -2.26972311   -0.48273133   -0.98472438
     atom    5 type  1   force =    -1.98769172   -3.54442412   -2.35768488
     atom    6 type  3   force =    -0.61236736   -1.80194053   -1.19802829
     atom    7 type  3   force =     0.09587142   -1.92637913    1.30475446
     atom    8 type  1   force =     0.89924719   -4.34726353    2.27867947
     atom    9 type  3   force =     1.82310201   -0.90099964    1.29898300
     atom   10 type  1   force =     4.01950218   -2.01516213    3.05664169
     atom   11 type  1   force =     2.84041372    1.58287187    0.67939001
     atom   12 type  2   force =     5.44788046    4.60636773    0.71844724
     atom   13 type  3   force =     0.46982911    1.75441062    1.25317768
     atom   14 type  1   force =     1.17144843    3.77267869    2.04691914
     atom   15 type  3   force =     2.07748306    0.50626121    1.10443908
     atom   16 type  1   force =     4.37593787    1.56049341    2.54849313
     atom   17 type  1   force =     2.07355995   -1.62733071   -0.46477632
     atom   18 type  2   force =     6.48568325   -4.38900718    0.53948989
     atom   19 type  3   force =     0.00932617    1.89698656   -1.36088432
     atom   20 type  1   force =    -0.61727532    4.21862866   -2.28565284
     atom   21 type  3   force =    -1.72710459    0.80087408   -1.38022164
     atom   22 type  1   force =    -3.65451857    1.81634255   -2.99428360
     atom   23 type  1   force =    -2.93217004   -1.73892887   -0.16518372
     atom   24 type  2   force =    -3.88390828   -3.60960877   -0.35216428
     The core correction contribution to forces
     atom    1 type  2   force =     0.01374637   -0.01312836   -0.00063168
     atom    2 type  1   force =    -0.01065935    0.01033930    0.00091730
     atom    3 type  1   force =    -0.00141990    0.00022911   -0.00047078
     atom    4 type  3   force =     0.00000000    0.00000000    0.00000000
     atom    5 type  1   force =     0.00026727   -0.00060915   -0.00070111
     atom    6 type  3   force =     0.00000000    0.00000000    0.00000000
     atom    7 type  3   force =     0.00000000    0.00000000    0.00000000
     atom    8 type  1   force =    -0.00042842   -0.00107871    0.00080372
     atom    9 type  3   force =     0.00000000    0.00000000    0.00000000
     atom   10 type  1   force =     0.00095327    0.00004547    0.00037037
     atom   11 type  1   force =     0.00937737    0.00719056    0.00084531
     atom   12 type  2   force =    -0.01079120   -0.00982289    0.00023197
     atom   13 type  3   force =     0.00000000    0.00000000    0.00000000
     atom   14 type  1   force =    -0.00078348    0.00135295    0.00028601
     atom   15 type  3   force =     0.00000000    0.00000000    0.00000000
     atom   16 type  1   force =     0.00100503    0.00148147    0.00081160
     atom   17 type  1   force =     0.00723052   -0.00779098   -0.00128621
     atom   18 type  2   force =    -0.00821541    0.00778931   -0.00046895
     atom   19 type  3   force =     0.00000000    0.00000000    0.00000000
     atom   20 type  1   force =    -0.00000630    0.00117451   -0.00075466
     atom   21 type  3   force =     0.00000000    0.00000000    0.00000000
     atom   22 type  1   force =    -0.00146180    0.00002718   -0.00031499
     atom   23 type  1   force =    -0.01115690   -0.00796778   -0.00061600
     atom   24 type  2   force =     0.01428476    0.01043747    0.00026684
     The Hubbard contrib.    to forces
     atom    1 type  2   force =     0.00000000    0.00000000    0.00000000
     atom    2 type  1   force =     0.00000000    0.00000000    0.00000000
     atom    3 type  1   force =     0.00000000    0.00000000    0.00000000
     atom    4 type  3   force =     0.00000000    0.00000000    0.00000000
     atom    5 type  1   force =     0.00000000    0.00000000    0.00000000
     atom    6 type  3   force =     0.00000000    0.00000000    0.00000000
     atom    7 type  3   force =     0.00000000    0.00000000    0.00000000
     atom    8 type  1   force =     0.00000000    0.00000000    0.00000000
     atom    9 type  3   force =     0.00000000    0.00000000    0.00000000
     atom   10 type  1   force =     0.00000000    0.00000000    0.00000000
     atom   11 type  1   force =     0.00000000    0.00000000    0.00000000
     atom   12 type  2   force =     0.00000000    0.00000000    0.00000000
     atom   13 type  3   force =     0.00000000    0.00000000    0.00000000
     atom   14 type  1   force =     0.00000000    0.00000000    0.00000000
     atom   15 type  3   force =     0.00000000    0.00000000    0.00000000
     atom   16 type  1   force =     0.00000000    0.00000000    0.00000000
     atom   17 type  1   force =     0.00000000    0.00000000    0.00000000
     atom   18 type  2   force =     0.00000000    0.00000000    0.00000000
     atom   19 type  3   force =     0.00000000    0.00000000    0.00000000
     atom   20 type  1   force =     0.00000000    0.00000000    0.00000000
     atom   21 type  3   force =     0.00000000    0.00000000    0.00000000
     atom   22 type  1   force =     0.00000000    0.00000000    0.00000000
     atom   23 type  1   force =     0.00000000    0.00000000    0.00000000
     atom   24 type  2   force =     0.00000000    0.00000000    0.00000000
     The SCF correction term to forces
     atom    1 type  2   force =    -0.00001602    0.00002707    0.00000045
     atom    2 type  1   force =     0.00012340    0.00006438    0.00006457
     atom    3 type  1   force =     0.00001757    0.00002844    0.00001601
     atom    4 type  3   force =    -0.00001090   -0.00000027   -0.00000395
     atom    5 type  1   force =     0.00011254   -0.00002046    0.00003369
     atom    6 type  3   force =     0.00001448   -0.00002089   -0.00000020
     atom    7 type  3   force =     0.00000749   -0.00001025    0.00000597
     atom    8 type  1   force =     0.00007344   -0.00003811    0.00004438
     atom    9 type  3   force =     0.00000276    0.00000698   -0.00000171
     atom   10 type  1   force =     0.00007769    0.00005614    0.00000097
     atom   11 type  1   force =     0.00007592    0.00003232    0.00003886
     atom   12 type  2   force =    -0.00012556   -0.00010848    0.00001980
     atom   13 type  3   force =     0.00000646   -0.00002243   -0.00000867
     atom   14 type  1   force =     0.00008501    0.00000969    0.00002865
     atom   15 type  3   force =    -0.00001425    0.00000215   -0.00000627
     atom   16 type  1   force =    -0.00001404    0.00005175    0.00000651
     atom   17 type  1   force =     0.00007505    0.00003572    0.00003849
     atom   18 type  2   force =    -0.00005704    0.00001446    0.00000375
     atom   19 type  3   force =     0.00000176    0.00000663   -0.00000180
     atom   20 type  1   force =     0.00004743    0.00004206    0.00002375
     atom   21 type  3   force =    -0.00001448    0.00000395   -0.00000550
     atom   22 type  1   force =    -0.00008096    0.00005889   -0.00006545
     atom   23 type  1   force =    -0.00005207    0.00000022   -0.00003511
     atom   24 type  2   force =    -0.00021747   -0.00004782   -0.00010049

     Total force =     0.173752     Total SCF correction =     0.000449

     Writing output data file scf-2518.save
 writing file ./scratch/scf-2518.save/charge-density
 writing file ./scratch/scf-2518.save/charge-density
 writing file ./scratch/scf-2518.save/charge-density
 writing file ./scratch/scf-2518.save/charge-density
 writing file ./scratch/scf-2518.save/charge-density
 writing file ./scratch/scf-2518.save/charge-density
 writing file ./scratch/scf-2518.save/charge-density
 writing file ./scratch/scf-2518.save/charge-density
 writing file ./scratch/scf-2518.save/charge-density
 writing file ./scratch/scf-2518.save/charge-density
 writing file ./scratch/scf-2518.save/charge-density
 writing file ./scratch/scf-2518.save/charge-density
 writing file ./scratch/scf-2518.save/charge-density
 writing file ./scratch/scf-2518.save/charge-density
 writing file ./scratch/scf-2518.save/charge-density
 writing file ./scratch/scf-2518.save/charge-density
 writing file ./scratch/scf-2518.save/charge-density
 writing file ./scratch/scf-2518.save/charge-density
 writing file ./scratch/scf-2518.save/charge-density
 writing file ./scratch/scf-2518.save/charge-density
 writing file ./scratch/scf-2518.save/charge-density
 writing file ./scratch/scf-2518.save/charge-density
 writing file ./scratch/scf-2518.save/charge-density
 writing file ./scratch/scf-2518.save/charge-density
 writing file ./scratch/scf-2518.save/charge-density
 writing file ./scratch/scf-2518.save/charge-density
 writing file ./scratch/scf-2518.save/charge-density
 writing file ./scratch/scf-2518.save/charge-density
 writing file ./scratch/scf-2518.save/charge-density
 writing file ./scratch/scf-2518.save/charge-density
 writing file ./scratch/scf-2518.save/charge-density
 writing file ./scratch/scf-2518.save/charge-density
 
     init_run     :      4.39s CPU      4.61s WALL (       1 calls)
     electrons    :     50.26s CPU     53.20s WALL (       1 calls)
     forces       :      2.32s CPU      2.47s WALL (       1 calls)

     Called by init_run:
     wfcinit      :      1.63s CPU      1.65s WALL (       1 calls)
     wfcinit:atom :      0.02s CPU      0.02s WALL (      16 calls)
     wfcinit:wfcr :      1.52s CPU      1.52s WALL (      16 calls)
     potinit      :      0.89s CPU      0.91s WALL (       1 calls)

     Called by electrons:
     c_bands      :     39.27s CPU     39.59s WALL (      11 calls)
     sum_band     :      6.92s CPU      8.14s WALL (      11 calls)
     v_of_rho     :      0.89s CPU      0.97s WALL (      12 calls)
     v_h          :      0.07s CPU      0.06s WALL (      12 calls)
     v_xc         :      0.89s CPU      0.98s WALL (      13 calls)
     newd         :      1.49s CPU      2.87s WALL (      12 calls)
     PAW_pot      :      1.66s CPU      1.70s WALL (      12 calls)
     mix_rho      :      0.14s CPU      0.14s WALL (      11 calls)

     Called by c_bands:
     init_us_2    :      0.79s CPU      0.87s WALL (     384 calls)
     cegterg      :     37.01s CPU     37.19s WALL (     176 calls)

     Called by sum_band:
     sum_band:bec :      0.03s CPU      0.02s WALL (     176 calls)
     addusdens    :      1.48s CPU      2.68s WALL (      11 calls)

     Called by *egterg:
     h_psi        :     27.72s CPU     27.80s WALL (     862 calls)
     s_psi        :      2.03s CPU      2.01s WALL (     862 calls)
     g_psi        :      0.13s CPU      0.16s WALL (     670 calls)
     cdiaghg      :      3.46s CPU      3.43s WALL (     846 calls)
     cegterg:over :      1.70s CPU      1.68s WALL (     670 calls)
     cegterg:upda :      1.18s CPU      1.27s WALL (     670 calls)
     cegterg:last :      0.44s CPU      0.43s WALL (     192 calls)

     Called by h_psi:
     h_psi:pot    :     27.46s CPU     27.54s WALL (     862 calls)
     h_psi:calbec :      2.19s CPU      2.26s WALL (     862 calls)
     vloc_psi     :     23.23s CPU     23.30s WALL (     862 calls)
     add_vuspsi   :      2.03s CPU      1.98s WALL (     862 calls)

     General routines
     calbec       :      3.00s CPU      3.01s WALL (    1102 calls)
     fft          :      0.73s CPU      0.77s WALL (     199 calls)
     ffts         :      0.01s CPU      0.03s WALL (      23 calls)
     fftw         :     22.33s CPU     22.43s WALL (   55502 calls)
     interpolate  :      0.15s CPU      0.15s WALL (      23 calls)
     davcio       :      0.00s CPU      0.01s WALL (      16 calls)
 
     Parallel routines
     fft_scatter  :      8.81s CPU      8.65s WALL (   55724 calls)

     PAW routines
     PAW_pot      :      1.66s CPU      1.70s WALL (      12 calls)
 
     PWSCF        :  0m57.66s CPU     1m 1.41s WALL

 
   This run was terminated on:  15:33:10  20May2017            

=------------------------------------------------------------------------------=
   JOB DONE.
=------------------------------------------------------------------------------=
