
     Program PWSCF v.6.1 starts on 22May2017 at 12:47:19 

     This program is part of the open-source Quantum ESPRESSO suite
     for quantum simulation of materials; please cite
         "P. Giannozzi et al., J. Phys.:Condens. Matter 21 395502 (2009);
          URL http://www.quantum-espresso.org", 
     in publications or presentations arising from this work. More details at
     http://www.quantum-espresso.org/quote

     Parallel version (MPI & OpenMP), running on      32 processor cores
     Number of MPI processes:                32
     Threads/MPI process:                     1
     R & G space division:  proc/nbgrp/npool/nimage =      32
     Waiting for input...
     Reading input from standard input
Warning: card &IONS ignored
Warning: card     ION_TEMPERATURE   = 'INITIAL' ignored
Warning: card     TEMPW             = 586.D0 ignored
Warning: card     TOLP              = 100.D0 ignored
Warning: card     DELTA_T           = 1.D0 ignored
Warning: card     NRAISE            = 1 ignored
Warning: card / ignored
Warning: card &CELL ignored
Warning: card     CELL_DYNAMICS     = 'BFGS' ignored
Warning: card / ignored

     Current dimensions of program PWSCF are:
     Max number of different atomic species (ntypx) = 10
     Max number of k-points (npk) =  40000
     Max angular momentum in pseudopotentials (lmaxx) =  3
               file C.pbe-n-kjpaw_psl.1.0.0.UPF: wavefunction(s)  2S 2P renormalized
               file Cl.pbe-n-kjpaw_psl.1.0.0.UPF: wavefunction(s)  3S 3P renormalized
               file H.pbe-kjpaw_psl.1.0.0.UPF: wavefunction(s)  1S renormalized

     Subspace diagonalization in iterative solution of the eigenvalue problem:
     a serial algorithm will be used

 
     Parallelization info
     --------------------
     sticks:   dense  smooth     PW     G-vecs:    dense   smooth      PW
     Min         764     305     83                36108     9133    1292
     Max         765     306     84                36110     9135    1293
     Sum       24467    9791   2657              1155489   292295   41363
 


     bravais-lattice index     =            0
     lattice parameter (alat)  =       1.8897  a.u.
     unit-cell volume          =    2163.5316 (a.u.)^3
     number of atoms/cell      =           24
     number of atomic types    =            3
     number of electrons       =        84.00
     number of Kohn-Sham states=           42
     kinetic-energy cutoff     =     100.0000  Ry
     charge density cutoff     =    1000.0000  Ry
     convergence threshold     =      1.0E-07
     mixing beta               =       0.7000
     number of iterations used =            8  plain     mixing
     Exchange-correlation      =  SLA  PW   PBX  PBC ( 1  4  3  4 0 0)

     celldm(1)=   1.889726  celldm(2)=   0.000000  celldm(3)=   0.000000
     celldm(4)=   0.000000  celldm(5)=   0.000000  celldm(6)=   0.000000

     crystal axes: (cart. coord. in units of alat)
               a(1) = (  14.762000   0.000000   0.000000 )  
               a(2) = (   0.000000   5.832000   0.000000 )  
               a(3) = (  -1.563876   0.000000   3.723951 )  

     reciprocal axes: (cart. coord. in units 2 pi/alat)
               b(1) = (  0.067741  0.000000  0.028448 )  
               b(2) = (  0.000000  0.171468  0.000000 )  
               b(3) = (  0.000000  0.000000  0.268532 )  


     PseudoPot. # 1 for  C read from file:
     /global/cscratch1/sd/almno10/.data/PSEUDOPOTENTIALS/C.pbe-n-kjpaw_psl.1.0.0.UPF
     MD5 check sum: 2ba8448e293caca687844dde9a1b88a8
     Pseudo is Projector augmented-wave + core cor, Zval =  4.0
     Generated using "atomic" code by A. Dal Corso  v.5.3.0 svn rev. 11974
     Shape of augmentation charge: PSQ
     Using radial grid of 1073 points,  4 beta functions with: 
                l(1) =   0
                l(2) =   0
                l(3) =   1
                l(4) =   1
     Q(r) pseudized with 0 coefficients 


     PseudoPot. # 2 for Cl read from file:
     /global/cscratch1/sd/almno10/.data/PSEUDOPOTENTIALS/Cl.pbe-n-kjpaw_psl.1.0.0.UPF
     MD5 check sum: dca63699d6b897c5771335df08a09219
     Pseudo is Projector augmented-wave + core cor, Zval =  7.0
     Generated using "atomic" code by A. Dal Corso  v.5.3.0 svn rev. 11974
     Shape of augmentation charge: PSQ
     Using radial grid of 1157 points,  6 beta functions with: 
                l(1) =   0
                l(2) =   0
                l(3) =   1
                l(4) =   1
                l(5) =   2
                l(6) =   2
     Q(r) pseudized with 0 coefficients 


     PseudoPot. # 3 for  H read from file:
     /global/cscratch1/sd/almno10/.data/PSEUDOPOTENTIALS/H.pbe-kjpaw_psl.1.0.0.UPF
     MD5 check sum: bc0feb48a24907a0b97fa6ee2d589a29
     Pseudo is Projector augmented-wave, Zval =  1.0
     Generated using "atomic" code by A. Dal Corso  v.5.3.0 svn rev. 11974
     Shape of augmentation charge: PSQ
     Using radial grid of  929 points,  2 beta functions with: 
                l(1) =   0
                l(2) =   0
     Q(r) pseudized with 0 coefficients 


     atomic species   valence    mass     pseudopotential
        C              4.00    12.01100      C( 1.00)
        Cl             7.00    35.45270     Cl( 1.00)
        H              1.00     1.00790      H( 1.00)

     No symmetry found


                                    s                        frac. trans.

      isym =  1     identity                                     

 cryst.   s( 1) = (     1          0          0      )
                  (     0          1          0      )
                  (     0          0          1      )

 cart.    s( 1) = (  1.0000000  0.0000000 -0.0000000 )
                  (  0.0000000  1.0000000  0.0000000 )
                  (  0.0000000  0.0000000  1.0000000 )


   Cartesian axes

     site n.     atom                  positions (alat units)
         1           Cl  tau(   1) = (  16.3238500   0.5047658   2.1531037  )
         2           C   tau(   2) = (  15.0378817   1.5750864   1.9640940  )
         3           C   tau(   3) = (  14.9860480   2.7614678   2.6941596  )
         4           H   tau(   4) = (  15.7704942   3.0452939   3.3937178  )
         5           C   tau(   5) = (  13.9057066   3.6137320   2.4754680  )
         6           H   tau(   6) = (  13.8294857   4.5459566   3.0319218  )
         7           H   tau(   7) = (   6.4904242   2.6137637   0.7127876  )
         8           C   tau(   8) = (   6.5580624   1.6706529   1.2504125  )
         9           H   tau(   9) = (   4.5137729   1.1186284   0.8401184  )
        10           C   tau(  10) = (   5.4466827   0.8292032   1.3203924  )
        11           C   tau(  11) = (   5.5718202  -0.3748748   2.0113291  )
        12           Cl  tau(  12) = (   4.2119824  -1.5710927   2.0148331  )
        13           H   tau(  13) = (  14.1126252   0.3174455   0.4839826  )
        14           C   tau(  14) = (  14.0349294   1.2401738   1.0557778  )
        15           H   tau(  15) = (  12.1772262   1.8285996   0.1352258  )
        16           C   tau(  16) = (  12.9538277   2.0952616   0.8499700  )
        17           C   tau(  17) = (  12.8899097   3.2624072   1.5877288  )
        18           Cl  tau(  18) = (  11.5109322   4.4852823   1.5109538  )
        19           H   tau(  19) = (   6.7768086  -1.5927826   3.3218846  )
        20           C   tau(  20) = (   6.7285038  -0.6814032   2.7281683  )
        21           H   tau(  21) = (   8.7523021  -0.0988348   3.1822892  )
        22           C   tau(  22) = (   7.8515115   0.1367142   2.6199283  )
        23           C   tau(  23) = (   7.7563387   1.3001920   1.8591100  )
        24           Cl  tau(  24) = (   9.0249488   2.4326316   1.7384781  )

   Crystallographic axes

     site n.     atom                  positions (cryst. coord.)
         1           Cl  tau(   1) = (  1.1670537  0.0865511  0.5781772  )
         2           C   tau(   2) = (  1.0745633  0.2700765  0.5274220  )
         3           C   tau(   3) = (  1.0918210  0.4735027  0.7234680  )
         4           H   tau(   4) = (  1.1648617  0.5221697  0.9113217  )
         5           C   tau(   5) = (  1.0124157  0.6196385  0.6647423  )
         6           H   tau(   6) = (  1.0230824  0.7794850  0.8141679  )
         7           H   tau(   7) = (  0.4599485  0.4481762  0.1914063  )
         8           C   tau(   8) = (  0.4798248  0.2864631  0.3357757  )
         9           H   tau(   9) = (  0.3296695  0.1918087  0.2255987  )
        10           C   tau(  10) = (  0.4065291  0.1421816  0.3545676  )
        11           C   tau(  11) = (  0.4346619 -0.0642789  0.5401062  )
        12           Cl  tau(  12) = (  0.3426441 -0.2693918  0.5410471  )
        13           H   tau(  13) = (  0.9697788  0.0544317  0.1299648  )
        14           C   tau(  14) = (  0.9807820  0.2126498  0.2835101  )
        15           H   tau(  15) = (  0.8287505  0.3135459  0.0363124  )
        16           C   tau(  16) = (  0.9016917  0.3592698  0.2282441  )
        17           C   tau(  17) = (  0.9183496  0.5593977  0.4263559  )
        18           Cl  tau(  18) = (  0.8227515  0.7690813  0.4057394  )
        19           H   tau(  19) = (  0.5535724 -0.2731109  0.8920322  )
        20           C   tau(  20) = (  0.5334101 -0.1168387  0.7326004  )
        21           H   tau(  21) = (  0.6834241 -0.0169470  0.8545464  )
        22           C   tau(  22) = (  0.6064051  0.0234421  0.7035345  )
        23           C   tau(  23) = (  0.5783141  0.2229410  0.4992305  )
        24           Cl  tau(  24) = (  0.6608199  0.4171179  0.4668370  )

     number of k points=    16
                       cart. coord. in units 2pi/alat
        k(    1) = (   0.0169354   0.0214335   0.0406785), wk =   0.1250000
        k(    2) = (   0.0169354   0.0214335   0.1078115), wk =   0.1250000
        k(    3) = (   0.0169354   0.0214335  -0.0935875), wk =   0.1250000
        k(    4) = (   0.0169354   0.0214335  -0.0264545), wk =   0.1250000
        k(    5) = (   0.0169354   0.0643004   0.0406785), wk =   0.1250000
        k(    6) = (   0.0169354   0.0643004   0.1078115), wk =   0.1250000
        k(    7) = (   0.0169354   0.0643004  -0.0935875), wk =   0.1250000
        k(    8) = (   0.0169354   0.0643004  -0.0264545), wk =   0.1250000
        k(    9) = (  -0.0169354   0.0214335  -0.0406785), wk =   0.1250000
        k(   10) = (  -0.0169354   0.0214335  -0.1078115), wk =   0.1250000
        k(   11) = (  -0.0169354   0.0214335   0.0935875), wk =   0.1250000
        k(   12) = (  -0.0169354   0.0214335   0.0264545), wk =   0.1250000
        k(   13) = (  -0.0169354   0.0643004  -0.0406785), wk =   0.1250000
        k(   14) = (  -0.0169354   0.0643004  -0.1078115), wk =   0.1250000
        k(   15) = (  -0.0169354   0.0643004   0.0935875), wk =   0.1250000
        k(   16) = (  -0.0169354   0.0643004   0.0264545), wk =   0.1250000

                       cryst. coord.
        k(    1) = (   0.2500000   0.1250000   0.1250000), wk =   0.1250000
        k(    2) = (   0.2500000   0.1250000   0.3750000), wk =   0.1250000
        k(    3) = (   0.2500000   0.1250000  -0.3750000), wk =   0.1250000
        k(    4) = (   0.2500000   0.1250000  -0.1250000), wk =   0.1250000
        k(    5) = (   0.2500000   0.3750000   0.1250000), wk =   0.1250000
        k(    6) = (   0.2500000   0.3750000   0.3750000), wk =   0.1250000
        k(    7) = (   0.2500000   0.3750000  -0.3750000), wk =   0.1250000
        k(    8) = (   0.2500000   0.3750000  -0.1250000), wk =   0.1250000
        k(    9) = (  -0.2500000   0.1250000  -0.1250000), wk =   0.1250000
        k(   10) = (  -0.2500000   0.1250000  -0.3750000), wk =   0.1250000
        k(   11) = (  -0.2500000   0.1250000   0.3750000), wk =   0.1250000
        k(   12) = (  -0.2500000   0.1250000   0.1250000), wk =   0.1250000
        k(   13) = (  -0.2500000   0.3750000  -0.1250000), wk =   0.1250000
        k(   14) = (  -0.2500000   0.3750000  -0.3750000), wk =   0.1250000
        k(   15) = (  -0.2500000   0.3750000   0.3750000), wk =   0.1250000
        k(   16) = (  -0.2500000   0.3750000   0.1250000), wk =   0.1250000

     Dense  grid:  1155489 G-vectors     FFT dimensions: ( 288, 120,  80)

     Smooth grid:   292295 G-vectors     FFT dimensions: ( 180,  72,  50)

     Estimated max dynamical RAM per process >     147.21MB

     Estimated total allocated dynamical RAM >    4710.62MB

     Initial potential from superposition of free atoms

     starting charge   83.99939, renormalised to   84.00000
     Starting wfc are   72 randomized atomic wfcs
     Checking if some PAW data can be deallocated... 
       node    0, deallocated PAW data for type:  1
       node    0, deallocated PAW data for type:  3
       node    1, deallocated PAW data for type:  1
       node    1, deallocated PAW data for type:  3
       node    2, deallocated PAW data for type:  2
       node    2, deallocated PAW data for type:  3
       node    3, deallocated PAW data for type:  2
       node    3, deallocated PAW data for type:  3
       node    4, deallocated PAW data for type:  2
       node    4, deallocated PAW data for type:  3
       node    5, deallocated PAW data for type:  2
       node    5, deallocated PAW data for type:  3
       node    6, deallocated PAW data for type:  1
       node    6, deallocated PAW data for type:  2
       node    7, deallocated PAW data for type:  1
       node    7, deallocated PAW data for type:  2
       node    8, deallocated PAW data for type:  2
       node    8, deallocated PAW data for type:  3
       node    9, deallocated PAW data for type:  2
       node    9, deallocated PAW data for type:  3
       node   10, deallocated PAW data for type:  1
       node   10, deallocated PAW data for type:  2
       node   11, deallocated PAW data for type:  1
       node   11, deallocated PAW data for type:  2
       node   12, deallocated PAW data for type:  1
       node   12, deallocated PAW data for type:  2
       node   13, deallocated PAW data for type:  1
       node   13, deallocated PAW data for type:  2
       node   14, deallocated PAW data for type:  2
       node   14, deallocated PAW data for type:  3
       node   15, deallocated PAW data for type:  2
       node   15, deallocated PAW data for type:  3
       node   16, deallocated PAW data for type:  1
       node   16, deallocated PAW data for type:  2
       node   17, deallocated PAW data for type:  2
       node   17, deallocated PAW data for type:  3
       node   18, deallocated PAW data for type:  2
       node   18, deallocated PAW data for type:  3
       node   19, deallocated PAW data for type:  1
       node   19, deallocated PAW data for type:  3
       node   20, deallocated PAW data for type:  1
       node   20, deallocated PAW data for type:  2
       node   21, deallocated PAW data for type:  2
       node   21, deallocated PAW data for type:  3
       node   22, deallocated PAW data for type:  1
       node   22, deallocated PAW data for type:  2
       node   23, deallocated PAW data for type:  2
       node   23, deallocated PAW data for type:  3
       node   24, deallocated PAW data for type:  2
       node   24, deallocated PAW data for type:  3
       node   25, deallocated PAW data for type:  1
       node   25, deallocated PAW data for type:  3
       node   26, deallocated PAW data for type:  1
       node   26, deallocated PAW data for type:  2
       node   27, deallocated PAW data for type:  2
       node   27, deallocated PAW data for type:  3
       node   28, deallocated PAW data for type:  1
       node   28, deallocated PAW data for type:  2
       node   29, deallocated PAW data for type:  2
       node   29, deallocated PAW data for type:  3
       node   30, deallocated PAW data for type:  2
       node   30, deallocated PAW data for type:  3
       node   31, deallocated PAW data for type:  1
       node   31, deallocated PAW data for type:  3

     total cpu time spent up to now is        5.3 secs

     per-process dynamical memory:    20.7 Mb

     Self-consistent Calculation

     iteration #  1     ecut=   100.00 Ry     beta= 0.70
     Davidson diagonalization with overlap
     ethr =  1.00E-04,  avg # of iterations =  5.0

     total cpu time spent up to now is       12.0 secs

     total energy              =    -547.12182156 Ry
     Harris-Foulkes estimate   =    -548.99281520 Ry
     estimated scf accuracy    <       2.73862420 Ry

     iteration #  2     ecut=   100.00 Ry     beta= 0.70
     Davidson diagonalization with overlap
     ethr =  3.26E-03,  avg # of iterations =  3.0

     total cpu time spent up to now is       16.9 secs

     total energy              =    -547.51606758 Ry
     Harris-Foulkes estimate   =    -548.61683918 Ry
     estimated scf accuracy    <       1.99350119 Ry

     iteration #  3     ecut=   100.00 Ry     beta= 0.70
     Davidson diagonalization with overlap
     ethr =  2.37E-03,  avg # of iterations =  2.9

     total cpu time spent up to now is       21.6 secs

     total energy              =    -548.01214341 Ry
     Harris-Foulkes estimate   =    -548.05415109 Ry
     estimated scf accuracy    <       0.08494970 Ry

     iteration #  4     ecut=   100.00 Ry     beta= 0.70
     Davidson diagonalization with overlap
     ethr =  1.01E-04,  avg # of iterations =  4.0

     total cpu time spent up to now is       26.4 secs

     total energy              =    -548.03927752 Ry
     Harris-Foulkes estimate   =    -548.04970067 Ry
     estimated scf accuracy    <       0.02055415 Ry

     iteration #  5     ecut=   100.00 Ry     beta= 0.70
     Davidson diagonalization with overlap
     ethr =  2.45E-05,  avg # of iterations =  3.0

     total cpu time spent up to now is       30.8 secs

     total energy              =    -548.04337199 Ry
     Harris-Foulkes estimate   =    -548.04412781 Ry
     estimated scf accuracy    <       0.00140691 Ry

     iteration #  6     ecut=   100.00 Ry     beta= 0.70
     Davidson diagonalization with overlap
     ethr =  1.67E-06,  avg # of iterations =  4.0

     total cpu time spent up to now is       35.5 secs

     total energy              =    -548.04360602 Ry
     Harris-Foulkes estimate   =    -548.04416764 Ry
     estimated scf accuracy    <       0.00140039 Ry

     iteration #  7     ecut=   100.00 Ry     beta= 0.70
     Davidson diagonalization with overlap
     ethr =  1.67E-06,  avg # of iterations =  4.0

     total cpu time spent up to now is       39.8 secs

     total energy              =    -548.04389042 Ry
     Harris-Foulkes estimate   =    -548.04393095 Ry
     estimated scf accuracy    <       0.00011020 Ry

     iteration #  8     ecut=   100.00 Ry     beta= 0.70
     Davidson diagonalization with overlap
     ethr =  1.31E-07,  avg # of iterations =  4.0

     total cpu time spent up to now is       44.3 secs

     total energy              =    -548.04391277 Ry
     Harris-Foulkes estimate   =    -548.04391891 Ry
     estimated scf accuracy    <       0.00001325 Ry

     iteration #  9     ecut=   100.00 Ry     beta= 0.70
     Davidson diagonalization with overlap
     ethr =  1.58E-08,  avg # of iterations =  4.0

     total cpu time spent up to now is       48.9 secs

     total energy              =    -548.04391598 Ry
     Harris-Foulkes estimate   =    -548.04391736 Ry
     estimated scf accuracy    <       0.00000325 Ry

     iteration # 10     ecut=   100.00 Ry     beta= 0.70
     Davidson diagonalization with overlap
     ethr =  3.87E-09,  avg # of iterations =  4.0

     total cpu time spent up to now is       53.5 secs

     total energy              =    -548.04391662 Ry
     Harris-Foulkes estimate   =    -548.04391672 Ry
     estimated scf accuracy    <       0.00000023 Ry

     iteration # 11     ecut=   100.00 Ry     beta= 0.70
     Davidson diagonalization with overlap
     ethr =  2.77E-10,  avg # of iterations =  4.0

     total cpu time spent up to now is       58.2 secs

     End of self-consistent calculation

          k = 0.0169 0.0214 0.0407 ( 36525 PWs)   bands (ev):

   -16.2496 -16.0380 -15.2612 -15.1702 -13.9402 -13.8135 -12.4178 -12.2595
   -11.3607 -11.1791  -9.0465  -8.8994  -8.2647  -8.1484  -6.3974  -6.2010
    -5.3974  -5.2342  -5.0129  -4.7950  -4.2303  -4.1249  -4.0967  -3.8624
    -3.3112  -3.0858  -2.6962  -2.6006  -2.4659  -2.2755  -2.1763  -2.0988
    -1.1192  -1.0961  -1.0085  -0.9713  -0.8691  -0.7455  -0.2079   0.0989
     0.6578   0.7462

     occupation numbers 
     1.0000   1.0000   1.0000   1.0000   1.0000   1.0000   1.0000   1.0000
     1.0000   1.0000   1.0000   1.0000   1.0000   1.0000   1.0000   1.0000
     1.0000   1.0000   1.0000   1.0000   1.0000   1.0000   1.0000   1.0000
     1.0000   1.0000   1.0000   1.0000   1.0000   1.0000   1.0000   1.0000
     1.0000   1.0000   1.0000   1.0000   1.0000   1.0000   1.0000   1.0000
     1.0000   1.0000

          k = 0.0169 0.0214 0.1078 ( 36561 PWs)   bands (ev):

   -16.1833 -15.9546 -15.2010 -15.1321 -13.9106 -13.7911 -12.4387 -12.2371
   -11.3351 -11.1765  -9.0230  -8.8591  -8.2510  -8.1161  -6.4014  -6.2025
    -5.4004  -5.2381  -5.0832  -4.8969  -4.3269  -4.2607  -4.0553  -3.9963
    -3.8152  -3.6413  -2.7899  -2.6772  -2.5191  -2.4489  -2.3733  -2.2537
    -1.3546  -1.2291  -1.1393  -0.9787  -0.8695  -0.7759  -0.1830  -0.1561
     0.5130   0.8293

     occupation numbers 
     1.0000   1.0000   1.0000   1.0000   1.0000   1.0000   1.0000   1.0000
     1.0000   1.0000   1.0000   1.0000   1.0000   1.0000   1.0000   1.0000
     1.0000   1.0000   1.0000   1.0000   1.0000   1.0000   1.0000   1.0000
     1.0000   1.0000   1.0000   1.0000   1.0000   1.0000   1.0000   1.0000
     1.0000   1.0000   1.0000   1.0000   1.0000   1.0000   1.0000   1.0000
     1.0000   1.0000

          k = 0.0169 0.0214-0.0936 ( 36547 PWs)   bands (ev):

   -16.1855 -15.9481 -15.2089 -15.1290 -13.9096 -13.7981 -12.4297 -12.2432
   -11.3312 -11.1686  -9.0486  -8.8345  -8.2785  -8.0783  -6.3924  -6.2655
    -5.4045  -5.2366  -5.0419  -4.9227  -4.2677  -4.2131  -4.1308  -4.0126
    -3.7556  -3.6829  -2.7533  -2.6590  -2.5584  -2.4892  -2.3980  -2.2977
    -1.3417  -1.2393  -1.1021  -1.0056  -0.8328  -0.7415  -0.1864  -0.1164
     0.5172   0.8180

     occupation numbers 
     1.0000   1.0000   1.0000   1.0000   1.0000   1.0000   1.0000   1.0000
     1.0000   1.0000   1.0000   1.0000   1.0000   1.0000   1.0000   1.0000
     1.0000   1.0000   1.0000   1.0000   1.0000   1.0000   1.0000   1.0000
     1.0000   1.0000   1.0000   1.0000   1.0000   1.0000   1.0000   1.0000
     1.0000   1.0000   1.0000   1.0000   1.0000   1.0000   1.0000   1.0000
     1.0000   1.0000

          k = 0.0169 0.0214-0.0265 ( 36551 PWs)   bands (ev):

   -16.2523 -16.0312 -15.2710 -15.1650 -13.9392 -13.8200 -12.4093 -12.2662
   -11.3580 -11.1687  -9.0802  -8.8738  -8.3029  -8.0861  -6.4297  -6.2167
    -5.4083  -5.2350  -5.0862  -4.7058  -4.2883  -4.0637  -4.0012  -3.8681
    -3.3007  -3.1126  -2.8058  -2.5882  -2.4565  -2.3181  -2.1947  -2.0879
    -1.1557  -1.1018  -1.0121  -0.9096  -0.8322  -0.7221  -0.2122   0.1429
     0.6711   0.7318

     occupation numbers 
     1.0000   1.0000   1.0000   1.0000   1.0000   1.0000   1.0000   1.0000
     1.0000   1.0000   1.0000   1.0000   1.0000   1.0000   1.0000   1.0000
     1.0000   1.0000   1.0000   1.0000   1.0000   1.0000   1.0000   1.0000
     1.0000   1.0000   1.0000   1.0000   1.0000   1.0000   1.0000   1.0000
     1.0000   1.0000   1.0000   1.0000   1.0000   1.0000   1.0000   1.0000
     1.0000   1.0000

          k = 0.0169 0.0643 0.0407 ( 36518 PWs)   bands (ev):

   -16.2256 -16.0074 -15.2648 -15.1787 -13.9792 -13.8575 -12.4557 -12.2965
   -11.3679 -11.1728  -8.9582  -8.8225  -8.1776  -8.0469  -6.4005  -6.2628
    -5.3754  -5.2005  -5.0904  -4.8805  -4.3416  -4.3192  -4.0795  -3.9485
    -3.3869  -3.1553  -2.6471  -2.5619  -2.4206  -2.3198  -2.1498  -2.0156
    -1.0331  -0.9650  -0.9129  -0.8497  -0.7960  -0.7467  -0.1501   0.1187
     0.7020   0.7680

     occupation numbers 
     1.0000   1.0000   1.0000   1.0000   1.0000   1.0000   1.0000   1.0000
     1.0000   1.0000   1.0000   1.0000   1.0000   1.0000   1.0000   1.0000
     1.0000   1.0000   1.0000   1.0000   1.0000   1.0000   1.0000   1.0000
     1.0000   1.0000   1.0000   1.0000   1.0000   1.0000   1.0000   1.0000
     1.0000   1.0000   1.0000   1.0000   1.0000   1.0000   1.0000   1.0000
     1.0000   1.0000

          k = 0.0169 0.0643 0.1078 ( 36558 PWs)   bands (ev):

   -16.1650 -15.9372 -15.2017 -15.1310 -13.9323 -13.8248 -12.4541 -12.2542
   -11.3405 -11.1989  -8.9919  -8.8351  -8.2231  -8.1003  -6.4008  -6.2336
    -5.3921  -5.2198  -4.9852  -4.7736  -4.2954  -4.2172  -4.1332  -3.9955
    -3.9495  -3.8057  -2.7639  -2.6645  -2.6051  -2.4620  -2.3772  -2.2447
    -1.3235  -1.1736  -1.0397  -0.9556  -0.8898  -0.7971  -0.0376  -0.0062
     0.4974   0.8215

     occupation numbers 
     1.0000   1.0000   1.0000   1.0000   1.0000   1.0000   1.0000   1.0000
     1.0000   1.0000   1.0000   1.0000   1.0000   1.0000   1.0000   1.0000
     1.0000   1.0000   1.0000   1.0000   1.0000   1.0000   1.0000   1.0000
     1.0000   1.0000   1.0000   1.0000   1.0000   1.0000   1.0000   1.0000
     1.0000   1.0000   1.0000   1.0000   1.0000   1.0000   1.0000   1.0000
     1.0000   1.0000

          k = 0.0169 0.0643-0.0936 ( 36547 PWs)   bands (ev):

   -16.1672 -15.9306 -15.2087 -15.1287 -13.9366 -13.8259 -12.4454 -12.2611
   -11.3402 -11.1868  -9.0186  -8.8090  -8.2540  -8.0598  -6.4159  -6.2614
    -5.4007  -5.2266  -4.9079  -4.8519  -4.3055  -4.1838  -4.0616  -4.0227
    -3.9211  -3.8176  -2.7826  -2.7069  -2.5941  -2.5396  -2.3395  -2.2873
    -1.2763  -1.1723  -1.0114  -0.9427  -0.8945  -0.7959  -0.0321   0.0209
     0.5055   0.8140

     occupation numbers 
     1.0000   1.0000   1.0000   1.0000   1.0000   1.0000   1.0000   1.0000
     1.0000   1.0000   1.0000   1.0000   1.0000   1.0000   1.0000   1.0000
     1.0000   1.0000   1.0000   1.0000   1.0000   1.0000   1.0000   1.0000
     1.0000   1.0000   1.0000   1.0000   1.0000   1.0000   1.0000   1.0000
     1.0000   1.0000   1.0000   1.0000   1.0000   1.0000   1.0000   1.0000
     1.0000   1.0000

          k = 0.0169 0.0643-0.0265 ( 36489 PWs)   bands (ev):

   -16.2280 -16.0009 -15.2740 -15.1736 -13.9842 -13.8582 -12.4470 -12.3017
   -11.3698 -11.1617  -8.9871  -8.7940  -8.2066  -7.9978  -6.4450  -6.2956
    -5.3745  -5.2084  -5.0095  -4.8926  -4.3844  -4.2190  -4.0986  -3.9949
    -3.3587  -3.1875  -2.6560  -2.5274  -2.4400  -2.3664  -2.1551  -2.0297
    -1.1040  -0.9743  -0.8935  -0.8049  -0.7698  -0.7049  -0.1466   0.1595
     0.7143   0.7559

     occupation numbers 
     1.0000   1.0000   1.0000   1.0000   1.0000   1.0000   1.0000   1.0000
     1.0000   1.0000   1.0000   1.0000   1.0000   1.0000   1.0000   1.0000
     1.0000   1.0000   1.0000   1.0000   1.0000   1.0000   1.0000   1.0000
     1.0000   1.0000   1.0000   1.0000   1.0000   1.0000   1.0000   1.0000
     1.0000   1.0000   1.0000   1.0000   1.0000   1.0000   1.0000   1.0000
     1.0000   1.0000

          k =-0.0169 0.0214-0.0407 ( 36525 PWs)   bands (ev):

   -16.2515 -16.0330 -15.2613 -15.1739 -13.9419 -13.8172 -12.4091 -12.2652
   -11.3623 -11.1665  -9.0761  -8.8718  -8.2876  -8.1142  -6.4163  -6.2275
    -5.4045  -5.2282  -4.9603  -4.8558  -4.2358  -4.0970  -3.9808  -3.9356
    -3.2857  -3.1099  -2.7351  -2.5986  -2.4952  -2.3188  -2.1766  -2.0895
    -1.1419  -1.0597  -1.0127  -0.9482  -0.8653  -0.7193  -0.2104   0.1441
     0.6584   0.7451

     occupation numbers 
     1.0000   1.0000   1.0000   1.0000   1.0000   1.0000   1.0000   1.0000
     1.0000   1.0000   1.0000   1.0000   1.0000   1.0000   1.0000   1.0000
     1.0000   1.0000   1.0000   1.0000   1.0000   1.0000   1.0000   1.0000
     1.0000   1.0000   1.0000   1.0000   1.0000   1.0000   1.0000   1.0000
     1.0000   1.0000   1.0000   1.0000   1.0000   1.0000   1.0000   1.0000
     1.0000   1.0000

          k =-0.0169 0.0214-0.1078 ( 36561 PWs)   bands (ev):

   -16.1853 -15.9486 -15.2015 -15.1364 -13.9104 -13.7966 -12.4299 -12.2434
   -11.3345 -11.1650  -9.0511  -8.8333  -8.2791  -8.0752  -6.4199  -6.2309
    -5.4087  -5.2309  -5.0481  -4.9504  -4.2877  -4.2425  -4.0426  -3.9898
    -3.7635  -3.6908  -2.8135  -2.6734  -2.5385  -2.4866  -2.3719  -2.2827
    -1.3692  -1.2139  -1.1386  -0.9797  -0.8394  -0.7335  -0.1944  -0.1122
     0.5177   0.8226

     occupation numbers 
     1.0000   1.0000   1.0000   1.0000   1.0000   1.0000   1.0000   1.0000
     1.0000   1.0000   1.0000   1.0000   1.0000   1.0000   1.0000   1.0000
     1.0000   1.0000   1.0000   1.0000   1.0000   1.0000   1.0000   1.0000
     1.0000   1.0000   1.0000   1.0000   1.0000   1.0000   1.0000   1.0000
     1.0000   1.0000   1.0000   1.0000   1.0000   1.0000   1.0000   1.0000
     1.0000   1.0000

          k =-0.0169 0.0214 0.0936 ( 36547 PWs)   bands (ev):

   -16.1835 -15.9539 -15.2079 -15.1255 -13.9071 -13.7952 -12.4384 -12.2373
   -11.3298 -11.1815  -9.0194  -8.8624  -8.2520  -8.1171  -6.3705  -6.2378
    -5.3998  -5.2337  -5.0871  -4.8731  -4.3089  -4.2431  -4.1205  -4.0227
    -3.8005  -3.6420  -2.7141  -2.6466  -2.5381  -2.5085  -2.3580  -2.2842
    -1.3501  -1.2377  -1.0862  -1.0208  -0.8626  -0.7771  -0.1780  -0.1580
     0.5094   0.8267

     occupation numbers 
     1.0000   1.0000   1.0000   1.0000   1.0000   1.0000   1.0000   1.0000
     1.0000   1.0000   1.0000   1.0000   1.0000   1.0000   1.0000   1.0000
     1.0000   1.0000   1.0000   1.0000   1.0000   1.0000   1.0000   1.0000
     1.0000   1.0000   1.0000   1.0000   1.0000   1.0000   1.0000   1.0000
     1.0000   1.0000   1.0000   1.0000   1.0000   1.0000   1.0000   1.0000
     1.0000   1.0000

          k =-0.0169 0.0214 0.0265 ( 36551 PWs)   bands (ev):

   -16.2504 -16.0364 -15.2701 -15.1619 -13.9402 -13.8137 -12.4182 -12.2599
   -11.3588 -11.1797  -9.0532  -8.8966  -8.2880  -8.1141  -6.4196  -6.1852
    -5.4019  -5.2420  -5.0835  -4.6879  -4.2950  -4.1020  -4.0736  -3.8364
    -3.3086  -3.0960  -2.7580  -2.5736  -2.4718  -2.2675  -2.1694  -2.1062
    -1.1695  -1.0913  -1.0155  -0.9211  -0.8300  -0.7727  -0.2069   0.0987
     0.6666   0.7366

     occupation numbers 
     1.0000   1.0000   1.0000   1.0000   1.0000   1.0000   1.0000   1.0000
     1.0000   1.0000   1.0000   1.0000   1.0000   1.0000   1.0000   1.0000
     1.0000   1.0000   1.0000   1.0000   1.0000   1.0000   1.0000   1.0000
     1.0000   1.0000   1.0000   1.0000   1.0000   1.0000   1.0000   1.0000
     1.0000   1.0000   1.0000   1.0000   1.0000   1.0000   1.0000   1.0000
     1.0000   1.0000

          k =-0.0169 0.0643-0.0407 ( 36518 PWs)   bands (ev):

   -16.2276 -16.0020 -15.2651 -15.1826 -13.9809 -13.8605 -12.4474 -12.3026
   -11.3694 -11.1601  -8.9855  -8.7966  -8.2060  -8.0053  -6.4285  -6.2846
    -5.3772  -5.2093  -4.9912  -4.9702  -4.3501  -4.2627  -4.0485  -3.9792
    -3.3539  -3.1899  -2.6517  -2.5501  -2.4669  -2.3761  -2.1290  -2.0255
    -1.0750  -0.9229  -0.8755  -0.8245  -0.7882  -0.7602  -0.1475   0.1592
     0.7072   0.7663

     occupation numbers 
     1.0000   1.0000   1.0000   1.0000   1.0000   1.0000   1.0000   1.0000
     1.0000   1.0000   1.0000   1.0000   1.0000   1.0000   1.0000   1.0000
     1.0000   1.0000   1.0000   1.0000   1.0000   1.0000   1.0000   1.0000
     1.0000   1.0000   1.0000   1.0000   1.0000   1.0000   1.0000   1.0000
     1.0000   1.0000   1.0000   1.0000   1.0000   1.0000   1.0000   1.0000
     1.0000   1.0000

          k =-0.0169 0.0643-0.1078 ( 36558 PWs)   bands (ev):

   -16.1671 -15.9310 -15.2020 -15.1357 -13.9316 -13.8305 -12.4454 -12.2608
   -11.3401 -11.1870  -9.0201  -8.8083  -8.2532  -8.0591  -6.4162  -6.2625
    -5.3984  -5.2137  -4.9271  -4.8514  -4.3081  -4.1949  -4.0427  -3.9878
    -3.9491  -3.8409  -2.7697  -2.7000  -2.5701  -2.4853  -2.3982  -2.2956
    -1.3453  -1.1631  -1.0088  -0.9335  -0.8837  -0.7706  -0.0369   0.0266
     0.4991   0.8172

     occupation numbers 
     1.0000   1.0000   1.0000   1.0000   1.0000   1.0000   1.0000   1.0000
     1.0000   1.0000   1.0000   1.0000   1.0000   1.0000   1.0000   1.0000
     1.0000   1.0000   1.0000   1.0000   1.0000   1.0000   1.0000   1.0000
     1.0000   1.0000   1.0000   1.0000   1.0000   1.0000   1.0000   1.0000
     1.0000   1.0000   1.0000   1.0000   1.0000   1.0000   1.0000   1.0000
     1.0000   1.0000

          k =-0.0169 0.0643 0.0936 ( 36547 PWs)   bands (ev):

   -16.1652 -15.9367 -15.2077 -15.1249 -13.9344 -13.8230 -12.4539 -12.2551
   -11.3389 -11.1996  -8.9895  -8.8376  -8.2279  -8.0969  -6.3964  -6.2326
    -5.3977  -5.2264  -4.9892  -4.7603  -4.3016  -4.2160  -4.1515  -3.9898
    -3.9294  -3.7915  -2.7619  -2.6877  -2.6165  -2.5265  -2.3272  -2.2268
    -1.2747  -1.1839  -1.0265  -0.9821  -0.8837  -0.8180  -0.0321  -0.0130
     0.4988   0.8208

     occupation numbers 
     1.0000   1.0000   1.0000   1.0000   1.0000   1.0000   1.0000   1.0000
     1.0000   1.0000   1.0000   1.0000   1.0000   1.0000   1.0000   1.0000
     1.0000   1.0000   1.0000   1.0000   1.0000   1.0000   1.0000   1.0000
     1.0000   1.0000   1.0000   1.0000   1.0000   1.0000   1.0000   1.0000
     1.0000   1.0000   1.0000   1.0000   1.0000   1.0000   1.0000   1.0000
     1.0000   1.0000

          k =-0.0169 0.0643 0.0265 ( 36489 PWs)   bands (ev):

   -16.2260 -16.0065 -15.2730 -15.1702 -13.9849 -13.8528 -12.4555 -12.2947
   -11.3709 -11.1728  -8.9622  -8.8154  -8.1781  -8.0412  -6.4246  -6.2710
    -5.3716  -5.2052  -5.0588  -4.8381  -4.3755  -4.2350  -4.1485  -4.0077
    -3.3813  -3.1542  -2.6147  -2.5490  -2.4112  -2.3290  -2.1568  -2.0221
    -1.1136  -0.9403  -0.8774  -0.8693  -0.7821  -0.7281  -0.1503   0.1205
     0.7107   0.7574

     occupation numbers 
     1.0000   1.0000   1.0000   1.0000   1.0000   1.0000   1.0000   1.0000
     1.0000   1.0000   1.0000   1.0000   1.0000   1.0000   1.0000   1.0000
     1.0000   1.0000   1.0000   1.0000   1.0000   1.0000   1.0000   1.0000
     1.0000   1.0000   1.0000   1.0000   1.0000   1.0000   1.0000   1.0000
     1.0000   1.0000   1.0000   1.0000   1.0000   1.0000   1.0000   1.0000
     1.0000   1.0000

     highest occupied level (ev):     0.8293

!    total energy              =    -548.04391667 Ry
     Harris-Foulkes estimate   =    -548.04391671 Ry
     estimated scf accuracy    <       0.00000004 Ry

     total all-electron energy =     -4615.887404 Ry

     The total energy is the sum of the following terms:

     one-electron contribution =    -151.35713930 Ry
     hartree contribution      =     107.05453604 Ry
     xc contribution           =    -104.22429017 Ry
     ewald contribution        =    -143.73377930 Ry
     one-center paw contrib.   =    -255.78324394 Ry
      -> PAW hartree energy AE =      19.60976438 Ry
      -> PAW hartree energy PS =     -19.50451222 Ry
      -> PAW xc energy AE      =     -55.73888397 Ry
      -> PAW xc energy PS      =      10.18984175 Ry
      -> total E_H with PAW    =     107.15978820 Ry
      -> total E_XC with PAW   =    -149.77333239 Ry

     convergence has been achieved in  11 iterations
 writing file ./scratch/scf-1546.save/charge-density
 writing file ./scratch/scf-1546.save/charge-density
 writing file ./scratch/scf-1546.save/charge-density
 writing file ./scratch/scf-1546.save/charge-density
 writing file ./scratch/scf-1546.save/charge-density
 writing file ./scratch/scf-1546.save/charge-density
 writing file ./scratch/scf-1546.save/charge-density
 writing file ./scratch/scf-1546.save/charge-density
 writing file ./scratch/scf-1546.save/charge-density
 writing file ./scratch/scf-1546.save/charge-density
 writing file ./scratch/scf-1546.save/charge-density
 writing file ./scratch/scf-1546.save/charge-density
 writing file ./scratch/scf-1546.save/charge-density
 writing file ./scratch/scf-1546.save/charge-density
 writing file ./scratch/scf-1546.save/charge-density
 writing file ./scratch/scf-1546.save/charge-density
 writing file ./scratch/scf-1546.save/charge-density
 writing file ./scratch/scf-1546.save/charge-density
 writing file ./scratch/scf-1546.save/charge-density
 writing file ./scratch/scf-1546.save/charge-density
 writing file ./scratch/scf-1546.save/charge-density
 writing file ./scratch/scf-1546.save/charge-density
 writing file ./scratch/scf-1546.save/charge-density
 writing file ./scratch/scf-1546.save/charge-density
 writing file ./scratch/scf-1546.save/charge-density
 writing file ./scratch/scf-1546.save/charge-density
 writing file ./scratch/scf-1546.save/charge-density
 writing file ./scratch/scf-1546.save/charge-density
 writing file ./scratch/scf-1546.save/charge-density
 writing file ./scratch/scf-1546.save/charge-density
 writing file ./scratch/scf-1546.save/charge-density
 writing file ./scratch/scf-1546.save/charge-density

     Forces acting on atoms (cartesian axes, Ry/au):

     atom    1 type  2   force =     0.04618602   -0.03220915    0.00734591
     atom    2 type  1   force =    -0.03158162    0.01983291   -0.00507862
     atom    3 type  1   force =    -0.00902680    0.00854319   -0.01073223
     atom    4 type  3   force =     0.00095487   -0.00230785   -0.00012338
     atom    5 type  1   force =    -0.00388456    0.00490358    0.01092334
     atom    6 type  3   force =     0.00268932   -0.00058445    0.00033279
     atom    7 type  3   force =    -0.00119408   -0.00002547   -0.00074157
     atom    8 type  1   force =    -0.01234141   -0.01153306   -0.00175760
     atom    9 type  3   force =     0.00095093   -0.00435825   -0.00110339
     atom   10 type  1   force =     0.00102696   -0.00570019   -0.00201759
     atom   11 type  1   force =    -0.02256462   -0.01598751    0.00665354
     atom   12 type  2   force =     0.03003418    0.03286879    0.00287009
     atom   13 type  3   force =    -0.00277575    0.00014212    0.00018517
     atom   14 type  1   force =    -0.00225468    0.00577563   -0.00395042
     atom   15 type  3   force =    -0.00010171    0.00187076    0.00073557
     atom   16 type  1   force =    -0.01979775   -0.00464503   -0.00657742
     atom   17 type  1   force =    -0.01841950    0.05244953    0.01642129
     atom   18 type  2   force =     0.04210306   -0.04750951   -0.00692617
     atom   19 type  3   force =     0.00123122    0.00023842   -0.00010865
     atom   20 type  1   force =    -0.00188805   -0.01874393   -0.01295196
     atom   21 type  3   force =     0.00234936   -0.00222474   -0.00364593
     atom   22 type  1   force =    -0.00642775    0.00938156    0.00544097
     atom   23 type  1   force =    -0.03154155   -0.00009821    0.00359791
     atom   24 type  2   force =     0.03627390    0.00992087    0.00120833
     The non-local contrib.  to forces
     atom    1 type  2   force =    -0.29952457    0.25752887   -0.03827712
     atom    2 type  1   force =     0.33219890   -0.28492304    0.05983472
     atom    3 type  1   force =    -0.03005330   -0.02622312   -0.05087667
     atom    4 type  3   force =    -0.05631222   -0.02113979   -0.05040904
     atom    5 type  1   force =    -0.03129694   -0.02907304   -0.02671775
     atom    6 type  3   force =     0.00522405   -0.06708350   -0.04009542
     atom    7 type  3   force =     0.00541049   -0.06833976    0.03912576
     atom    8 type  1   force =     0.01089361   -0.06587453    0.02059306
     atom    9 type  3   force =     0.06742842   -0.02108660    0.03473847
     atom   10 type  1   force =     0.03480695   -0.06390503    0.03724580
     atom   11 type  1   force =    -0.41161023   -0.33708105    0.02826739
     atom   12 type  2   force =     0.28917239    0.26585953    0.00102329
     atom   13 type  3   force =    -0.00512268    0.06635897    0.04132492
     atom   14 type  1   force =     0.00590688    0.04842085    0.02901799
     atom   15 type  3   force =     0.05623094    0.01908549    0.05200243
     atom   16 type  1   force =     0.01139499    0.05824256    0.06236625
     atom   17 type  1   force =    -0.39842755    0.37410552   -0.04040369
     atom   18 type  2   force =     0.28604540   -0.26812264   -0.00213346
     atom   19 type  3   force =    -0.00379413    0.06575053   -0.04306711
     atom   20 type  1   force =    -0.03573374    0.02365336   -0.06746540
     atom   21 type  3   force =    -0.06481072    0.01749410   -0.04092470
     atom   22 type  1   force =    -0.04289317    0.04593972   -0.03999892
     atom   23 type  1   force =     0.34407126    0.30209307   -0.02641125
     atom   24 type  2   force =    -0.28246583   -0.27958803    0.03227908
     The ionic contribution  to forces
     atom    1 type  2   force =     5.98302112   -4.24199972    1.22802216
     atom    2 type  1   force =     2.44733434   -1.20806648    0.80273575
     atom    3 type  1   force =     4.30711318    1.95271297    3.45660489
     atom    4 type  3   force =     1.93632690    0.78050345    1.60972727
     atom    5 type  1   force =     1.09509481    4.06437915    2.44758484
     atom    6 type  3   force =     0.13983653    1.95782769    1.33707626
     atom    7 type  3   force =    -0.52571147    1.95556267   -1.30433009
     atom    8 type  1   force =    -1.82834245    3.91990984   -2.51931460
     atom    9 type  3   force =    -2.17687057    0.81809933   -1.09038065
     atom   10 type  1   force =    -4.96141894    1.81227031   -2.55318198
     atom   11 type  1   force =    -3.08457228   -1.92954305   -0.57162666
     atom   12 type  2   force =    -6.23197051   -4.34299377   -1.04215714
     atom   13 type  3   force =     0.05227476   -1.97292066   -1.28247303
     atom   14 type  1   force =    -0.34715852   -4.00175883   -2.27447327
     atom   15 type  3   force =    -1.61404427   -0.77340753   -1.44077383
     atom   16 type  1   force =    -3.44223783   -1.76089524   -3.02641775
     atom   17 type  1   force =    -2.44814108    1.86521927   -0.63837944
     atom   18 type  2   force =    -4.03394342    4.15172103   -0.40963955
     atom   19 type  3   force =     0.20520791   -1.86675056    1.25910437
     atom   20 type  1   force =     0.59850665   -3.75369122    2.46426734
     atom   21 type  3   force =     2.08128891   -0.57572725    1.19859543
     atom   22 type  1   force =     4.34063490   -1.84534845    2.27577383
     atom   23 type  1   force =     2.13633937    1.00855834   -0.04434054
     atom   24 type  2   force =     5.37143197    3.98633869    0.11799640
     The local contribution  to forces
     atom    1 type  2   force =    -5.64718776    3.96099332   -1.18347099
     atom    2 type  1   force =    -2.80288084    1.50609292   -0.86607473
     atom    3 type  1   force =    -4.28488242   -1.91774691   -3.41553574
     atom    4 type  3   force =    -1.87907614   -0.76167751   -1.55945767
     atom    5 type  1   force =    -1.06787157   -4.02905255   -2.40931300
     atom    6 type  3   force =    -0.14235550   -1.89132315   -1.29663869
     atom    7 type  3   force =     0.51911145   -1.88722320    1.26445687
     atom    8 type  1   force =     1.80489530   -3.86486428    2.49620186
     atom    9 type  3   force =     2.11037999   -0.80137381    1.05453461
     atom   10 type  1   force =     4.92627506   -1.75446483    2.51351853
     atom   11 type  1   force =     3.46268989    2.24142016    0.55048087
     atom   12 type  2   force =     5.98605045    4.12240718    1.04404535
     atom   13 type  3   force =    -0.04991958    1.90670242    1.24133709
     atom   14 type  1   force =     0.33898690    3.95802122    2.24084951
     atom   15 type  3   force =     1.55768988    0.75618349    1.38949122
     atom   16 type  1   force =     3.40974306    1.69806528    2.95673814
     atom   17 type  1   force =     2.81679925   -2.17691839    0.69392900
     atom   18 type  2   force =     3.80356183   -3.94409848    0.40443108
     atom   19 type  3   force =    -0.20018067    1.80126764   -1.21615950
     atom   20 type  1   force =    -0.56506043    3.71014337   -2.40935344
     atom   21 type  3   force =    -2.01415354    0.55600396   -1.16132729
     atom   22 type  1   force =    -4.30295676    1.80857863   -2.23012971
     atom   23 type  1   force =    -2.50292174   -1.30386791    0.07346630
     atom   24 type  2   force =    -5.06266409   -3.70728503   -0.14787171
     The core correction contribution to forces
     atom    1 type  2   force =     0.00992549   -0.00871673    0.00111184
     atom    2 type  1   force =    -0.00817936    0.00679081   -0.00151459
     atom    3 type  1   force =    -0.00111286   -0.00017551   -0.00086253
     atom    4 type  3   force =     0.00000000    0.00000000    0.00000000
     atom    5 type  1   force =     0.00033000   -0.00136153   -0.00056574
     atom    6 type  3   force =     0.00000000    0.00000000    0.00000000
     atom    7 type  3   force =     0.00000000    0.00000000    0.00000000
     atom    8 type  1   force =     0.00023989   -0.00069674    0.00076906
     atom    9 type  3   force =     0.00000000    0.00000000    0.00000000
     atom   10 type  1   force =     0.00133097    0.00031612    0.00042400
     atom   11 type  1   force =     0.01100373    0.00915801   -0.00041682
     atom   12 type  2   force =    -0.01316732   -0.01234458   -0.00005428
     atom   13 type  3   force =     0.00000000    0.00000000    0.00000000
     atom   14 type  1   force =     0.00008660    0.00101996    0.00065990
     atom   15 type  3   force =     0.00000000    0.00000000    0.00000000
     atom   16 type  1   force =     0.00130560   -0.00009445    0.00072504
     atom   17 type  1   force =     0.01135294   -0.00989469    0.00129971
     atom   18 type  2   force =    -0.01364731    0.01306312    0.00037687
     atom   19 type  3   force =     0.00000000    0.00000000    0.00000000
     atom   20 type  1   force =     0.00043072    0.00114189   -0.00039714
     atom   21 type  3   force =     0.00000000    0.00000000    0.00000000
     atom   22 type  1   force =    -0.00125932    0.00011377   -0.00018670
     atom   23 type  1   force =    -0.00898183   -0.00694428    0.00092281
     atom   24 type  2   force =     0.00988962    0.01048840   -0.00122521
     The Hubbard contrib.    to forces
     atom    1 type  2   force =     0.00000000    0.00000000    0.00000000
     atom    2 type  1   force =     0.00000000    0.00000000    0.00000000
     atom    3 type  1   force =     0.00000000    0.00000000    0.00000000
     atom    4 type  3   force =     0.00000000    0.00000000    0.00000000
     atom    5 type  1   force =     0.00000000    0.00000000    0.00000000
     atom    6 type  3   force =     0.00000000    0.00000000    0.00000000
     atom    7 type  3   force =     0.00000000    0.00000000    0.00000000
     atom    8 type  1   force =     0.00000000    0.00000000    0.00000000
     atom    9 type  3   force =     0.00000000    0.00000000    0.00000000
     atom   10 type  1   force =     0.00000000    0.00000000    0.00000000
     atom   11 type  1   force =     0.00000000    0.00000000    0.00000000
     atom   12 type  2   force =     0.00000000    0.00000000    0.00000000
     atom   13 type  3   force =     0.00000000    0.00000000    0.00000000
     atom   14 type  1   force =     0.00000000    0.00000000    0.00000000
     atom   15 type  3   force =     0.00000000    0.00000000    0.00000000
     atom   16 type  1   force =     0.00000000    0.00000000    0.00000000
     atom   17 type  1   force =     0.00000000    0.00000000    0.00000000
     atom   18 type  2   force =     0.00000000    0.00000000    0.00000000
     atom   19 type  3   force =     0.00000000    0.00000000    0.00000000
     atom   20 type  1   force =     0.00000000    0.00000000    0.00000000
     atom   21 type  3   force =     0.00000000    0.00000000    0.00000000
     atom   22 type  1   force =     0.00000000    0.00000000    0.00000000
     atom   23 type  1   force =     0.00000000    0.00000000    0.00000000
     atom   24 type  2   force =     0.00000000    0.00000000    0.00000000
     The SCF correction term to forces
     atom    1 type  2   force =    -0.00004810   -0.00001370   -0.00003995
     atom    2 type  1   force =    -0.00005450   -0.00006011   -0.00005974
     atom    3 type  1   force =    -0.00009125   -0.00002304   -0.00006217
     atom    4 type  3   force =     0.00001649    0.00000719    0.00001608
     atom    5 type  1   force =    -0.00014069    0.00001274   -0.00006500
     atom    6 type  3   force =    -0.00001559   -0.00000430   -0.00000935
     atom    7 type  3   force =    -0.00000439   -0.00002397    0.00000591
     atom    8 type  1   force =    -0.00002760   -0.00000616   -0.00000696
     atom    9 type  3   force =     0.00001325    0.00000403    0.00000420
     atom   10 type  1   force =     0.00003309    0.00008444   -0.00002392
     atom   11 type  1   force =    -0.00007558    0.00005961   -0.00005121
     atom   12 type  2   force =    -0.00005067   -0.00005837    0.00001289
     atom   13 type  3   force =    -0.00000809    0.00000258   -0.00000379
     atom   14 type  1   force =    -0.00007639    0.00007363   -0.00000454
     atom   15 type  3   force =     0.00002189    0.00001051    0.00001577
     atom   16 type  1   force =    -0.00000341    0.00003803    0.00001092
     atom   17 type  1   force =    -0.00000291   -0.00006098   -0.00002426
     atom   18 type  2   force =     0.00008672   -0.00007135    0.00003891
     atom   19 type  3   force =    -0.00000172   -0.00002799    0.00001362
     atom   20 type  1   force =    -0.00003109    0.00000986   -0.00000329
     atom   21 type  3   force =     0.00002487    0.00000565    0.00001064
     atom   22 type  1   force =     0.00004676    0.00009908   -0.00001752
     atom   23 type  1   force =    -0.00004844    0.00006377   -0.00003939
     atom   24 type  2   force =     0.00008239   -0.00003197    0.00002978

     Total force =     0.139006     Total SCF correction =     0.000380

     Writing output data file scf-1546.save
 writing file ./scratch/scf-1546.save/charge-density
 writing file ./scratch/scf-1546.save/charge-density
 writing file ./scratch/scf-1546.save/charge-density
 writing file ./scratch/scf-1546.save/charge-density
 writing file ./scratch/scf-1546.save/charge-density
 writing file ./scratch/scf-1546.save/charge-density
 writing file ./scratch/scf-1546.save/charge-density
 writing file ./scratch/scf-1546.save/charge-density
 writing file ./scratch/scf-1546.save/charge-density
 writing file ./scratch/scf-1546.save/charge-density
 writing file ./scratch/scf-1546.save/charge-density
 writing file ./scratch/scf-1546.save/charge-density
 writing file ./scratch/scf-1546.save/charge-density
 writing file ./scratch/scf-1546.save/charge-density
 writing file ./scratch/scf-1546.save/charge-density
 writing file ./scratch/scf-1546.save/charge-density
 writing file ./scratch/scf-1546.save/charge-density
 writing file ./scratch/scf-1546.save/charge-density
 writing file ./scratch/scf-1546.save/charge-density
 writing file ./scratch/scf-1546.save/charge-density
 writing file ./scratch/scf-1546.save/charge-density
 writing file ./scratch/scf-1546.save/charge-density
 writing file ./scratch/scf-1546.save/charge-density
 writing file ./scratch/scf-1546.save/charge-density
 writing file ./scratch/scf-1546.save/charge-density
 writing file ./scratch/scf-1546.save/charge-density
 writing file ./scratch/scf-1546.save/charge-density
 writing file ./scratch/scf-1546.save/charge-density
 writing file ./scratch/scf-1546.save/charge-density
 writing file ./scratch/scf-1546.save/charge-density
 writing file ./scratch/scf-1546.save/charge-density
 writing file ./scratch/scf-1546.save/charge-density
 
     init_run     :      4.48s CPU      4.69s WALL (       1 calls)
     electrons    :     49.69s CPU     53.11s WALL (       1 calls)
     forces       :      2.32s CPU      2.46s WALL (       1 calls)

     Called by init_run:
     wfcinit      :      1.59s CPU      1.61s WALL (       1 calls)
     wfcinit:atom :      0.02s CPU      0.02s WALL (      16 calls)
     wfcinit:wfcr :      1.47s CPU      1.49s WALL (      16 calls)
     potinit      :      1.00s CPU      1.02s WALL (       1 calls)

     Called by electrons:
     c_bands      :     38.85s CPU     39.57s WALL (      11 calls)
     sum_band     :      6.80s CPU      8.01s WALL (      11 calls)
     v_of_rho     :      0.92s CPU      0.97s WALL (      12 calls)
     v_h          :      0.06s CPU      0.06s WALL (      12 calls)
     v_xc         :      0.93s CPU      0.98s WALL (      13 calls)
     newd         :      1.46s CPU      2.85s WALL (      12 calls)
     PAW_pot      :      1.64s CPU      1.70s WALL (      12 calls)
     mix_rho      :      0.14s CPU      0.14s WALL (      11 calls)

     Called by c_bands:
     init_us_2    :      0.76s CPU      0.87s WALL (     384 calls)
     cegterg      :     36.54s CPU     36.77s WALL (     176 calls)

     Called by sum_band:
     sum_band:bec :      0.02s CPU      0.02s WALL (     176 calls)
     addusdens    :      1.48s CPU      2.65s WALL (      11 calls)

     Called by *egterg:
     h_psi        :     27.15s CPU     27.37s WALL (     863 calls)
     s_psi        :      2.12s CPU      2.02s WALL (     863 calls)
     g_psi        :      0.12s CPU      0.16s WALL (     671 calls)
     cdiaghg      :      3.55s CPU      3.43s WALL (     847 calls)
     cegterg:over :      1.58s CPU      1.64s WALL (     671 calls)
     cegterg:upda :      1.29s CPU      1.28s WALL (     671 calls)
     cegterg:last :      0.40s CPU      0.44s WALL (     192 calls)

     Called by h_psi:
     h_psi:pot    :     26.91s CPU     27.11s WALL (     863 calls)
     h_psi:calbec :      2.42s CPU      2.27s WALL (     863 calls)
     vloc_psi     :     22.52s CPU     22.87s WALL (     863 calls)
     add_vuspsi   :      1.96s CPU      1.97s WALL (     863 calls)

     General routines
     calbec       :      3.20s CPU      3.02s WALL (    1103 calls)
     fft          :      0.85s CPU      0.90s WALL (     199 calls)
     ffts         :      0.01s CPU      0.03s WALL (      23 calls)
     fftw         :     21.24s CPU     21.58s WALL (   55708 calls)
     interpolate  :      0.14s CPU      0.15s WALL (      23 calls)
     davcio       :      0.00s CPU      0.01s WALL (      16 calls)
 
     Parallel routines
     fft_scatter  :      7.47s CPU      7.85s WALL (   55930 calls)

     PAW routines
     PAW_pot      :      1.64s CPU      1.70s WALL (      12 calls)
 
     PWSCF        :  0m57.16s CPU     1m 1.41s WALL

 
   This run was terminated on:  12:48:20  22May2017            

=------------------------------------------------------------------------------=
   JOB DONE.
=------------------------------------------------------------------------------=
