
     Program PWSCF v.6.1 starts on 22May2017 at 13:25:44 

     This program is part of the open-source Quantum ESPRESSO suite
     for quantum simulation of materials; please cite
         "P. Giannozzi et al., J. Phys.:Condens. Matter 21 395502 (2009);
          URL http://www.quantum-espresso.org", 
     in publications or presentations arising from this work. More details at
     http://www.quantum-espresso.org/quote

     Parallel version (MPI & OpenMP), running on      32 processor cores
     Number of MPI processes:                32
     Threads/MPI process:                     1
     R & G space division:  proc/nbgrp/npool/nimage =      32
     Waiting for input...
     Reading input from standard input
Warning: card &IONS ignored
Warning: card     ION_TEMPERATURE   = 'INITIAL' ignored
Warning: card     TEMPW             = 586.D0 ignored
Warning: card     TOLP              = 100.D0 ignored
Warning: card     DELTA_T           = 1.D0 ignored
Warning: card     NRAISE            = 1 ignored
Warning: card / ignored
Warning: card &CELL ignored
Warning: card     CELL_DYNAMICS     = 'BFGS' ignored
Warning: card / ignored

     Current dimensions of program PWSCF are:
     Max number of different atomic species (ntypx) = 10
     Max number of k-points (npk) =  40000
     Max angular momentum in pseudopotentials (lmaxx) =  3
               file C.pbe-n-kjpaw_psl.1.0.0.UPF: wavefunction(s)  2S 2P renormalized
               file Cl.pbe-n-kjpaw_psl.1.0.0.UPF: wavefunction(s)  3S 3P renormalized
               file H.pbe-kjpaw_psl.1.0.0.UPF: wavefunction(s)  1S renormalized

     Subspace diagonalization in iterative solution of the eigenvalue problem:
     a serial algorithm will be used

 
     Parallelization info
     --------------------
     sticks:   dense  smooth     PW     G-vecs:    dense   smooth      PW
     Min         764     305     83                36108     9133    1292
     Max         765     306     84                36110     9135    1293
     Sum       24467    9791   2657              1155489   292295   41363
 


     bravais-lattice index     =            0
     lattice parameter (alat)  =       1.8897  a.u.
     unit-cell volume          =    2163.5316 (a.u.)^3
     number of atoms/cell      =           24
     number of atomic types    =            3
     number of electrons       =        84.00
     number of Kohn-Sham states=           42
     kinetic-energy cutoff     =     100.0000  Ry
     charge density cutoff     =    1000.0000  Ry
     convergence threshold     =      1.0E-07
     mixing beta               =       0.7000
     number of iterations used =            8  plain     mixing
     Exchange-correlation      =  SLA  PW   PBX  PBC ( 1  4  3  4 0 0)

     celldm(1)=   1.889726  celldm(2)=   0.000000  celldm(3)=   0.000000
     celldm(4)=   0.000000  celldm(5)=   0.000000  celldm(6)=   0.000000

     crystal axes: (cart. coord. in units of alat)
               a(1) = (  14.762000   0.000000   0.000000 )  
               a(2) = (   0.000000   5.832000   0.000000 )  
               a(3) = (  -1.563876   0.000000   3.723951 )  

     reciprocal axes: (cart. coord. in units 2 pi/alat)
               b(1) = (  0.067741  0.000000  0.028448 )  
               b(2) = (  0.000000  0.171468  0.000000 )  
               b(3) = (  0.000000  0.000000  0.268532 )  


     PseudoPot. # 1 for  C read from file:
     /global/cscratch1/sd/almno10/.data/PSEUDOPOTENTIALS/C.pbe-n-kjpaw_psl.1.0.0.UPF
     MD5 check sum: 2ba8448e293caca687844dde9a1b88a8
     Pseudo is Projector augmented-wave + core cor, Zval =  4.0
     Generated using "atomic" code by A. Dal Corso  v.5.3.0 svn rev. 11974
     Shape of augmentation charge: PSQ
     Using radial grid of 1073 points,  4 beta functions with: 
                l(1) =   0
                l(2) =   0
                l(3) =   1
                l(4) =   1
     Q(r) pseudized with 0 coefficients 


     PseudoPot. # 2 for Cl read from file:
     /global/cscratch1/sd/almno10/.data/PSEUDOPOTENTIALS/Cl.pbe-n-kjpaw_psl.1.0.0.UPF
     MD5 check sum: dca63699d6b897c5771335df08a09219
     Pseudo is Projector augmented-wave + core cor, Zval =  7.0
     Generated using "atomic" code by A. Dal Corso  v.5.3.0 svn rev. 11974
     Shape of augmentation charge: PSQ
     Using radial grid of 1157 points,  6 beta functions with: 
                l(1) =   0
                l(2) =   0
                l(3) =   1
                l(4) =   1
                l(5) =   2
                l(6) =   2
     Q(r) pseudized with 0 coefficients 


     PseudoPot. # 3 for  H read from file:
     /global/cscratch1/sd/almno10/.data/PSEUDOPOTENTIALS/H.pbe-kjpaw_psl.1.0.0.UPF
     MD5 check sum: bc0feb48a24907a0b97fa6ee2d589a29
     Pseudo is Projector augmented-wave, Zval =  1.0
     Generated using "atomic" code by A. Dal Corso  v.5.3.0 svn rev. 11974
     Shape of augmentation charge: PSQ
     Using radial grid of  929 points,  2 beta functions with: 
                l(1) =   0
                l(2) =   0
     Q(r) pseudized with 0 coefficients 


     atomic species   valence    mass     pseudopotential
        C              4.00    12.01100      C( 1.00)
        Cl             7.00    35.45270     Cl( 1.00)
        H              1.00     1.00790      H( 1.00)

     No symmetry found


                                    s                        frac. trans.

      isym =  1     identity                                     

 cryst.   s( 1) = (     1          0          0      )
                  (     0          1          0      )
                  (     0          0          1      )

 cart.    s( 1) = (  1.0000000  0.0000000 -0.0000000 )
                  (  0.0000000  1.0000000  0.0000000 )
                  (  0.0000000  0.0000000  1.0000000 )


   Cartesian axes

     site n.     atom                  positions (alat units)
         1           Cl  tau(   1) = (  16.5041724   1.3358615   1.6186662  )
         2           C   tau(   2) = (  14.9917406   2.3040634   1.7921424  )
         3           C   tau(   3) = (  15.0910645   3.5125973   2.4801949  )
         4           H   tau(   4) = (  16.0472112   3.8962286   2.8330599  )
         5           C   tau(   5) = (  13.9481711   4.3055305   2.5643259  )
         6           H   tau(   6) = (  13.9842084   5.2538422   3.0983645  )
         7           H   tau(   7) = (   6.4763977   1.9433562   0.3989055  )
         8           C   tau(   8) = (   6.5560949   1.0538988   1.0196327  )
         9           H   tau(   9) = (   4.5874703   0.3376100   0.5082838  )
        10           C   tau(  10) = (   5.5058324   0.1364095   1.0570504  )
        11           C   tau(  11) = (   5.5904355  -1.0135857   1.8401274  )
        12           Cl  tau(  12) = (   4.2596193  -2.1944873   1.6182598  )
        13           H   tau(  13) = (  13.7189030   0.8959209   0.7794244  )
        14           C   tau(  14) = (  13.7708466   1.8547290   1.2917100  )
        15           H   tau(  15) = (  11.6640900   2.2529949   1.0757107  )
        16           C   tau(  16) = (  12.6122367   2.6083097   1.4736120  )
        17           C   tau(  17) = (  12.7167537   3.8248869   2.1221830  )
        18           Cl  tau(  18) = (  11.4194294   4.9042648   2.2849311  )
        19           H   tau(  19) = (   6.8211872  -2.2009382   3.1892570  )
        20           C   tau(  20) = (   6.7507082  -1.3219469   2.5507410  )
        21           H   tau(  21) = (   8.7054691  -0.5886352   3.0834623  )
        22           C   tau(  22) = (   7.7857376  -0.3885905   2.5379061  )
        23           C   tau(  23) = (   7.7125280   0.7468517   1.7337220  )
        24           Cl  tau(  24) = (   9.1338322   1.7396897   1.8835041  )

   Crystallographic axes

     site n.     atom                  positions (cryst. coord.)
         1           Cl  tau(   1) = (  1.1640653  0.2290572  0.4346636  )
         2           C   tau(   2) = (  1.0665460  0.3950726  0.4812475  )
         3           C   tau(   3) = (  1.0928481  0.6022972  0.6660116  )
         4           H   tau(   4) = (  1.1676573  0.6680776  0.7607672  )
         5           C   tau(   5) = (  1.0178202  0.7382597  0.6886035  )
         6           H   tau(   6) = (  1.0354538  0.9008646  0.8320099  )
         7           H   tau(   7) = (  0.4500690  0.3332229  0.1071189  )
         8           C   tau(   8) = (  0.4731263  0.1807097  0.2738040  )
         9           H   tau(   9) = (  0.3252218  0.0578892  0.1364905  )
        10           C   tau(  10) = (  0.4030444  0.0233898  0.2838518  )
        11           C   tau(  11) = (  0.4310526 -0.1737973  0.4941330  )
        12           Cl  tau(  12) = (  0.3345894 -0.3762838  0.4345545  )
        13           H   tau(  13) = (  0.9515122  0.1536216  0.2093004  )
        14           C   tau(  14) = (  0.9696045  0.3180262  0.3468654  )
        15           H   tau(  15) = (  0.8207448  0.3863160  0.2888627  )
        16           C   tau(  16) = (  0.8962933  0.4472410  0.3957119  )
        17           C   tau(  17) = (  0.9218240  0.6558448  0.5698740  )
        18           Cl  tau(  18) = (  0.8385712  0.8409233  0.6135770  )
        19           H   tau(  19) = (  0.5528057 -0.3773900  0.8564175  )
        20           C   tau(  20) = (  0.5298668 -0.2266713  0.6849555  )
        21           H   tau(  21) = (  0.6774401 -0.1009320  0.8280082  )
        22           C   tau(  22) = (  0.5996161 -0.0666308  0.6815089  )
        23           C   tau(  23) = (  0.5717793  0.1280610  0.4655598  )
        24           Cl  tau(  24) = (  0.6723216  0.2983007  0.5057811  )

     number of k points=    16
                       cart. coord. in units 2pi/alat
        k(    1) = (   0.0169354   0.0214335   0.0406785), wk =   0.1250000
        k(    2) = (   0.0169354   0.0214335   0.1078115), wk =   0.1250000
        k(    3) = (   0.0169354   0.0214335  -0.0935875), wk =   0.1250000
        k(    4) = (   0.0169354   0.0214335  -0.0264545), wk =   0.1250000
        k(    5) = (   0.0169354   0.0643004   0.0406785), wk =   0.1250000
        k(    6) = (   0.0169354   0.0643004   0.1078115), wk =   0.1250000
        k(    7) = (   0.0169354   0.0643004  -0.0935875), wk =   0.1250000
        k(    8) = (   0.0169354   0.0643004  -0.0264545), wk =   0.1250000
        k(    9) = (  -0.0169354   0.0214335  -0.0406785), wk =   0.1250000
        k(   10) = (  -0.0169354   0.0214335  -0.1078115), wk =   0.1250000
        k(   11) = (  -0.0169354   0.0214335   0.0935875), wk =   0.1250000
        k(   12) = (  -0.0169354   0.0214335   0.0264545), wk =   0.1250000
        k(   13) = (  -0.0169354   0.0643004  -0.0406785), wk =   0.1250000
        k(   14) = (  -0.0169354   0.0643004  -0.1078115), wk =   0.1250000
        k(   15) = (  -0.0169354   0.0643004   0.0935875), wk =   0.1250000
        k(   16) = (  -0.0169354   0.0643004   0.0264545), wk =   0.1250000

                       cryst. coord.
        k(    1) = (   0.2500000   0.1250000   0.1250000), wk =   0.1250000
        k(    2) = (   0.2500000   0.1250000   0.3750000), wk =   0.1250000
        k(    3) = (   0.2500000   0.1250000  -0.3750000), wk =   0.1250000
        k(    4) = (   0.2500000   0.1250000  -0.1250000), wk =   0.1250000
        k(    5) = (   0.2500000   0.3750000   0.1250000), wk =   0.1250000
        k(    6) = (   0.2500000   0.3750000   0.3750000), wk =   0.1250000
        k(    7) = (   0.2500000   0.3750000  -0.3750000), wk =   0.1250000
        k(    8) = (   0.2500000   0.3750000  -0.1250000), wk =   0.1250000
        k(    9) = (  -0.2500000   0.1250000  -0.1250000), wk =   0.1250000
        k(   10) = (  -0.2500000   0.1250000  -0.3750000), wk =   0.1250000
        k(   11) = (  -0.2500000   0.1250000   0.3750000), wk =   0.1250000
        k(   12) = (  -0.2500000   0.1250000   0.1250000), wk =   0.1250000
        k(   13) = (  -0.2500000   0.3750000  -0.1250000), wk =   0.1250000
        k(   14) = (  -0.2500000   0.3750000  -0.3750000), wk =   0.1250000
        k(   15) = (  -0.2500000   0.3750000   0.3750000), wk =   0.1250000
        k(   16) = (  -0.2500000   0.3750000   0.1250000), wk =   0.1250000

     Dense  grid:  1155489 G-vectors     FFT dimensions: ( 288, 120,  80)

     Smooth grid:   292295 G-vectors     FFT dimensions: ( 180,  72,  50)

     Estimated max dynamical RAM per process >     147.21MB

     Estimated total allocated dynamical RAM >    4710.62MB

     Initial potential from superposition of free atoms

     starting charge   83.99939, renormalised to   84.00000
     Starting wfc are   72 randomized atomic wfcs
     Checking if some PAW data can be deallocated... 
       node    0, deallocated PAW data for type:  1
       node    0, deallocated PAW data for type:  3
       node    1, deallocated PAW data for type:  1
       node    1, deallocated PAW data for type:  3
       node    2, deallocated PAW data for type:  2
       node    2, deallocated PAW data for type:  3
       node    3, deallocated PAW data for type:  2
       node    3, deallocated PAW data for type:  3
       node    4, deallocated PAW data for type:  2
       node    4, deallocated PAW data for type:  3
       node    5, deallocated PAW data for type:  2
       node    5, deallocated PAW data for type:  3
       node    6, deallocated PAW data for type:  1
       node    6, deallocated PAW data for type:  2
       node    7, deallocated PAW data for type:  1
       node    7, deallocated PAW data for type:  2
       node    8, deallocated PAW data for type:  2
       node    8, deallocated PAW data for type:  3
       node    9, deallocated PAW data for type:  2
       node    9, deallocated PAW data for type:  3
       node   10, deallocated PAW data for type:  1
       node   10, deallocated PAW data for type:  2
       node   11, deallocated PAW data for type:  1
       node   11, deallocated PAW data for type:  2
       node   12, deallocated PAW data for type:  1
       node   12, deallocated PAW data for type:  2
       node   13, deallocated PAW data for type:  1
       node   13, deallocated PAW data for type:  2
       node   14, deallocated PAW data for type:  2
       node   14, deallocated PAW data for type:  3
       node   15, deallocated PAW data for type:  2
       node   15, deallocated PAW data for type:  3
       node   16, deallocated PAW data for type:  1
       node   16, deallocated PAW data for type:  2
       node   17, deallocated PAW data for type:  2
       node   17, deallocated PAW data for type:  3
       node   18, deallocated PAW data for type:  2
       node   18, deallocated PAW data for type:  3
       node   19, deallocated PAW data for type:  1
       node   19, deallocated PAW data for type:  3
       node   20, deallocated PAW data for type:  1
       node   20, deallocated PAW data for type:  2
       node   21, deallocated PAW data for type:  2
       node   21, deallocated PAW data for type:  3
       node   22, deallocated PAW data for type:  1
       node   22, deallocated PAW data for type:  2
       node   23, deallocated PAW data for type:  2
       node   23, deallocated PAW data for type:  3
       node   24, deallocated PAW data for type:  2
       node   24, deallocated PAW data for type:  3
       node   25, deallocated PAW data for type:  1
       node   25, deallocated PAW data for type:  3
       node   26, deallocated PAW data for type:  1
       node   26, deallocated PAW data for type:  2
       node   27, deallocated PAW data for type:  2
       node   27, deallocated PAW data for type:  3
       node   28, deallocated PAW data for type:  1
       node   28, deallocated PAW data for type:  2
       node   29, deallocated PAW data for type:  2
       node   29, deallocated PAW data for type:  3
       node   30, deallocated PAW data for type:  2
       node   30, deallocated PAW data for type:  3
       node   31, deallocated PAW data for type:  1
       node   31, deallocated PAW data for type:  3

     total cpu time spent up to now is        5.7 secs

     per-process dynamical memory:    20.7 Mb

     Self-consistent Calculation

     iteration #  1     ecut=   100.00 Ry     beta= 0.70
     Davidson diagonalization with overlap
     ethr =  1.00E-04,  avg # of iterations =  5.0

     total cpu time spent up to now is       12.5 secs

     total energy              =    -547.12915079 Ry
     Harris-Foulkes estimate   =    -548.99432424 Ry
     estimated scf accuracy    <       2.73134438 Ry

     iteration #  2     ecut=   100.00 Ry     beta= 0.70
     Davidson diagonalization with overlap
     ethr =  3.25E-03,  avg # of iterations =  3.0

     total cpu time spent up to now is       17.3 secs

     total energy              =    -547.52899047 Ry
     Harris-Foulkes estimate   =    -548.60775894 Ry
     estimated scf accuracy    <       1.94748653 Ry

     iteration #  3     ecut=   100.00 Ry     beta= 0.70
     Davidson diagonalization with overlap
     ethr =  2.32E-03,  avg # of iterations =  3.0

     total cpu time spent up to now is       21.7 secs

     total energy              =    -548.01361988 Ry
     Harris-Foulkes estimate   =    -548.05737848 Ry
     estimated scf accuracy    <       0.08752622 Ry

     iteration #  4     ecut=   100.00 Ry     beta= 0.70
     Davidson diagonalization with overlap
     ethr =  1.04E-04,  avg # of iterations =  3.9

     total cpu time spent up to now is       26.5 secs

     total energy              =    -548.04111395 Ry
     Harris-Foulkes estimate   =    -548.05201188 Ry
     estimated scf accuracy    <       0.02166240 Ry

     iteration #  5     ecut=   100.00 Ry     beta= 0.70
     Davidson diagonalization with overlap
     ethr =  2.58E-05,  avg # of iterations =  3.0

     total cpu time spent up to now is       30.9 secs

     total energy              =    -548.04560110 Ry
     Harris-Foulkes estimate   =    -548.04596811 Ry
     estimated scf accuracy    <       0.00080258 Ry

     iteration #  6     ecut=   100.00 Ry     beta= 0.70
     Davidson diagonalization with overlap
     ethr =  9.55E-07,  avg # of iterations =  3.8

     total cpu time spent up to now is       35.7 secs

     total energy              =    -548.04584063 Ry
     Harris-Foulkes estimate   =    -548.04592635 Ry
     estimated scf accuracy    <       0.00016176 Ry

     iteration #  7     ecut=   100.00 Ry     beta= 0.70
     Davidson diagonalization with overlap
     ethr =  1.93E-07,  avg # of iterations =  4.0

     total cpu time spent up to now is       40.4 secs

     total energy              =    -548.04587162 Ry
     Harris-Foulkes estimate   =    -548.04591744 Ry
     estimated scf accuracy    <       0.00011255 Ry

     iteration #  8     ecut=   100.00 Ry     beta= 0.70
     Davidson diagonalization with overlap
     ethr =  1.34E-07,  avg # of iterations =  4.0

     total cpu time spent up to now is       44.7 secs

     total energy              =    -548.04589439 Ry
     Harris-Foulkes estimate   =    -548.04590155 Ry
     estimated scf accuracy    <       0.00001901 Ry

     iteration #  9     ecut=   100.00 Ry     beta= 0.70
     Davidson diagonalization with overlap
     ethr =  2.26E-08,  avg # of iterations =  4.0

     total cpu time spent up to now is       49.1 secs

     total energy              =    -548.04589812 Ry
     Harris-Foulkes estimate   =    -548.04589898 Ry
     estimated scf accuracy    <       0.00000201 Ry

     iteration # 10     ecut=   100.00 Ry     beta= 0.70
     Davidson diagonalization with overlap
     ethr =  2.39E-09,  avg # of iterations =  4.0

     total cpu time spent up to now is       53.7 secs

     End of self-consistent calculation

          k = 0.0169 0.0214 0.0407 ( 36525 PWs)   bands (ev):

   -16.1922 -16.0395 -15.2968 -15.2310 -13.9251 -13.8747 -12.3493 -12.3436
   -11.2824 -11.2243  -8.9923  -8.9687  -8.2420  -8.1624  -6.3777  -6.2740
    -5.3245  -5.3223  -5.0255  -4.7979  -4.2238  -4.1306  -4.0015  -3.8937
    -3.2078  -3.1513  -2.7188  -2.5692  -2.4178  -2.3043  -2.1734  -2.1286
    -1.2156  -1.1335  -1.0219  -0.9792  -0.8821  -0.7627  -0.0431   0.1018
     0.5202   0.7164

     occupation numbers 
     1.0000   1.0000   1.0000   1.0000   1.0000   1.0000   1.0000   1.0000
     1.0000   1.0000   1.0000   1.0000   1.0000   1.0000   1.0000   1.0000
     1.0000   1.0000   1.0000   1.0000   1.0000   1.0000   1.0000   1.0000
     1.0000   1.0000   1.0000   1.0000   1.0000   1.0000   1.0000   1.0000
     1.0000   1.0000   1.0000   1.0000   1.0000   1.0000   1.0000   1.0000
     1.0000   1.0000

          k = 0.0169 0.0214 0.1078 ( 36561 PWs)   bands (ev):

   -16.1066 -15.9637 -15.2371 -15.1922 -13.9210 -13.8483 -12.3473 -12.3056
   -11.2804 -11.2418  -8.9599  -8.9406  -8.2040  -8.1399  -6.3963  -6.2878
    -5.3329  -5.3175  -5.0535  -4.9028  -4.3180  -4.1516  -4.0909  -3.9872
    -3.8111  -3.6910  -2.7731  -2.7224  -2.6070  -2.4533  -2.3415  -2.2732
    -1.3249  -1.2024  -1.1006  -1.0004  -0.8593  -0.7940  -0.2844  -0.1663
     0.6137   0.8131

     occupation numbers 
     1.0000   1.0000   1.0000   1.0000   1.0000   1.0000   1.0000   1.0000
     1.0000   1.0000   1.0000   1.0000   1.0000   1.0000   1.0000   1.0000
     1.0000   1.0000   1.0000   1.0000   1.0000   1.0000   1.0000   1.0000
     1.0000   1.0000   1.0000   1.0000   1.0000   1.0000   1.0000   1.0000
     1.0000   1.0000   1.0000   1.0000   1.0000   1.0000   1.0000   1.0000
     1.0000   1.0000

          k = 0.0169 0.0214-0.0936 ( 36547 PWs)   bands (ev):

   -16.1115 -15.9590 -15.2406 -15.1877 -13.9135 -13.8547 -12.3538 -12.2998
   -11.2811 -11.2461  -8.9689  -8.9274  -8.2214  -8.1323  -6.3934  -6.2639
    -5.3314  -5.3074  -5.1088  -4.8406  -4.3002  -4.2315  -4.0793  -3.9888
    -3.7621  -3.7215  -2.7672  -2.6598  -2.6048  -2.4632  -2.3997  -2.3125
    -1.2762  -1.1811  -1.0874  -1.0148  -0.9024  -0.7737  -0.3349  -0.1355
     0.6050   0.8170

     occupation numbers 
     1.0000   1.0000   1.0000   1.0000   1.0000   1.0000   1.0000   1.0000
     1.0000   1.0000   1.0000   1.0000   1.0000   1.0000   1.0000   1.0000
     1.0000   1.0000   1.0000   1.0000   1.0000   1.0000   1.0000   1.0000
     1.0000   1.0000   1.0000   1.0000   1.0000   1.0000   1.0000   1.0000
     1.0000   1.0000   1.0000   1.0000   1.0000   1.0000   1.0000   1.0000
     1.0000   1.0000

          k = 0.0169 0.0214-0.0265 ( 36551 PWs)   bands (ev):

   -16.1968 -16.0348 -15.3004 -15.2269 -13.9198 -13.8784 -12.3564 -12.3383
   -11.2807 -11.2297  -8.9984  -8.9596  -8.2809  -8.1281  -6.4057  -6.2187
    -5.3325  -5.3059  -5.1093  -4.7095  -4.2834  -4.1708  -3.9177  -3.8534
    -3.2040  -3.1784  -2.8119  -2.5431  -2.3734  -2.3109  -2.2011  -2.1369
    -1.1669  -1.1019  -1.0665  -0.9813  -0.8948  -0.7399  -0.0200   0.0448
     0.5262   0.7146

     occupation numbers 
     1.0000   1.0000   1.0000   1.0000   1.0000   1.0000   1.0000   1.0000
     1.0000   1.0000   1.0000   1.0000   1.0000   1.0000   1.0000   1.0000
     1.0000   1.0000   1.0000   1.0000   1.0000   1.0000   1.0000   1.0000
     1.0000   1.0000   1.0000   1.0000   1.0000   1.0000   1.0000   1.0000
     1.0000   1.0000   1.0000   1.0000   1.0000   1.0000   1.0000   1.0000
     1.0000   1.0000

          k = 0.0169 0.0643 0.0407 ( 36518 PWs)   bands (ev):

   -16.1650 -16.0129 -15.2986 -15.2416 -13.9575 -13.9137 -12.3928 -12.3824
   -11.2873 -11.2303  -8.9111  -8.8775  -8.1499  -8.0836  -6.3955  -6.3166
    -5.2920  -5.2744  -5.0235  -4.9458  -4.3710  -4.2088  -4.1041  -3.9232
    -3.2684  -3.2349  -2.6432  -2.5798  -2.4328  -2.3085  -2.1547  -2.0805
    -1.0650  -1.0005  -0.9246  -0.8773  -0.8279  -0.7721  -0.0437   0.1523
     0.5811   0.7417

     occupation numbers 
     1.0000   1.0000   1.0000   1.0000   1.0000   1.0000   1.0000   1.0000
     1.0000   1.0000   1.0000   1.0000   1.0000   1.0000   1.0000   1.0000
     1.0000   1.0000   1.0000   1.0000   1.0000   1.0000   1.0000   1.0000
     1.0000   1.0000   1.0000   1.0000   1.0000   1.0000   1.0000   1.0000
     1.0000   1.0000   1.0000   1.0000   1.0000   1.0000   1.0000   1.0000
     1.0000   1.0000

          k = 0.0169 0.0643 0.1078 ( 36558 PWs)   bands (ev):

   -16.0904 -15.9449 -15.2338 -15.1955 -13.9309 -13.8800 -12.3620 -12.3363
   -11.3009 -11.2613  -8.9386  -8.8995  -8.1746  -8.1217  -6.3763  -6.2955
    -5.3061  -5.2956  -4.9451  -4.8716  -4.3225  -4.1728  -4.0858  -3.9888
    -3.9441  -3.8713  -2.7169  -2.6512  -2.5995  -2.4931  -2.3525  -2.2935
    -1.2748  -1.1392  -1.0816  -0.9953  -0.9034  -0.8120  -0.1274  -0.0672
     0.6079   0.8409

     occupation numbers 
     1.0000   1.0000   1.0000   1.0000   1.0000   1.0000   1.0000   1.0000
     1.0000   1.0000   1.0000   1.0000   1.0000   1.0000   1.0000   1.0000
     1.0000   1.0000   1.0000   1.0000   1.0000   1.0000   1.0000   1.0000
     1.0000   1.0000   1.0000   1.0000   1.0000   1.0000   1.0000   1.0000
     1.0000   1.0000   1.0000   1.0000   1.0000   1.0000   1.0000   1.0000
     1.0000   1.0000

          k = 0.0169 0.0643-0.0936 ( 36547 PWs)   bands (ev):

   -16.0952 -15.9406 -15.2334 -15.1946 -13.9296 -13.8802 -12.3685 -12.3302
   -11.3081 -11.2601  -8.9284  -8.9026  -8.1780  -8.1311  -6.3771  -6.2788
    -5.3021  -5.2954  -4.9562  -4.8079  -4.3396  -4.2095  -4.1307  -3.9864
    -3.9018  -3.8619  -2.7447  -2.6759  -2.6028  -2.5374  -2.3273  -2.2450
    -1.2253  -1.1602  -1.0774  -1.0208  -0.8701  -0.8314  -0.1798  -0.0418
     0.6073   0.8435

     occupation numbers 
     1.0000   1.0000   1.0000   1.0000   1.0000   1.0000   1.0000   1.0000
     1.0000   1.0000   1.0000   1.0000   1.0000   1.0000   1.0000   1.0000
     1.0000   1.0000   1.0000   1.0000   1.0000   1.0000   1.0000   1.0000
     1.0000   1.0000   1.0000   1.0000   1.0000   1.0000   1.0000   1.0000
     1.0000   1.0000   1.0000   1.0000   1.0000   1.0000   1.0000   1.0000
     1.0000   1.0000

          k = 0.0169 0.0643-0.0265 ( 36489 PWs)   bands (ev):

   -16.1694 -16.0089 -15.2983 -15.2408 -13.9604 -13.9097 -12.3921 -12.3829
   -11.2879 -11.2367  -8.9099  -8.8699  -8.1514  -8.0941  -6.4058  -6.3024
    -5.2832  -5.2774  -5.0091  -4.8934  -4.3539  -4.2207  -4.1537  -3.9654
    -3.2653  -3.2393  -2.6294  -2.5288  -2.4379  -2.3515  -2.1587  -2.0813
    -1.0937  -0.9852  -0.9355  -0.8708  -0.8063  -0.7502  -0.0259   0.1010
     0.5835   0.7405

     occupation numbers 
     1.0000   1.0000   1.0000   1.0000   1.0000   1.0000   1.0000   1.0000
     1.0000   1.0000   1.0000   1.0000   1.0000   1.0000   1.0000   1.0000
     1.0000   1.0000   1.0000   1.0000   1.0000   1.0000   1.0000   1.0000
     1.0000   1.0000   1.0000   1.0000   1.0000   1.0000   1.0000   1.0000
     1.0000   1.0000   1.0000   1.0000   1.0000   1.0000   1.0000   1.0000
     1.0000   1.0000

          k =-0.0169 0.0214-0.0407 ( 36525 PWs)   bands (ev):

   -16.1961 -16.0360 -15.2947 -15.2320 -13.9191 -13.8794 -12.3555 -12.3384
   -11.2746 -11.2369  -8.9971  -8.9587  -8.2561  -8.1595  -6.3555  -6.2680
    -5.3328  -5.3052  -5.0605  -4.7758  -4.2450  -4.1478  -3.9765  -3.8617
    -3.1961  -3.1781  -2.7603  -2.5601  -2.3852  -2.3373  -2.1723  -2.1296
    -1.2060  -1.1216  -1.0301  -0.9486  -0.9125  -0.7473  -0.0236   0.0472
     0.5283   0.7137

     occupation numbers 
     1.0000   1.0000   1.0000   1.0000   1.0000   1.0000   1.0000   1.0000
     1.0000   1.0000   1.0000   1.0000   1.0000   1.0000   1.0000   1.0000
     1.0000   1.0000   1.0000   1.0000   1.0000   1.0000   1.0000   1.0000
     1.0000   1.0000   1.0000   1.0000   1.0000   1.0000   1.0000   1.0000
     1.0000   1.0000   1.0000   1.0000   1.0000   1.0000   1.0000   1.0000
     1.0000   1.0000

          k =-0.0169 0.0214-0.1078 ( 36561 PWs)   bands (ev):

   -16.1110 -15.9599 -15.2352 -15.1927 -13.9165 -13.8519 -12.3538 -12.2991
   -11.2806 -11.2477  -8.9699  -8.9247  -8.1946  -8.1624  -6.3553  -6.3035
    -5.3357  -5.3085  -5.0517  -4.8990  -4.3098  -4.1940  -4.1076  -3.9676
    -3.7631  -3.7252  -2.7846  -2.7248  -2.6053  -2.4045  -2.3875  -2.2893
    -1.2975  -1.1782  -1.1025  -0.9897  -0.8851  -0.7970  -0.3396  -0.1361
     0.6064   0.8174

     occupation numbers 
     1.0000   1.0000   1.0000   1.0000   1.0000   1.0000   1.0000   1.0000
     1.0000   1.0000   1.0000   1.0000   1.0000   1.0000   1.0000   1.0000
     1.0000   1.0000   1.0000   1.0000   1.0000   1.0000   1.0000   1.0000
     1.0000   1.0000   1.0000   1.0000   1.0000   1.0000   1.0000   1.0000
     1.0000   1.0000   1.0000   1.0000   1.0000   1.0000   1.0000   1.0000
     1.0000   1.0000

          k =-0.0169 0.0214 0.0936 ( 36547 PWs)   bands (ev):

   -16.1071 -15.9627 -15.2448 -15.1849 -13.9178 -13.8518 -12.3472 -12.3059
   -11.2682 -11.2535  -8.9609  -8.9407  -8.2211  -8.1197  -6.4003  -6.2867
    -5.3358  -5.3164  -5.0973  -4.8433  -4.2609  -4.2241  -4.0977  -4.0009
    -3.7842  -3.7004  -2.7670  -2.6600  -2.6331  -2.4425  -2.3682  -2.3120
    -1.2855  -1.1859  -1.1182  -1.0179  -0.8771  -0.7875  -0.2687  -0.1740
     0.6165   0.8108

     occupation numbers 
     1.0000   1.0000   1.0000   1.0000   1.0000   1.0000   1.0000   1.0000
     1.0000   1.0000   1.0000   1.0000   1.0000   1.0000   1.0000   1.0000
     1.0000   1.0000   1.0000   1.0000   1.0000   1.0000   1.0000   1.0000
     1.0000   1.0000   1.0000   1.0000   1.0000   1.0000   1.0000   1.0000
     1.0000   1.0000   1.0000   1.0000   1.0000   1.0000   1.0000   1.0000
     1.0000   1.0000

          k =-0.0169 0.0214 0.0265 ( 36551 PWs)   bands (ev):

   -16.1931 -16.0378 -15.3032 -15.2254 -13.9177 -13.8819 -12.3504 -12.3438
   -11.2772 -11.2275  -8.9923  -8.9729  -8.2754  -8.1199  -6.4109  -6.2374
    -5.3376  -5.3117  -5.1199  -4.7005  -4.2793  -4.0981  -3.9403  -3.8982
    -3.2120  -3.1700  -2.8043  -2.5194  -2.3869  -2.3145  -2.1967  -2.1273
    -1.1752  -1.1216  -1.0394  -0.9953  -0.9069  -0.7361  -0.0462   0.0984
     0.5252   0.7149

     occupation numbers 
     1.0000   1.0000   1.0000   1.0000   1.0000   1.0000   1.0000   1.0000
     1.0000   1.0000   1.0000   1.0000   1.0000   1.0000   1.0000   1.0000
     1.0000   1.0000   1.0000   1.0000   1.0000   1.0000   1.0000   1.0000
     1.0000   1.0000   1.0000   1.0000   1.0000   1.0000   1.0000   1.0000
     1.0000   1.0000   1.0000   1.0000   1.0000   1.0000   1.0000   1.0000
     1.0000   1.0000

          k =-0.0169 0.0643-0.0407 ( 36518 PWs)   bands (ev):

   -16.1693 -16.0091 -15.2957 -15.2435 -13.9534 -13.9164 -12.3905 -12.3859
   -11.2807 -11.2415  -8.9093  -8.8741  -8.1518  -8.0958  -6.3724  -6.3091
    -5.2871  -5.2742  -5.0574  -4.9147  -4.4104  -4.1777  -4.0763  -3.9443
    -3.2703  -3.2393  -2.7069  -2.5193  -2.4333  -2.3420  -2.1276  -2.0947
    -1.0814  -0.9741  -0.9165  -0.8803  -0.8090  -0.7772  -0.0279   0.0985
     0.5863   0.7425

     occupation numbers 
     1.0000   1.0000   1.0000   1.0000   1.0000   1.0000   1.0000   1.0000
     1.0000   1.0000   1.0000   1.0000   1.0000   1.0000   1.0000   1.0000
     1.0000   1.0000   1.0000   1.0000   1.0000   1.0000   1.0000   1.0000
     1.0000   1.0000   1.0000   1.0000   1.0000   1.0000   1.0000   1.0000
     1.0000   1.0000   1.0000   1.0000   1.0000   1.0000   1.0000   1.0000
     1.0000   1.0000

          k =-0.0169 0.0643-0.1078 ( 36558 PWs)   bands (ev):

   -16.0951 -15.9408 -15.2317 -15.1962 -13.9271 -13.8827 -12.3686 -12.3302
   -11.3039 -11.2639  -8.9297  -8.9022  -8.1680  -8.1426  -6.3375  -6.3091
    -5.3048  -5.2912  -4.9446  -4.8590  -4.3337  -4.1891  -4.0967  -3.9876
    -3.9121  -3.8863  -2.7369  -2.6498  -2.6087  -2.4813  -2.3949  -2.2608
    -1.2639  -1.1383  -1.0658  -0.9778  -0.8902  -0.8420  -0.1793  -0.0405
     0.6018   0.8453

     occupation numbers 
     1.0000   1.0000   1.0000   1.0000   1.0000   1.0000   1.0000   1.0000
     1.0000   1.0000   1.0000   1.0000   1.0000   1.0000   1.0000   1.0000
     1.0000   1.0000   1.0000   1.0000   1.0000   1.0000   1.0000   1.0000
     1.0000   1.0000   1.0000   1.0000   1.0000   1.0000   1.0000   1.0000
     1.0000   1.0000   1.0000   1.0000   1.0000   1.0000   1.0000   1.0000
     1.0000   1.0000

          k =-0.0169 0.0643 0.0936 ( 36547 PWs)   bands (ev):

   -16.0906 -15.9445 -15.2387 -15.1907 -13.9321 -13.8792 -12.3619 -12.3359
   -11.2966 -11.2666  -8.9405  -8.8959  -8.1791  -8.1162  -6.3653  -6.3194
    -5.3076  -5.3008  -4.9486  -4.8177  -4.3047  -4.2212  -4.1060  -4.0214
    -3.8920  -3.8646  -2.7661  -2.6530  -2.5914  -2.5321  -2.3015  -2.2657
    -1.2254  -1.1605  -1.1052  -0.9878  -0.8869  -0.8505  -0.1232  -0.0741
     0.6143   0.8419

     occupation numbers 
     1.0000   1.0000   1.0000   1.0000   1.0000   1.0000   1.0000   1.0000
     1.0000   1.0000   1.0000   1.0000   1.0000   1.0000   1.0000   1.0000
     1.0000   1.0000   1.0000   1.0000   1.0000   1.0000   1.0000   1.0000
     1.0000   1.0000   1.0000   1.0000   1.0000   1.0000   1.0000   1.0000
     1.0000   1.0000   1.0000   1.0000   1.0000   1.0000   1.0000   1.0000
     1.0000   1.0000

          k =-0.0169 0.0643 0.0265 ( 36489 PWs)   bands (ev):

   -16.1653 -16.0124 -15.3017 -15.2387 -13.9565 -13.9150 -12.3936 -12.3807
   -11.2844 -11.2348  -8.9116  -8.8763  -8.1570  -8.0712  -6.4093  -6.3240
    -5.2946  -5.2728  -5.0410  -4.8805  -4.3678  -4.1680  -4.1213  -3.9978
    -3.2714  -3.2352  -2.6809  -2.4827  -2.4140  -2.3550  -2.1485  -2.0977
    -1.0511  -1.0162  -0.9522  -0.8700  -0.8363  -0.7410  -0.0439   0.1534
     0.5820   0.7396

     occupation numbers 
     1.0000   1.0000   1.0000   1.0000   1.0000   1.0000   1.0000   1.0000
     1.0000   1.0000   1.0000   1.0000   1.0000   1.0000   1.0000   1.0000
     1.0000   1.0000   1.0000   1.0000   1.0000   1.0000   1.0000   1.0000
     1.0000   1.0000   1.0000   1.0000   1.0000   1.0000   1.0000   1.0000
     1.0000   1.0000   1.0000   1.0000   1.0000   1.0000   1.0000   1.0000
     1.0000   1.0000

     highest occupied level (ev):     0.8453

!    total energy              =    -548.04589856 Ry
     Harris-Foulkes estimate   =    -548.04589862 Ry
     estimated scf accuracy    <       0.00000010 Ry

     total all-electron energy =     -4615.889386 Ry

     The total energy is the sum of the following terms:

     one-electron contribution =    -150.42339622 Ry
     hartree contribution      =     106.56733397 Ry
     xc contribution           =    -104.22097820 Ry
     ewald contribution        =    -144.18560978 Ry
     one-center paw contrib.   =    -255.78324833 Ry
      -> PAW hartree energy AE =      19.00895651 Ry
      -> PAW hartree energy PS =     -18.90457984 Ry
      -> PAW xc energy AE      =     -55.62652111 Ry
      -> PAW xc energy PS      =      10.08107616 Ry
      -> total E_H with PAW    =     106.67171064 Ry
      -> total E_XC with PAW   =    -149.76642315 Ry

     convergence has been achieved in  10 iterations
 writing file ./scratch/scf-1305.save/charge-density
 writing file ./scratch/scf-1305.save/charge-density
 writing file ./scratch/scf-1305.save/charge-density
 writing file ./scratch/scf-1305.save/charge-density
 writing file ./scratch/scf-1305.save/charge-density
 writing file ./scratch/scf-1305.save/charge-density
 writing file ./scratch/scf-1305.save/charge-density
 writing file ./scratch/scf-1305.save/charge-density
 writing file ./scratch/scf-1305.save/charge-density
 writing file ./scratch/scf-1305.save/charge-density
 writing file ./scratch/scf-1305.save/charge-density
 writing file ./scratch/scf-1305.save/charge-density
 writing file ./scratch/scf-1305.save/charge-density
 writing file ./scratch/scf-1305.save/charge-density
 writing file ./scratch/scf-1305.save/charge-density
 writing file ./scratch/scf-1305.save/charge-density
 writing file ./scratch/scf-1305.save/charge-density
 writing file ./scratch/scf-1305.save/charge-density
 writing file ./scratch/scf-1305.save/charge-density
 writing file ./scratch/scf-1305.save/charge-density
 writing file ./scratch/scf-1305.save/charge-density
 writing file ./scratch/scf-1305.save/charge-density
 writing file ./scratch/scf-1305.save/charge-density
 writing file ./scratch/scf-1305.save/charge-density
 writing file ./scratch/scf-1305.save/charge-density
 writing file ./scratch/scf-1305.save/charge-density
 writing file ./scratch/scf-1305.save/charge-density
 writing file ./scratch/scf-1305.save/charge-density
 writing file ./scratch/scf-1305.save/charge-density
 writing file ./scratch/scf-1305.save/charge-density
 writing file ./scratch/scf-1305.save/charge-density
 writing file ./scratch/scf-1305.save/charge-density

     Forces acting on atoms (cartesian axes, Ry/au):

     atom    1 type  2   force =    -0.04054694    0.01289405    0.00107550
     atom    2 type  1   force =     0.02747411   -0.00991142    0.00932009
     atom    3 type  1   force =    -0.00212767    0.01077892   -0.02435839
     atom    4 type  3   force =    -0.00111951   -0.00554238    0.00305835
     atom    5 type  1   force =     0.01061948   -0.01285626    0.02895987
     atom    6 type  3   force =     0.00380656    0.00240596   -0.00429689
     atom    7 type  3   force =     0.00034511    0.00198058    0.00116685
     atom    8 type  1   force =     0.01314309   -0.00106055   -0.00559367
     atom    9 type  3   force =     0.00217489    0.00127247   -0.00460010
     atom   10 type  1   force =    -0.00772406    0.00771005    0.00911026
     atom   11 type  1   force =    -0.01119249   -0.02413305   -0.03596810
     atom   12 type  2   force =     0.02463782    0.02181012    0.02205320
     atom   13 type  3   force =    -0.00139986    0.00043266   -0.00240565
     atom   14 type  1   force =     0.01473074   -0.01987253    0.00080215
     atom   15 type  3   force =     0.00007140   -0.00031609    0.00036571
     atom   16 type  1   force =     0.00258105   -0.00789157   -0.00762576
     atom   17 type  1   force =     0.03773508    0.00946554   -0.00722133
     atom   18 type  2   force =    -0.04790127    0.01777097   -0.00032677
     atom   19 type  3   force =     0.00052916   -0.00343177   -0.00519088
     atom   20 type  1   force =    -0.01585726    0.00889526    0.01504375
     atom   21 type  3   force =    -0.00340157   -0.00118742    0.00507094
     atom   22 type  1   force =    -0.00311796   -0.02423231   -0.01108673
     atom   23 type  1   force =     0.00132481   -0.00925167    0.03250929
     atom   24 type  2   force =    -0.00478472    0.02427044   -0.01986168
     The non-local contrib.  to forces
     atom    1 type  2   force =    -0.33914569    0.19997831    0.03499100
     atom    2 type  1   force =     0.42886952   -0.30261519   -0.04278268
     atom    3 type  1   force =    -0.04057743   -0.03502656   -0.07356428
     atom    4 type  3   force =    -0.06926895   -0.02814985   -0.02544800
     atom    5 type  1   force =    -0.02306575   -0.06496822    0.01875809
     atom    6 type  3   force =    -0.00293105   -0.06809536   -0.03901637
     atom    7 type  3   force =     0.00654401   -0.06435771    0.04533630
     atom    8 type  1   force =     0.07375627   -0.05683920    0.03451601
     atom    9 type  3   force =     0.06636430   -0.01470705    0.03956278
     atom   10 type  1   force =     0.02613108   -0.00528512    0.06596129
     atom   11 type  1   force =    -0.35755187   -0.35217598   -0.08272139
     atom   12 type  2   force =     0.29451227    0.26368412    0.06818808
     atom   13 type  3   force =     0.00390509    0.06927223    0.03698746
     atom   14 type  1   force =     0.05566763    0.03251572    0.03833253
     atom   15 type  3   force =     0.06829899    0.02600237    0.02918493
     atom   16 type  1   force =     0.04668854    0.02763558    0.03120430
     atom   17 type  1   force =    -0.35734879    0.31221645    0.02970554
     atom   18 type  2   force =     0.28503634   -0.26575412   -0.03671720
     atom   19 type  3   force =    -0.00550716    0.06296198   -0.04656317
     atom   20 type  1   force =    -0.07635544    0.05434916   -0.00598533
     atom   21 type  3   force =    -0.06670954    0.01478629   -0.03949668
     atom   22 type  1   force =    -0.03833822   -0.01061365   -0.06209321
     atom   23 type  1   force =     0.38565543    0.31537411    0.06062003
     atom   24 type  2   force =    -0.33119334   -0.20621218   -0.06019542
     The ionic contribution  to forces
     atom    1 type  2   force =     6.09960386   -4.08351064    0.49724851
     atom    2 type  1   force =     2.98112084   -1.86433870    0.10497871
     atom    3 type  1   force =     4.80770192    2.12218073    2.47978724
     atom    4 type  3   force =     2.19815907    1.04080417    0.84856367
     atom    5 type  1   force =     1.76806812    4.38268341    1.88230154
     atom    6 type  3   force =     0.46576731    2.01071417    1.25502683
     atom    7 type  3   force =    -0.37537838    1.86351808   -1.40092089
     atom    8 type  1   force =    -1.40106826    4.07392752   -2.57268288
     atom    9 type  3   force =    -2.15518682    0.54725522   -1.31264950
     atom   10 type  1   force =    -4.47100860    1.44363302   -2.87101075
     atom   11 type  1   force =    -2.88457010   -1.71372063    0.22030185
     atom   12 type  2   force =    -5.16099409   -3.47016015   -0.95216816
     atom   13 type  3   force =    -0.22526744   -1.98052812   -1.11538091
     atom   14 type  1   force =    -0.73646141   -4.15914168   -2.08944824
     atom   15 type  3   force =    -2.08328308   -0.83441456   -0.98499681
     atom   16 type  1   force =    -4.40279535   -2.29228510   -1.95641827
     atom   17 type  1   force =    -2.23452466    1.05290434    0.12110124
     atom   18 type  2   force =    -5.98026577    4.10578088   -0.19117639
     atom   19 type  3   force =     0.30118749   -1.86597684    1.39110013
     atom   20 type  1   force =     0.97150352   -4.24140594    2.26563642
     atom   21 type  3   force =     1.95294910   -0.66645852    1.30169229
     atom   22 type  1   force =     3.64709375   -1.61518199    2.82506133
     atom   23 type  1   force =     1.82594228    1.87344173   -0.39792952
     atom   24 type  2   force =     5.09170669    4.27027961    0.65198256
     The local contribution  to forces
     atom    1 type  2   force =    -5.81651254    3.90545804   -0.52949963
     atom    2 type  1   force =    -3.37093072    2.14893707   -0.05431900
     atom    3 type  1   force =    -4.76780886   -2.07644246   -2.43028590
     atom    4 type  3   force =    -2.13000835   -1.01821719   -0.82005759
     atom    5 type  1   force =    -1.73410523   -4.32951793   -1.87130048
     atom    6 type  3   force =    -0.45900515   -1.94020015   -1.22029249
     atom    7 type  3   force =     0.36917246   -1.79715799    1.35673797
     atom    8 type  1   force =     1.34134274   -4.01701638    2.53204717
     atom    9 type  3   force =     2.09095619   -0.53127807    1.26846638
     atom   10 type  1   force =     4.43587872   -1.43014692    2.81381176
     atom   11 type  1   force =     3.22093634    2.03263202   -0.17436167
     atom   12 type  2   force =     4.90366382    3.23992503    0.90927878
     atom   13 type  3   force =     0.21998785    1.91169254    1.07600370
     atom   14 type  1   force =     0.69629292    4.10552843    2.05144237
     atom   15 type  3   force =     2.01504742    0.80807734    0.95617032
     atom   16 type  1   force =     4.35756763    2.25586683    1.91731364
     atom   17 type  1   force =     2.62049536   -1.34846424   -0.15666579
     atom   18 type  2   force =     5.65700896   -3.83206601    0.22626892
     atom   19 type  3   force =    -0.29514556    1.79959567   -1.34973868
     atom   20 type  1   force =    -0.91174581    4.19457781   -2.24371899
     atom   21 type  3   force =    -1.88964993    0.65048656   -1.25712921
     atom   22 type  1   force =    -3.61107057    1.60093975   -2.77348343
     atom   23 type  1   force =    -2.20036756   -2.18989568    0.37018208
     atom   24 type  2   force =    -4.77902605   -4.04769102   -0.61465252
     The core correction contribution to forces
     atom    1 type  2   force =     0.01552885   -0.00885757   -0.00151075
     atom    2 type  1   force =    -0.01148281    0.00810434    0.00151563
     atom    3 type  1   force =    -0.00126486   -0.00000903   -0.00025101
     atom    4 type  3   force =     0.00000000    0.00000000    0.00000000
     atom    5 type  1   force =    -0.00012497   -0.00105213   -0.00073339
     atom    6 type  3   force =     0.00000000    0.00000000    0.00000000
     atom    7 type  3   force =     0.00000000    0.00000000    0.00000000
     atom    8 type  1   force =    -0.00083257   -0.00106552    0.00052848
     atom    9 type  3   force =     0.00000000    0.00000000    0.00000000
     atom   10 type  1   force =     0.00109972   -0.00048024    0.00025188
     atom   11 type  1   force =     0.00996684    0.00904947    0.00082115
     atom   12 type  2   force =    -0.01296212   -0.01164874   -0.00344623
     atom   13 type  3   force =     0.00000000    0.00000000    0.00000000
     atom   14 type  1   force =    -0.00059987    0.00114706    0.00052366
     atom   15 type  3   force =     0.00000000    0.00000000    0.00000000
     atom   16 type  1   force =     0.00121511    0.00081520    0.00029679
     atom   17 type  1   force =     0.00915687   -0.00714266   -0.00131420
     atom   18 type  2   force =    -0.00956496    0.00985628    0.00128700
     atom   19 type  3   force =     0.00000000    0.00000000    0.00000000
     atom   20 type  1   force =     0.00084684    0.00129499   -0.00081892
     atom   21 type  3   force =     0.00000000    0.00000000    0.00000000
     atom   22 type  1   force =    -0.00078414    0.00059631   -0.00056103
     atom   23 type  1   force =    -0.00979347   -0.00816854   -0.00030432
     atom   24 type  2   force =     0.01359185    0.00770884    0.00305823
     The Hubbard contrib.    to forces
     atom    1 type  2   force =     0.00000000    0.00000000    0.00000000
     atom    2 type  1   force =     0.00000000    0.00000000    0.00000000
     atom    3 type  1   force =     0.00000000    0.00000000    0.00000000
     atom    4 type  3   force =     0.00000000    0.00000000    0.00000000
     atom    5 type  1   force =     0.00000000    0.00000000    0.00000000
     atom    6 type  3   force =     0.00000000    0.00000000    0.00000000
     atom    7 type  3   force =     0.00000000    0.00000000    0.00000000
     atom    8 type  1   force =     0.00000000    0.00000000    0.00000000
     atom    9 type  3   force =     0.00000000    0.00000000    0.00000000
     atom   10 type  1   force =     0.00000000    0.00000000    0.00000000
     atom   11 type  1   force =     0.00000000    0.00000000    0.00000000
     atom   12 type  2   force =     0.00000000    0.00000000    0.00000000
     atom   13 type  3   force =     0.00000000    0.00000000    0.00000000
     atom   14 type  1   force =     0.00000000    0.00000000    0.00000000
     atom   15 type  3   force =     0.00000000    0.00000000    0.00000000
     atom   16 type  1   force =     0.00000000    0.00000000    0.00000000
     atom   17 type  1   force =     0.00000000    0.00000000    0.00000000
     atom   18 type  2   force =     0.00000000    0.00000000    0.00000000
     atom   19 type  3   force =     0.00000000    0.00000000    0.00000000
     atom   20 type  1   force =     0.00000000    0.00000000    0.00000000
     atom   21 type  3   force =     0.00000000    0.00000000    0.00000000
     atom   22 type  1   force =     0.00000000    0.00000000    0.00000000
     atom   23 type  1   force =     0.00000000    0.00000000    0.00000000
     atom   24 type  2   force =     0.00000000    0.00000000    0.00000000
     The SCF correction term to forces
     atom    1 type  2   force =    -0.00002053   -0.00017656   -0.00015378
     atom    2 type  1   force =    -0.00010182   -0.00000140   -0.00007274
     atom    3 type  1   force =    -0.00017754    0.00007378   -0.00004460
     atom    4 type  3   force =    -0.00000039    0.00001803    0.00000010
     atom    5 type  1   force =    -0.00015180   -0.00000385   -0.00006605
     atom    6 type  3   force =    -0.00002366   -0.00001516   -0.00001501
     atom    7 type  3   force =     0.00000792   -0.00002428    0.00001331
     atom    8 type  1   force =    -0.00005419   -0.00006944   -0.00000261
     atom    9 type  3   force =     0.00004212   -0.00000010    0.00002007
     atom   10 type  1   force =     0.00017591   -0.00001317    0.00009592
     atom   11 type  1   force =     0.00002719    0.00007960   -0.00000820
     atom   12 type  2   force =     0.00041883    0.00000740    0.00020056
     atom   13 type  3   force =    -0.00002446   -0.00000646   -0.00001606
     atom   14 type  1   force =    -0.00016762    0.00007549   -0.00004833
     atom   15 type  3   force =     0.00000898    0.00001630    0.00000712
     atom   16 type  1   force =    -0.00009398    0.00007346   -0.00002237
     atom   17 type  1   force =    -0.00004281   -0.00005081   -0.00004828
     atom   18 type  2   force =    -0.00011494   -0.00004853    0.00001074
     atom   19 type  3   force =    -0.00000472   -0.00001505    0.00001067
     atom   20 type  1   force =    -0.00010547    0.00007678   -0.00006960
     atom   21 type  3   force =     0.00000969   -0.00000421    0.00000439
     atom   22 type  1   force =    -0.00001787    0.00002481   -0.00001056
     atom   23 type  1   force =    -0.00011097   -0.00000575   -0.00005915
     atom   24 type  2   force =     0.00013704    0.00018273   -0.00005469

     Total force =     0.130774     Total SCF correction =     0.000763

     Writing output data file scf-1305.save
 writing file ./scratch/scf-1305.save/charge-density
 writing file ./scratch/scf-1305.save/charge-density
 writing file ./scratch/scf-1305.save/charge-density
 writing file ./scratch/scf-1305.save/charge-density
 writing file ./scratch/scf-1305.save/charge-density
 writing file ./scratch/scf-1305.save/charge-density
 writing file ./scratch/scf-1305.save/charge-density
 writing file ./scratch/scf-1305.save/charge-density
 writing file ./scratch/scf-1305.save/charge-density
 writing file ./scratch/scf-1305.save/charge-density
 writing file ./scratch/scf-1305.save/charge-density
 writing file ./scratch/scf-1305.save/charge-density
 writing file ./scratch/scf-1305.save/charge-density
 writing file ./scratch/scf-1305.save/charge-density
 writing file ./scratch/scf-1305.save/charge-density
 writing file ./scratch/scf-1305.save/charge-density
 writing file ./scratch/scf-1305.save/charge-density
 writing file ./scratch/scf-1305.save/charge-density
 writing file ./scratch/scf-1305.save/charge-density
 writing file ./scratch/scf-1305.save/charge-density
 writing file ./scratch/scf-1305.save/charge-density
 writing file ./scratch/scf-1305.save/charge-density
 writing file ./scratch/scf-1305.save/charge-density
 writing file ./scratch/scf-1305.save/charge-density
 writing file ./scratch/scf-1305.save/charge-density
 writing file ./scratch/scf-1305.save/charge-density
 writing file ./scratch/scf-1305.save/charge-density
 writing file ./scratch/scf-1305.save/charge-density
 writing file ./scratch/scf-1305.save/charge-density
 writing file ./scratch/scf-1305.save/charge-density
 writing file ./scratch/scf-1305.save/charge-density
 writing file ./scratch/scf-1305.save/charge-density
 
     init_run     :      4.35s CPU      4.66s WALL (       1 calls)
     electrons    :     45.41s CPU     48.08s WALL (       1 calls)
     forces       :      2.34s CPU      2.48s WALL (       1 calls)

     Called by init_run:
     wfcinit      :      1.60s CPU      1.69s WALL (       1 calls)
     wfcinit:atom :      0.00s CPU      0.02s WALL (      16 calls)
     wfcinit:wfcr :      1.50s CPU      1.51s WALL (      16 calls)
     potinit      :      0.87s CPU      0.91s WALL (       1 calls)

     Called by electrons:
     c_bands      :     35.53s CPU     35.81s WALL (      10 calls)
     sum_band     :      6.20s CPU      7.26s WALL (      10 calls)
     v_of_rho     :      0.84s CPU      0.89s WALL (      11 calls)
     v_h          :      0.04s CPU      0.06s WALL (      11 calls)
     v_xc         :      0.87s CPU      0.91s WALL (      12 calls)
     newd         :      1.32s CPU      2.63s WALL (      11 calls)
     PAW_pot      :      1.50s CPU      1.56s WALL (      11 calls)
     mix_rho      :      0.12s CPU      0.13s WALL (      10 calls)

     Called by c_bands:
     init_us_2    :      0.72s CPU      0.78s WALL (     352 calls)
     cegterg      :     33.44s CPU     33.62s WALL (     160 calls)

     Called by sum_band:
     sum_band:bec :      0.02s CPU      0.02s WALL (     160 calls)
     addusdens    :      1.39s CPU      2.43s WALL (      10 calls)

     Called by *egterg:
     h_psi        :     25.15s CPU     25.21s WALL (     779 calls)
     s_psi        :      1.85s CPU      1.87s WALL (     779 calls)
     g_psi        :      0.13s CPU      0.15s WALL (     603 calls)
     cdiaghg      :      3.08s CPU      3.10s WALL (     763 calls)
     cegterg:over :      1.53s CPU      1.50s WALL (     603 calls)
     cegterg:upda :      1.11s CPU      1.17s WALL (     603 calls)
     cegterg:last :      0.40s CPU      0.41s WALL (     176 calls)

     Called by h_psi:
     h_psi:pot    :     24.89s CPU     24.95s WALL (     779 calls)
     h_psi:calbec :      2.05s CPU      2.06s WALL (     779 calls)
     vloc_psi     :     20.98s CPU     21.06s WALL (     779 calls)
     add_vuspsi   :      1.85s CPU      1.83s WALL (     779 calls)

     General routines
     calbec       :      2.76s CPU      2.76s WALL (    1003 calls)
     fft          :      0.69s CPU      0.71s WALL (     183 calls)
     ffts         :      0.02s CPU      0.03s WALL (      21 calls)
     fftw         :     19.66s CPU     19.87s WALL (   51020 calls)
     interpolate  :      0.12s CPU      0.14s WALL (      21 calls)
     davcio       :      0.00s CPU      0.01s WALL (      16 calls)
 
     Parallel routines
     fft_scatter  :      7.00s CPU      7.13s WALL (   51224 calls)

     PAW routines
     PAW_pot      :      1.50s CPU      1.56s WALL (      11 calls)
 
     PWSCF        :    52.83s CPU        57.02s WALL

 
   This run was terminated on:  13:26:41  22May2017            

=------------------------------------------------------------------------------=
   JOB DONE.
=------------------------------------------------------------------------------=
