
     Program PWSCF v.6.1 starts on 20May2017 at 12:22:40 

     This program is part of the open-source Quantum ESPRESSO suite
     for quantum simulation of materials; please cite
         "P. Giannozzi et al., J. Phys.:Condens. Matter 21 395502 (2009);
          URL http://www.quantum-espresso.org", 
     in publications or presentations arising from this work. More details at
     http://www.quantum-espresso.org/quote

     Parallel version (MPI & OpenMP), running on      32 processor cores
     Number of MPI processes:                32
     Threads/MPI process:                     1
     R & G space division:  proc/nbgrp/npool/nimage =      32
     Waiting for input...
     Reading input from standard input
Warning: card &IONS ignored
Warning: card     ION_TEMPERATURE   = 'INITIAL' ignored
Warning: card     TEMPW             = 586.D0 ignored
Warning: card     TOLP              = 100.D0 ignored
Warning: card     DELTA_T           = 1.D0 ignored
Warning: card     NRAISE            = 1 ignored
Warning: card / ignored
Warning: card &CELL ignored
Warning: card     CELL_DYNAMICS     = 'BFGS' ignored
Warning: card / ignored

     Current dimensions of program PWSCF are:
     Max number of different atomic species (ntypx) = 10
     Max number of k-points (npk) =  40000
     Max angular momentum in pseudopotentials (lmaxx) =  3
               file C.pbe-n-kjpaw_psl.1.0.0.UPF: wavefunction(s)  2S 2P renormalized
               file Cl.pbe-n-kjpaw_psl.1.0.0.UPF: wavefunction(s)  3S 3P renormalized
               file H.pbe-kjpaw_psl.1.0.0.UPF: wavefunction(s)  1S renormalized

     Subspace diagonalization in iterative solution of the eigenvalue problem:
     a serial algorithm will be used

 
     Parallelization info
     --------------------
     sticks:   dense  smooth     PW     G-vecs:    dense   smooth      PW
     Min         764     305     83                36108     9133    1292
     Max         765     306     84                36110     9135    1293
     Sum       24467    9791   2657              1155489   292295   41363
 


     bravais-lattice index     =            0
     lattice parameter (alat)  =       1.8897  a.u.
     unit-cell volume          =    2163.5316 (a.u.)^3
     number of atoms/cell      =           24
     number of atomic types    =            3
     number of electrons       =        84.00
     number of Kohn-Sham states=           42
     kinetic-energy cutoff     =     100.0000  Ry
     charge density cutoff     =    1000.0000  Ry
     convergence threshold     =      1.0E-07
     mixing beta               =       0.7000
     number of iterations used =            8  plain     mixing
     Exchange-correlation      =  SLA  PW   PBX  PBC ( 1  4  3  4 0 0)

     celldm(1)=   1.889726  celldm(2)=   0.000000  celldm(3)=   0.000000
     celldm(4)=   0.000000  celldm(5)=   0.000000  celldm(6)=   0.000000

     crystal axes: (cart. coord. in units of alat)
               a(1) = (  14.762000   0.000000   0.000000 )  
               a(2) = (   0.000000   5.832000   0.000000 )  
               a(3) = (  -1.563876   0.000000   3.723951 )  

     reciprocal axes: (cart. coord. in units 2 pi/alat)
               b(1) = (  0.067741  0.000000  0.028448 )  
               b(2) = (  0.000000  0.171468  0.000000 )  
               b(3) = (  0.000000  0.000000  0.268532 )  


     PseudoPot. # 1 for  C read from file:
     /global/cscratch1/sd/almno10/.data/PSEUDOPOTENTIALS/C.pbe-n-kjpaw_psl.1.0.0.UPF
     MD5 check sum: 2ba8448e293caca687844dde9a1b88a8
     Pseudo is Projector augmented-wave + core cor, Zval =  4.0
     Generated using "atomic" code by A. Dal Corso  v.5.3.0 svn rev. 11974
     Shape of augmentation charge: PSQ
     Using radial grid of 1073 points,  4 beta functions with: 
                l(1) =   0
                l(2) =   0
                l(3) =   1
                l(4) =   1
     Q(r) pseudized with 0 coefficients 


     PseudoPot. # 2 for Cl read from file:
     /global/cscratch1/sd/almno10/.data/PSEUDOPOTENTIALS/Cl.pbe-n-kjpaw_psl.1.0.0.UPF
     MD5 check sum: dca63699d6b897c5771335df08a09219
     Pseudo is Projector augmented-wave + core cor, Zval =  7.0
     Generated using "atomic" code by A. Dal Corso  v.5.3.0 svn rev. 11974
     Shape of augmentation charge: PSQ
     Using radial grid of 1157 points,  6 beta functions with: 
                l(1) =   0
                l(2) =   0
                l(3) =   1
                l(4) =   1
                l(5) =   2
                l(6) =   2
     Q(r) pseudized with 0 coefficients 


     PseudoPot. # 3 for  H read from file:
     /global/cscratch1/sd/almno10/.data/PSEUDOPOTENTIALS/H.pbe-kjpaw_psl.1.0.0.UPF
     MD5 check sum: bc0feb48a24907a0b97fa6ee2d589a29
     Pseudo is Projector augmented-wave, Zval =  1.0
     Generated using "atomic" code by A. Dal Corso  v.5.3.0 svn rev. 11974
     Shape of augmentation charge: PSQ
     Using radial grid of  929 points,  2 beta functions with: 
                l(1) =   0
                l(2) =   0
     Q(r) pseudized with 0 coefficients 


     atomic species   valence    mass     pseudopotential
        C              4.00    12.01100      C( 1.00)
        Cl             7.00    35.45270     Cl( 1.00)
        H              1.00     1.00790      H( 1.00)

     No symmetry found


                                    s                        frac. trans.

      isym =  1     identity                                     

 cryst.   s( 1) = (     1          0          0      )
                  (     0          1          0      )
                  (     0          0          1      )

 cart.    s( 1) = (  1.0000000  0.0000000 -0.0000000 )
                  (  0.0000000  1.0000000  0.0000000 )
                  (  0.0000000  0.0000000  1.0000000 )


   Cartesian axes

     site n.     atom                  positions (alat units)
         1           Cl  tau(   1) = (  16.4346729   1.1188855   1.8800504  )
         2           C   tau(   2) = (  15.0056070   2.1797277   1.9792251  )
         3           C   tau(   3) = (  14.9636171   3.3438949   2.7452003  )
         4           H   tau(   4) = (  15.7750422   3.5975125   3.4257324  )
         5           C   tau(   5) = (  13.8845304   4.2136275   2.5919924  )
         6           H   tau(   6) = (  13.8334254   5.1242937   3.1866490  )
         7           H   tau(   7) = (   6.5745941   2.0117119   0.6240653  )
         8           C   tau(   8) = (   6.5891170   1.0728197   1.1739365  )
         9           H   tau(   9) = (   4.4847283   0.6978720   0.8888605  )
        10           C   tau(  10) = (   5.4252566   0.3118858   1.2797768  )
        11           C   tau(  11) = (   5.5048482  -0.8858704   1.9897792  )
        12           Cl  tau(  12) = (   4.0977986  -1.7918740   2.4821734  )
        13           H   tau(  13) = (  13.9529695   0.8673791   0.6263147  )
        14           C   tau(  14) = (  13.9484729   1.8265044   1.1401729  )
        15           H   tau(  15) = (  11.9998263   2.3851091   0.4072691  )
        16           C   tau(  16) = (  12.8255095   2.6512150   1.0625253  )
        17           C   tau(  17) = (  12.8468313   3.8774620   1.7228271  )
        18           Cl  tau(  18) = (  11.5135605   4.9457042   1.7407460  )
        19           H   tau(  19) = (   6.7649620  -2.3752551   2.8891764  )
        20           C   tau(  20) = (   6.7328942  -1.4030412   2.4014153  )
        21           H   tau(  21) = (   8.8484028  -1.0573666   2.6161074  )
        22           C   tau(  22) = (   7.8964012  -0.6454668   2.2871963  )
        23           C   tau(  23) = (   7.8047345   0.5965132   1.6613932  )
        24           Cl  tau(  24) = (   9.1304616   1.6918740   1.4559561  )

   Crystallographic axes

     site n.     atom                  positions (cryst. coord.)
         1           Cl  tau(   1) = (  1.1667932  0.1918528  0.5048536  )
         2           C   tau(   2) = (  1.0728075  0.3737530  0.5314852  )
         3           C   tau(   3) = (  1.0917535  0.5733702  0.7371740  )
         4           H   tau(   4) = (  1.1660805  0.6168574  0.9199187  )
         5           C   tau(   5) = (  1.0142961  0.7225013  0.6960328  )
         6           H   tau(   6) = (  1.0277510  0.8786512  0.8557171  )
         7           H   tau(   7) = (  0.4631263  0.3449437  0.1675815  )
         8           C   tau(   8) = (  0.4797529  0.1839540  0.3152395  )
         9           H   tau(   9) = (  0.3290886  0.1196626  0.2386875  )
        10           C   tau(  10) = (  0.4039222  0.0534784  0.3436610  )
        11           C   tau(  11) = (  0.4295121 -0.1518982  0.5343193  )
        12           Cl  tau(  12) = (  0.3482041 -0.3072486  0.6665429  )
        13           H   tau(  13) = (  0.9630125  0.1487275  0.1681855  )
        14           C   tau(  14) = (  0.9773262  0.3131866  0.3061729  )
        15           H   tau(  15) = (  0.8244722  0.4089693  0.1093648  )
        16           C   tau(  16) = (  0.8990460  0.4545979  0.2853220  )
        17           C   tau(  17) = (  0.9192747  0.6648597  0.4626342  )
        18           Cl  tau(  18) = (  0.8294667  0.8480288  0.4674459  )
        19           H   tau(  19) = (  0.5404602 -0.4072797  0.7758362  )
        20           C   tau(  20) = (  0.5244120 -0.2405763  0.6448568  )
        21           H   tau(  21) = (  0.6738273 -0.1813043  0.7025085  )
        22           C   tau(  22) = (  0.5999804 -0.1106768  0.6141853  )
        23           C   tau(  23) = (  0.5759679  0.1022828  0.4461372  )
        24           Cl  tau(  24) = (  0.6599303  0.2901019  0.3909708  )

     number of k points=    16
                       cart. coord. in units 2pi/alat
        k(    1) = (   0.0169354   0.0214335   0.0406785), wk =   0.1250000
        k(    2) = (   0.0169354   0.0214335   0.1078115), wk =   0.1250000
        k(    3) = (   0.0169354   0.0214335  -0.0935875), wk =   0.1250000
        k(    4) = (   0.0169354   0.0214335  -0.0264545), wk =   0.1250000
        k(    5) = (   0.0169354   0.0643004   0.0406785), wk =   0.1250000
        k(    6) = (   0.0169354   0.0643004   0.1078115), wk =   0.1250000
        k(    7) = (   0.0169354   0.0643004  -0.0935875), wk =   0.1250000
        k(    8) = (   0.0169354   0.0643004  -0.0264545), wk =   0.1250000
        k(    9) = (  -0.0169354   0.0214335  -0.0406785), wk =   0.1250000
        k(   10) = (  -0.0169354   0.0214335  -0.1078115), wk =   0.1250000
        k(   11) = (  -0.0169354   0.0214335   0.0935875), wk =   0.1250000
        k(   12) = (  -0.0169354   0.0214335   0.0264545), wk =   0.1250000
        k(   13) = (  -0.0169354   0.0643004  -0.0406785), wk =   0.1250000
        k(   14) = (  -0.0169354   0.0643004  -0.1078115), wk =   0.1250000
        k(   15) = (  -0.0169354   0.0643004   0.0935875), wk =   0.1250000
        k(   16) = (  -0.0169354   0.0643004   0.0264545), wk =   0.1250000

                       cryst. coord.
        k(    1) = (   0.2500000   0.1250000   0.1250000), wk =   0.1250000
        k(    2) = (   0.2500000   0.1250000   0.3750000), wk =   0.1250000
        k(    3) = (   0.2500000   0.1250000  -0.3750000), wk =   0.1250000
        k(    4) = (   0.2500000   0.1250000  -0.1250000), wk =   0.1250000
        k(    5) = (   0.2500000   0.3750000   0.1250000), wk =   0.1250000
        k(    6) = (   0.2500000   0.3750000   0.3750000), wk =   0.1250000
        k(    7) = (   0.2500000   0.3750000  -0.3750000), wk =   0.1250000
        k(    8) = (   0.2500000   0.3750000  -0.1250000), wk =   0.1250000
        k(    9) = (  -0.2500000   0.1250000  -0.1250000), wk =   0.1250000
        k(   10) = (  -0.2500000   0.1250000  -0.3750000), wk =   0.1250000
        k(   11) = (  -0.2500000   0.1250000   0.3750000), wk =   0.1250000
        k(   12) = (  -0.2500000   0.1250000   0.1250000), wk =   0.1250000
        k(   13) = (  -0.2500000   0.3750000  -0.1250000), wk =   0.1250000
        k(   14) = (  -0.2500000   0.3750000  -0.3750000), wk =   0.1250000
        k(   15) = (  -0.2500000   0.3750000   0.3750000), wk =   0.1250000
        k(   16) = (  -0.2500000   0.3750000   0.1250000), wk =   0.1250000

     Dense  grid:  1155489 G-vectors     FFT dimensions: ( 288, 120,  80)

     Smooth grid:   292295 G-vectors     FFT dimensions: ( 180,  72,  50)

     Estimated max dynamical RAM per process >     147.21MB

     Estimated total allocated dynamical RAM >    4710.62MB

     Initial potential from superposition of free atoms

     starting charge   83.99939, renormalised to   84.00000
     Starting wfc are   72 randomized atomic wfcs
     Checking if some PAW data can be deallocated... 
       node    0, deallocated PAW data for type:  1
       node    0, deallocated PAW data for type:  3
       node    1, deallocated PAW data for type:  1
       node    1, deallocated PAW data for type:  3
       node    2, deallocated PAW data for type:  2
       node    2, deallocated PAW data for type:  3
       node    3, deallocated PAW data for type:  2
       node    3, deallocated PAW data for type:  3
       node    4, deallocated PAW data for type:  2
       node    4, deallocated PAW data for type:  3
       node    5, deallocated PAW data for type:  2
       node    5, deallocated PAW data for type:  3
       node    6, deallocated PAW data for type:  1
       node    6, deallocated PAW data for type:  2
       node    7, deallocated PAW data for type:  1
       node    7, deallocated PAW data for type:  2
       node    8, deallocated PAW data for type:  2
       node    8, deallocated PAW data for type:  3
       node    9, deallocated PAW data for type:  2
       node    9, deallocated PAW data for type:  3
       node   10, deallocated PAW data for type:  1
       node   10, deallocated PAW data for type:  2
       node   11, deallocated PAW data for type:  1
       node   11, deallocated PAW data for type:  2
       node   12, deallocated PAW data for type:  1
       node   12, deallocated PAW data for type:  2
       node   13, deallocated PAW data for type:  1
       node   13, deallocated PAW data for type:  2
       node   14, deallocated PAW data for type:  2
       node   14, deallocated PAW data for type:  3
       node   15, deallocated PAW data for type:  2
       node   15, deallocated PAW data for type:  3
       node   16, deallocated PAW data for type:  1
       node   16, deallocated PAW data for type:  2
       node   17, deallocated PAW data for type:  2
       node   17, deallocated PAW data for type:  3
       node   18, deallocated PAW data for type:  2
       node   18, deallocated PAW data for type:  3
       node   19, deallocated PAW data for type:  1
       node   19, deallocated PAW data for type:  3
       node   20, deallocated PAW data for type:  1
       node   20, deallocated PAW data for type:  2
       node   21, deallocated PAW data for type:  2
       node   21, deallocated PAW data for type:  3
       node   22, deallocated PAW data for type:  1
       node   22, deallocated PAW data for type:  2
       node   23, deallocated PAW data for type:  2
       node   23, deallocated PAW data for type:  3
       node   24, deallocated PAW data for type:  2
       node   24, deallocated PAW data for type:  3
       node   25, deallocated PAW data for type:  1
       node   25, deallocated PAW data for type:  3
       node   26, deallocated PAW data for type:  1
       node   26, deallocated PAW data for type:  2
       node   27, deallocated PAW data for type:  2
       node   27, deallocated PAW data for type:  3
       node   28, deallocated PAW data for type:  1
       node   28, deallocated PAW data for type:  2
       node   29, deallocated PAW data for type:  2
       node   29, deallocated PAW data for type:  3
       node   30, deallocated PAW data for type:  2
       node   30, deallocated PAW data for type:  3
       node   31, deallocated PAW data for type:  1
       node   31, deallocated PAW data for type:  3

     total cpu time spent up to now is        5.2 secs

     per-process dynamical memory:    20.7 Mb

     Self-consistent Calculation

     iteration #  1     ecut=   100.00 Ry     beta= 0.70
     Davidson diagonalization with overlap
     ethr =  1.00E-04,  avg # of iterations =  5.0

     total cpu time spent up to now is       11.8 secs

     total energy              =    -547.12163013 Ry
     Harris-Foulkes estimate   =    -548.99811750 Ry
     estimated scf accuracy    <       2.74321347 Ry

     iteration #  2     ecut=   100.00 Ry     beta= 0.70
     Davidson diagonalization with overlap
     ethr =  3.27E-03,  avg # of iterations =  3.0

     total cpu time spent up to now is       16.7 secs

     total energy              =    -547.53150904 Ry
     Harris-Foulkes estimate   =    -548.61316467 Ry
     estimated scf accuracy    <       1.95378267 Ry

     iteration #  3     ecut=   100.00 Ry     beta= 0.70
     Davidson diagonalization with overlap
     ethr =  2.33E-03,  avg # of iterations =  2.9

     total cpu time spent up to now is       21.0 secs

     total energy              =    -548.01717338 Ry
     Harris-Foulkes estimate   =    -548.05543915 Ry
     estimated scf accuracy    <       0.07769404 Ry

     iteration #  4     ecut=   100.00 Ry     beta= 0.70
     Davidson diagonalization with overlap
     ethr =  9.25E-05,  avg # of iterations =  4.0

     total cpu time spent up to now is       25.7 secs

     total energy              =    -548.04313305 Ry
     Harris-Foulkes estimate   =    -548.05269594 Ry
     estimated scf accuracy    <       0.01881112 Ry

     iteration #  5     ecut=   100.00 Ry     beta= 0.70
     Davidson diagonalization with overlap
     ethr =  2.24E-05,  avg # of iterations =  3.0

     total cpu time spent up to now is       30.1 secs

     total energy              =    -548.04701102 Ry
     Harris-Foulkes estimate   =    -548.04741864 Ry
     estimated scf accuracy    <       0.00086336 Ry

     iteration #  6     ecut=   100.00 Ry     beta= 0.70
     Davidson diagonalization with overlap
     ethr =  1.03E-06,  avg # of iterations =  4.0

     total cpu time spent up to now is       34.9 secs

     total energy              =    -548.04721287 Ry
     Harris-Foulkes estimate   =    -548.04735184 Ry
     estimated scf accuracy    <       0.00026904 Ry

     iteration #  7     ecut=   100.00 Ry     beta= 0.70
     Davidson diagonalization with overlap
     ethr =  3.20E-07,  avg # of iterations =  4.0

     total cpu time spent up to now is       39.4 secs

     total energy              =    -548.04727483 Ry
     Harris-Foulkes estimate   =    -548.04733703 Ry
     estimated scf accuracy    <       0.00017331 Ry

     iteration #  8     ecut=   100.00 Ry     beta= 0.70
     Davidson diagonalization with overlap
     ethr =  2.06E-07,  avg # of iterations =  4.0

     total cpu time spent up to now is       43.6 secs

     total energy              =    -548.04730585 Ry
     Harris-Foulkes estimate   =    -548.04730920 Ry
     estimated scf accuracy    <       0.00000794 Ry

     iteration #  9     ecut=   100.00 Ry     beta= 0.70
     Davidson diagonalization with overlap
     ethr =  9.45E-09,  avg # of iterations =  4.1

     total cpu time spent up to now is       48.2 secs

     total energy              =    -548.04730780 Ry
     Harris-Foulkes estimate   =    -548.04730877 Ry
     estimated scf accuracy    <       0.00000221 Ry

     iteration # 10     ecut=   100.00 Ry     beta= 0.70
     Davidson diagonalization with overlap
     ethr =  2.64E-09,  avg # of iterations =  4.0

     total cpu time spent up to now is       52.7 secs

     total energy              =    -548.04730826 Ry
     Harris-Foulkes estimate   =    -548.04730833 Ry
     estimated scf accuracy    <       0.00000017 Ry

     iteration # 11     ecut=   100.00 Ry     beta= 0.70
     Davidson diagonalization with overlap
     ethr =  1.97E-10,  avg # of iterations =  4.0

     total cpu time spent up to now is       57.3 secs

     End of self-consistent calculation

          k = 0.0169 0.0214 0.0407 ( 36525 PWs)   bands (ev):

   -16.1499 -16.0646 -15.4136 -15.3582 -13.9440 -13.8755 -12.3652 -12.2887
   -11.2596 -11.1359  -9.0013  -8.9387  -8.2281  -8.1531  -6.3639  -6.2198
    -5.3606  -5.2813  -5.0388  -4.8016  -4.2424  -4.1051  -4.0594  -3.8142
    -3.2519  -3.1493  -2.7184  -2.6654  -2.4379  -2.3524  -2.1693  -2.1098
    -1.2334  -1.0809  -1.0517  -0.9761  -0.8832  -0.8304  -0.1100   0.1022
     0.5382   0.7156

     occupation numbers 
     1.0000   1.0000   1.0000   1.0000   1.0000   1.0000   1.0000   1.0000
     1.0000   1.0000   1.0000   1.0000   1.0000   1.0000   1.0000   1.0000
     1.0000   1.0000   1.0000   1.0000   1.0000   1.0000   1.0000   1.0000
     1.0000   1.0000   1.0000   1.0000   1.0000   1.0000   1.0000   1.0000
     1.0000   1.0000   1.0000   1.0000   1.0000   1.0000   1.0000   1.0000
     1.0000   1.0000

          k = 0.0169 0.0214 0.1078 ( 36561 PWs)   bands (ev):

   -16.0719 -15.9543 -15.3512 -15.3054 -13.9341 -13.8949 -12.3718 -12.2458
   -11.2511 -11.1957  -8.9629  -8.9029  -8.1829  -8.1387  -6.3604  -6.3045
    -5.3530  -5.2790  -5.0915  -4.9232  -4.2820  -4.2349  -4.1217  -4.0207
    -3.7926  -3.7034  -2.8556  -2.6932  -2.6392  -2.4229  -2.3949  -2.3284
    -1.2998  -1.0764  -1.0477  -0.9389  -0.9044  -0.8283  -0.2751  -0.1703
     0.6413   1.0160

     occupation numbers 
     1.0000   1.0000   1.0000   1.0000   1.0000   1.0000   1.0000   1.0000
     1.0000   1.0000   1.0000   1.0000   1.0000   1.0000   1.0000   1.0000
     1.0000   1.0000   1.0000   1.0000   1.0000   1.0000   1.0000   1.0000
     1.0000   1.0000   1.0000   1.0000   1.0000   1.0000   1.0000   1.0000
     1.0000   1.0000   1.0000   1.0000   1.0000   1.0000   1.0000   1.0000
     1.0000   1.0000

          k = 0.0169 0.0214-0.0936 ( 36547 PWs)   bands (ev):

   -16.0760 -15.9463 -15.3602 -15.3007 -13.9303 -13.9027 -12.3638 -12.2524
   -11.2504 -11.1858  -8.9937  -8.8782  -8.2227  -8.0846  -6.3965  -6.3099
    -5.3556  -5.2828  -5.0959  -4.9074  -4.2887  -4.1923  -4.1069  -4.0403
    -3.7755  -3.7197  -2.7752  -2.7360  -2.6532  -2.4840  -2.4084  -2.3421
    -1.2723  -1.0979  -1.0409  -0.9726  -0.8696  -0.8026  -0.2164  -0.1874
     0.6457   1.0119

     occupation numbers 
     1.0000   1.0000   1.0000   1.0000   1.0000   1.0000   1.0000   1.0000
     1.0000   1.0000   1.0000   1.0000   1.0000   1.0000   1.0000   1.0000
     1.0000   1.0000   1.0000   1.0000   1.0000   1.0000   1.0000   1.0000
     1.0000   1.0000   1.0000   1.0000   1.0000   1.0000   1.0000   1.0000
     1.0000   1.0000   1.0000   1.0000   1.0000   1.0000   1.0000   1.0000
     1.0000   1.0000

          k = 0.0169 0.0214-0.0265 ( 36551 PWs)   bands (ev):

   -16.1543 -16.0571 -15.4219 -15.3533 -13.9377 -13.8858 -12.3574 -12.2948
   -11.2609 -11.1240  -9.0337  -8.9155  -8.2568  -8.1060  -6.3973  -6.2253
    -5.3711  -5.2845  -5.0664  -4.7555  -4.2797  -4.0256  -3.9864  -3.8837
    -3.2526  -3.1506  -2.7882  -2.6192  -2.4456  -2.3745  -2.2177  -2.0853
    -1.1728  -1.1388  -1.0604  -0.9409  -0.8735  -0.8265  -0.1329   0.1662
     0.5389   0.7146

     occupation numbers 
     1.0000   1.0000   1.0000   1.0000   1.0000   1.0000   1.0000   1.0000
     1.0000   1.0000   1.0000   1.0000   1.0000   1.0000   1.0000   1.0000
     1.0000   1.0000   1.0000   1.0000   1.0000   1.0000   1.0000   1.0000
     1.0000   1.0000   1.0000   1.0000   1.0000   1.0000   1.0000   1.0000
     1.0000   1.0000   1.0000   1.0000   1.0000   1.0000   1.0000   1.0000
     1.0000   1.0000

          k = 0.0169 0.0643 0.0407 ( 36518 PWs)   bands (ev):

   -16.1208 -16.0363 -15.4211 -15.3729 -13.9734 -13.9053 -12.4016 -12.3383
   -11.2676 -11.1449  -8.9115  -8.8456  -8.1319  -8.0659  -6.3560  -6.2681
    -5.3360  -5.2378  -5.1236  -4.9478  -4.3515  -4.2384  -4.0849  -3.9778
    -3.3267  -3.1794  -2.6228  -2.5652  -2.3944  -2.3222  -2.1828  -2.1056
    -1.1026  -0.9996  -0.9641  -0.9203  -0.8538  -0.8083  -0.0400   0.1625
     0.5961   0.7377

     occupation numbers 
     1.0000   1.0000   1.0000   1.0000   1.0000   1.0000   1.0000   1.0000
     1.0000   1.0000   1.0000   1.0000   1.0000   1.0000   1.0000   1.0000
     1.0000   1.0000   1.0000   1.0000   1.0000   1.0000   1.0000   1.0000
     1.0000   1.0000   1.0000   1.0000   1.0000   1.0000   1.0000   1.0000
     1.0000   1.0000   1.0000   1.0000   1.0000   1.0000   1.0000   1.0000
     1.0000   1.0000

          k = 0.0169 0.0643 0.1078 ( 36558 PWs)   bands (ev):

   -16.0524 -15.9392 -15.3492 -15.3131 -13.9432 -13.9133 -12.3870 -12.2780
   -11.2637 -11.2300  -8.9338  -8.8558  -8.1777  -8.1290  -6.3536  -6.2613
    -5.3426  -5.2515  -5.0110  -4.8575  -4.2922  -4.2074  -4.1348  -4.0109
    -3.9451  -3.8863  -2.7426  -2.6856  -2.6267  -2.5797  -2.4310  -2.2572
    -1.2030  -1.0993  -1.0679  -0.9932  -0.9083  -0.8357  -0.0948  -0.0010
     0.6542   1.0470

     occupation numbers 
     1.0000   1.0000   1.0000   1.0000   1.0000   1.0000   1.0000   1.0000
     1.0000   1.0000   1.0000   1.0000   1.0000   1.0000   1.0000   1.0000
     1.0000   1.0000   1.0000   1.0000   1.0000   1.0000   1.0000   1.0000
     1.0000   1.0000   1.0000   1.0000   1.0000   1.0000   1.0000   1.0000
     1.0000   1.0000   1.0000   1.0000   1.0000   1.0000   1.0000   1.0000
     1.0000   1.0000

          k = 0.0169 0.0643-0.0936 ( 36547 PWs)   bands (ev):

   -16.0562 -15.9317 -15.3552 -15.3111 -13.9417 -13.9190 -12.3790 -12.2835
   -11.2655 -11.2195  -8.9643  -8.8297  -8.2116  -8.0807  -6.3629  -6.3016
    -5.3481  -5.2548  -4.9739  -4.8671  -4.3327  -4.2014  -4.0532  -4.0262
    -3.9182  -3.8967  -2.7842  -2.7407  -2.6771  -2.5194  -2.3781  -2.2916
    -1.2001  -1.1219  -1.0721  -0.9521  -0.9009  -0.8336  -0.0416  -0.0247
     0.6599   1.0458

     occupation numbers 
     1.0000   1.0000   1.0000   1.0000   1.0000   1.0000   1.0000   1.0000
     1.0000   1.0000   1.0000   1.0000   1.0000   1.0000   1.0000   1.0000
     1.0000   1.0000   1.0000   1.0000   1.0000   1.0000   1.0000   1.0000
     1.0000   1.0000   1.0000   1.0000   1.0000   1.0000   1.0000   1.0000
     1.0000   1.0000   1.0000   1.0000   1.0000   1.0000   1.0000   1.0000
     1.0000   1.0000

          k = 0.0169 0.0643-0.0265 ( 36489 PWs)   bands (ev):

   -16.1243 -16.0298 -15.4263 -15.3709 -13.9691 -13.9139 -12.3936 -12.3430
   -11.2709 -11.1341  -8.9388  -8.8233  -8.1632  -8.0163  -6.3816  -6.3028
    -5.3315  -5.2430  -5.0782  -4.9619  -4.3437  -4.2042  -4.0892  -4.0028
    -3.2993  -3.2056  -2.6346  -2.5336  -2.4438  -2.3347  -2.1797  -2.0988
    -1.1424  -1.0288  -0.9775  -0.8694  -0.8308  -0.7768  -0.0602   0.2286
     0.5901   0.7349

     occupation numbers 
     1.0000   1.0000   1.0000   1.0000   1.0000   1.0000   1.0000   1.0000
     1.0000   1.0000   1.0000   1.0000   1.0000   1.0000   1.0000   1.0000
     1.0000   1.0000   1.0000   1.0000   1.0000   1.0000   1.0000   1.0000
     1.0000   1.0000   1.0000   1.0000   1.0000   1.0000   1.0000   1.0000
     1.0000   1.0000   1.0000   1.0000   1.0000   1.0000   1.0000   1.0000
     1.0000   1.0000

          k =-0.0169 0.0214-0.0407 ( 36525 PWs)   bands (ev):

   -16.1524 -16.0599 -15.4135 -15.3608 -13.9390 -13.8848 -12.3574 -12.2935
   -11.2630 -11.1240  -9.0314  -8.9126  -8.2408  -8.1307  -6.3679  -6.2615
    -5.3632  -5.2749  -4.9959  -4.8323  -4.2350  -4.0900  -3.9686  -3.9161
    -3.2261  -3.1582  -2.7434  -2.6532  -2.4503  -2.3706  -2.1976  -2.0861
    -1.2304  -1.0880  -1.0405  -0.9555  -0.8821  -0.8323  -0.1295   0.1681
     0.5324   0.7168

     occupation numbers 
     1.0000   1.0000   1.0000   1.0000   1.0000   1.0000   1.0000   1.0000
     1.0000   1.0000   1.0000   1.0000   1.0000   1.0000   1.0000   1.0000
     1.0000   1.0000   1.0000   1.0000   1.0000   1.0000   1.0000   1.0000
     1.0000   1.0000   1.0000   1.0000   1.0000   1.0000   1.0000   1.0000
     1.0000   1.0000   1.0000   1.0000   1.0000   1.0000   1.0000   1.0000
     1.0000   1.0000

          k =-0.0169 0.0214-0.1078 ( 36561 PWs)   bands (ev):

   -16.0753 -15.9474 -15.3537 -15.3068 -13.9325 -13.9004 -12.3638 -12.2521
   -11.2520 -11.1848  -8.9938  -8.8761  -8.2190  -8.0915  -6.3677  -6.3401
    -5.3603  -5.2735  -5.0516  -4.9578  -4.2791  -4.1953  -4.0955  -4.0483
    -3.7858  -3.7168  -2.8457  -2.6951  -2.6361  -2.4583  -2.4154  -2.3350
    -1.2945  -1.0990  -1.0683  -0.9304  -0.8550  -0.8174  -0.2155  -0.1910
     0.6450   1.0124

     occupation numbers 
     1.0000   1.0000   1.0000   1.0000   1.0000   1.0000   1.0000   1.0000
     1.0000   1.0000   1.0000   1.0000   1.0000   1.0000   1.0000   1.0000
     1.0000   1.0000   1.0000   1.0000   1.0000   1.0000   1.0000   1.0000
     1.0000   1.0000   1.0000   1.0000   1.0000   1.0000   1.0000   1.0000
     1.0000   1.0000   1.0000   1.0000   1.0000   1.0000   1.0000   1.0000
     1.0000   1.0000

          k =-0.0169 0.0214 0.0936 ( 36547 PWs)   bands (ev):

   -16.0725 -15.9534 -15.3536 -15.3035 -13.9242 -13.9047 -12.3718 -12.2461
   -11.2480 -11.1983  -8.9642  -8.9024  -8.1975  -8.1219  -6.3834  -6.2846
    -5.3535  -5.2736  -5.1168  -4.8902  -4.2665  -4.2446  -4.1156  -4.0564
    -3.7850  -3.7159  -2.7703  -2.7062  -2.6103  -2.4838  -2.4040  -2.3630
    -1.2436  -1.0975  -1.0211  -0.9861  -0.9094  -0.8199  -0.2770  -0.1665
     0.6429   1.0165

     occupation numbers 
     1.0000   1.0000   1.0000   1.0000   1.0000   1.0000   1.0000   1.0000
     1.0000   1.0000   1.0000   1.0000   1.0000   1.0000   1.0000   1.0000
     1.0000   1.0000   1.0000   1.0000   1.0000   1.0000   1.0000   1.0000
     1.0000   1.0000   1.0000   1.0000   1.0000   1.0000   1.0000   1.0000
     1.0000   1.0000   1.0000   1.0000   1.0000   1.0000   1.0000   1.0000
     1.0000   1.0000

          k =-0.0169 0.0214 0.0265 ( 36551 PWs)   bands (ev):

   -16.1510 -16.0632 -15.4155 -15.3567 -13.9421 -13.8772 -12.3657 -12.2885
   -11.2605 -11.1346  -9.0070  -8.9340  -8.2449  -8.1314  -6.3930  -6.1963
    -5.3643  -5.2801  -5.0587  -4.7628  -4.2768  -4.0988  -4.0358  -3.8134
    -3.2506  -3.1536  -2.7674  -2.6321  -2.4424  -2.3193  -2.1982  -2.1118
    -1.1808  -1.1492  -1.0202  -0.9578  -0.9029  -0.8377  -0.1092   0.1021
     0.5459   0.7110

     occupation numbers 
     1.0000   1.0000   1.0000   1.0000   1.0000   1.0000   1.0000   1.0000
     1.0000   1.0000   1.0000   1.0000   1.0000   1.0000   1.0000   1.0000
     1.0000   1.0000   1.0000   1.0000   1.0000   1.0000   1.0000   1.0000
     1.0000   1.0000   1.0000   1.0000   1.0000   1.0000   1.0000   1.0000
     1.0000   1.0000   1.0000   1.0000   1.0000   1.0000   1.0000   1.0000
     1.0000   1.0000

          k =-0.0169 0.0643-0.0407 ( 36518 PWs)   bands (ev):

   -16.1235 -16.0309 -15.4217 -15.3752 -13.9684 -13.9144 -12.3942 -12.3428
   -11.2711 -11.1331  -8.9397  -8.8215  -8.1635  -8.0211  -6.3627  -6.3090
    -5.3328  -5.2415  -5.0702  -4.9954  -4.2960  -4.2489  -4.1039  -3.9713
    -3.2954  -3.2070  -2.6146  -2.5801  -2.4397  -2.3297  -2.1706  -2.1032
    -1.0973  -1.0414  -0.9216  -0.8827  -0.8562  -0.8237  -0.0603   0.2289
     0.5941   0.7341

     occupation numbers 
     1.0000   1.0000   1.0000   1.0000   1.0000   1.0000   1.0000   1.0000
     1.0000   1.0000   1.0000   1.0000   1.0000   1.0000   1.0000   1.0000
     1.0000   1.0000   1.0000   1.0000   1.0000   1.0000   1.0000   1.0000
     1.0000   1.0000   1.0000   1.0000   1.0000   1.0000   1.0000   1.0000
     1.0000   1.0000   1.0000   1.0000   1.0000   1.0000   1.0000   1.0000
     1.0000   1.0000

          k =-0.0169 0.0643-0.1078 ( 36558 PWs)   bands (ev):

   -16.0560 -15.9321 -15.3514 -15.3150 -13.9354 -13.9251 -12.3792 -12.2837
   -11.2644 -11.2200  -8.9648  -8.8293  -8.2124  -8.0817  -6.3594  -6.2986
    -5.3487  -5.2457  -4.9622  -4.9119  -4.2694  -4.2245  -4.0661  -4.0100
    -3.9536  -3.9052  -2.7405  -2.7082  -2.6361  -2.5539  -2.4008  -2.3417
    -1.2133  -1.0978  -1.0651  -0.9740  -0.9049  -0.8149  -0.0373  -0.0243
     0.6577   1.0428

     occupation numbers 
     1.0000   1.0000   1.0000   1.0000   1.0000   1.0000   1.0000   1.0000
     1.0000   1.0000   1.0000   1.0000   1.0000   1.0000   1.0000   1.0000
     1.0000   1.0000   1.0000   1.0000   1.0000   1.0000   1.0000   1.0000
     1.0000   1.0000   1.0000   1.0000   1.0000   1.0000   1.0000   1.0000
     1.0000   1.0000   1.0000   1.0000   1.0000   1.0000   1.0000   1.0000
     1.0000   1.0000

          k =-0.0169 0.0643 0.0936 ( 36547 PWs)   bands (ev):

   -16.0524 -15.9393 -15.3466 -15.3157 -13.9391 -13.9173 -12.3870 -12.2778
   -11.2631 -11.2312  -8.9343  -8.8538  -8.1809  -8.1252  -6.3646  -6.2612
    -5.3462  -5.2476  -4.9995  -4.8329  -4.2805  -4.2565  -4.1409  -4.0083
    -3.9375  -3.8795  -2.7362  -2.6984  -2.6433  -2.6093  -2.3898  -2.2395
    -1.1749  -1.1317  -1.0741  -0.9871  -0.9096  -0.8386  -0.0980  -0.0020
     0.6599   1.0478

     occupation numbers 
     1.0000   1.0000   1.0000   1.0000   1.0000   1.0000   1.0000   1.0000
     1.0000   1.0000   1.0000   1.0000   1.0000   1.0000   1.0000   1.0000
     1.0000   1.0000   1.0000   1.0000   1.0000   1.0000   1.0000   1.0000
     1.0000   1.0000   1.0000   1.0000   1.0000   1.0000   1.0000   1.0000
     1.0000   1.0000   1.0000   1.0000   1.0000   1.0000   1.0000   1.0000
     1.0000   1.0000

          k =-0.0169 0.0643 0.0265 ( 36489 PWs)   bands (ev):

   -16.1204 -16.0368 -15.4179 -15.3760 -13.9733 -13.9056 -12.4016 -12.3368
   -11.2703 -11.1447  -8.9127  -8.8401  -8.1294  -8.0681  -6.3736  -6.2754
    -5.3271  -5.2324  -5.0931  -4.9418  -4.2972  -4.2345  -4.1625  -4.0161
    -3.3202  -3.1797  -2.6011  -2.5196  -2.4137  -2.3451  -2.1758  -2.1064
    -1.1408  -1.0031  -0.9691  -0.8890  -0.8502  -0.8074  -0.0402   0.1686
     0.6021   0.7280

     occupation numbers 
     1.0000   1.0000   1.0000   1.0000   1.0000   1.0000   1.0000   1.0000
     1.0000   1.0000   1.0000   1.0000   1.0000   1.0000   1.0000   1.0000
     1.0000   1.0000   1.0000   1.0000   1.0000   1.0000   1.0000   1.0000
     1.0000   1.0000   1.0000   1.0000   1.0000   1.0000   1.0000   1.0000
     1.0000   1.0000   1.0000   1.0000   1.0000   1.0000   1.0000   1.0000
     1.0000   1.0000

     highest occupied level (ev):     1.0478

!    total energy              =    -548.04730830 Ry
     Harris-Foulkes estimate   =    -548.04730832 Ry
     estimated scf accuracy    <       0.00000003 Ry

     total all-electron energy =     -4615.890796 Ry

     The total energy is the sum of the following terms:

     one-electron contribution =    -153.64324731 Ry
     hartree contribution      =     108.19197277 Ry
     xc contribution           =    -104.25144975 Ry
     ewald contribution        =    -142.56124028 Ry
     one-center paw contrib.   =    -255.78334374 Ry
      -> PAW hartree energy AE =      19.09236193 Ry
      -> PAW hartree energy PS =     -18.98786957 Ry
      -> PAW xc energy AE      =     -55.64214338 Ry
      -> PAW xc energy PS      =      10.09622370 Ry
      -> total E_H with PAW    =     108.29646513 Ry
      -> total E_XC with PAW   =    -149.79736944 Ry

     convergence has been achieved in  11 iterations
 writing file ./scratch/scf-255.save/charge-density
 writing file ./scratch/scf-255.save/charge-density
 writing file ./scratch/scf-255.save/charge-density
 writing file ./scratch/scf-255.save/charge-density
 writing file ./scratch/scf-255.save/charge-density
 writing file ./scratch/scf-255.save/charge-density
 writing file ./scratch/scf-255.save/charge-density
 writing file ./scratch/scf-255.save/charge-density
 writing file ./scratch/scf-255.save/charge-density
 writing file ./scratch/scf-255.save/charge-density
 writing file ./scratch/scf-255.save/charge-density
 writing file ./scratch/scf-255.save/charge-density
 writing file ./scratch/scf-255.save/charge-density
 writing file ./scratch/scf-255.save/charge-density
 writing file ./scratch/scf-255.save/charge-density
 writing file ./scratch/scf-255.save/charge-density
 writing file ./scratch/scf-255.save/charge-density
 writing file ./scratch/scf-255.save/charge-density
 writing file ./scratch/scf-255.save/charge-density
 writing file ./scratch/scf-255.save/charge-density
 writing file ./scratch/scf-255.save/charge-density
 writing file ./scratch/scf-255.save/charge-density
 writing file ./scratch/scf-255.save/charge-density
 writing file ./scratch/scf-255.save/charge-density
 writing file ./scratch/scf-255.save/charge-density
 writing file ./scratch/scf-255.save/charge-density
 writing file ./scratch/scf-255.save/charge-density
 writing file ./scratch/scf-255.save/charge-density
 writing file ./scratch/scf-255.save/charge-density
 writing file ./scratch/scf-255.save/charge-density
 writing file ./scratch/scf-255.save/charge-density
 writing file ./scratch/scf-255.save/charge-density

     Forces acting on atoms (cartesian axes, Ry/au):

     atom    1 type  2   force =    -0.01825495    0.01968945    0.01885941
     atom    2 type  1   force =     0.01174380   -0.01676618   -0.02191766
     atom    3 type  1   force =     0.01717420    0.00086386   -0.00599400
     atom    4 type  3   force =     0.00092562   -0.00058509   -0.00025109
     atom    5 type  1   force =     0.01279955   -0.01483814    0.00365234
     atom    6 type  3   force =     0.00214892   -0.00003976   -0.00227155
     atom    7 type  3   force =    -0.00381619    0.00218240    0.00275661
     atom    8 type  1   force =    -0.00816008   -0.01011728   -0.02058122
     atom    9 type  3   force =    -0.00025564   -0.00267719    0.00173000
     atom   10 type  1   force =    -0.00127175    0.00568629    0.02311943
     atom   11 type  1   force =     0.00650953   -0.00882554    0.00554520
     atom   12 type  2   force =    -0.00844633   -0.00073539   -0.02438337
     atom   13 type  3   force =     0.00213630    0.00374333   -0.00595653
     atom   14 type  1   force =    -0.01258298   -0.00238240    0.01548670
     atom   15 type  3   force =    -0.00424274   -0.00263971    0.00174941
     atom   16 type  1   force =     0.01010848    0.00970450   -0.01864545
     atom   17 type  1   force =     0.01243157   -0.01396805    0.03243233
     atom   18 type  2   force =    -0.03122972    0.01581181   -0.01619980
     atom   19 type  3   force =     0.00171966    0.00083034    0.00196324
     atom   20 type  1   force =     0.00028344    0.00617495    0.01487732
     atom   21 type  3   force =    -0.00051516    0.00405981    0.00269040
     atom   22 type  1   force =     0.00606053   -0.00072893   -0.01864483
     atom   23 type  1   force =    -0.01908722    0.00947685    0.00182072
     atom   24 type  2   force =     0.02382118   -0.00391992    0.00816237
     The non-local contrib.  to forces
     atom    1 type  2   force =    -0.31424730    0.24125897    0.04269326
     atom    2 type  1   force =     0.41186862   -0.30117568   -0.01845523
     atom    3 type  1   force =    -0.00603614   -0.06055577   -0.05514302
     atom    4 type  3   force =    -0.05826683   -0.01843566   -0.04936780
     atom    5 type  1   force =     0.00957299   -0.04492277   -0.04202466
     atom    6 type  3   force =     0.00319257   -0.06542620   -0.04316320
     atom    7 type  3   force =     0.00120662   -0.06772625    0.04021730
     atom    8 type  1   force =     0.01410236   -0.06197774    0.00609769
     atom    9 type  3   force =     0.06748573   -0.02819066    0.02864994
     atom   10 type  1   force =     0.02698906   -0.04457569    0.06934543
     atom   11 type  1   force =    -0.40295404   -0.27823655    0.09910034
     atom   12 type  2   force =     0.31020706    0.20152449   -0.14272658
     atom   13 type  3   force =     0.00035291    0.06937522    0.03675661
     atom   14 type  1   force =    -0.00118903    0.02636249    0.06253728
     atom   15 type  3   force =     0.05949451    0.01958693    0.04793475
     atom   16 type  1   force =     0.05160883    0.07508441    0.00041772
     atom   17 type  1   force =    -0.37647556    0.28184006    0.02266469
     atom   18 type  2   force =     0.29985399   -0.25805871   -0.01971707
     atom   19 type  3   force =    -0.00256968    0.07031176   -0.03521661
     atom   20 type  1   force =    -0.02361947    0.05635106   -0.01018701
     atom   21 type  3   force =    -0.06873921    0.03025938   -0.02378204
     atom   22 type  1   force =    -0.03167356    0.05850818   -0.06118669
     atom   23 type  1   force =     0.38284997    0.31532559   -0.03662294
     atom   24 type  2   force =    -0.28605887   -0.26318928    0.05964778
     The ionic contribution  to forces
     atom    1 type  2   force =     5.74863032   -3.76928437    0.53069322
     atom    2 type  1   force =     2.84622494   -1.70475469    1.01370435
     atom    3 type  1   force =     4.27674025    1.69459973    3.29988387
     atom    4 type  3   force =     1.92234281    0.70542375    1.54312160
     atom    5 type  1   force =     1.29132800    4.06345953    2.50512605
     atom    6 type  3   force =     0.22482387    1.93596787    1.37879002
     atom    7 type  3   force =    -0.41288103    1.96233927   -1.25609713
     atom    8 type  1   force =    -1.61155837    4.30178690   -1.97381630
     atom    9 type  3   force =    -2.24976218    0.97070565   -0.97409879
     atom   10 type  1   force =    -5.07214380    2.23879789   -2.47976662
     atom   11 type  1   force =    -3.07032365   -1.38693786   -0.49217534
     atom   12 type  2   force =    -7.18058758   -3.96632950   -0.19463199
     atom   13 type  3   force =    -0.10962263   -1.99012817   -1.17546572
     atom   14 type  1   force =    -0.42462163   -3.90669251   -2.43971300
     atom   15 type  3   force =    -1.85286507   -0.71516094   -1.44800243
     atom   16 type  1   force =    -3.97195910   -2.06732442   -2.58952607
     atom   17 type  1   force =    -1.72458511    1.55079451   -1.04436664
     atom   18 type  2   force =    -5.20009819    4.04195478   -0.42465235
     atom   19 type  3   force =     0.26257846   -2.02905068    1.07151853
     atom   20 type  1   force =     1.00413222   -4.34686685    1.62056910
     atom   21 type  3   force =     2.09646082   -1.00620544    0.82590550
     atom   22 type  1   force =     4.48943153   -2.16937573    2.13425688
     atom   23 type  1   force =     2.53521683    1.25589594    0.28835424
     atom   24 type  2   force =     6.18309833    4.33638534    0.28038901
     The local contribution  to forces
     atom    1 type  2   force =    -5.46630191    3.55833834   -0.55223022
     atom    2 type  1   force =    -3.23548102    1.98119784   -1.01702117
     atom    3 type  1   force =    -4.25220938   -1.63368853   -3.25005399
     atom    4 type  3   force =    -1.86314616   -0.68756859   -1.49399926
     atom    5 type  1   force =    -1.28775927   -4.03213958   -2.45911743
     atom    6 type  3   force =    -0.22587927   -1.87057916   -1.33790453
     atom    7 type  3   force =     0.40784322   -1.89240921    1.21862274
     atom    8 type  1   force =     1.58892791   -4.24898881    1.94657123
     atom    9 type  3   force =     2.18202622   -0.94520371    0.94718288
     atom   10 type  1   force =     5.04227396   -2.18867823    2.43335760
     atom   11 type  1   force =     3.46914425    1.64953406    0.40099515
     atom   12 type  2   force =     6.87421531    3.77222380    0.30645712
     atom   13 type  3   force =     0.11139756    1.92450979    1.13275578
     atom   14 type  1   force =     0.41317650    3.87680390    2.39212777
     atom   15 type  3   force =     1.78914597    0.69293823    1.40182898
     atom   16 type  1   force =     3.92948198    2.00215921    2.56956105
     atom   17 type  1   force =     2.10438230   -1.83943610    1.05347429
     atom   18 type  2   force =     4.87984536   -3.77777499    0.42697884
     atom   19 type  3   force =    -0.25829329    1.95957939   -1.03434215
     atom   20 type  1   force =    -0.98027785    4.29554857   -1.59514427
     atom   21 type  3   force =    -2.02822322    0.97999514   -0.79942593
     atom   22 type  1   force =    -4.45025733    2.11024450   -2.09156360
     atom   23 type  1   force =    -2.92697847   -1.55434607   -0.25082642
     atom   24 type  2   force =    -5.88384245   -4.08775226   -0.32919711
     The core correction contribution to forces
     atom    1 type  2   force =     0.01358664   -0.01062420   -0.00231093
     atom    2 type  1   force =    -0.01095076    0.00792902   -0.00020051
     atom    3 type  1   force =    -0.00137721    0.00050021   -0.00071379
     atom    4 type  3   force =     0.00000000    0.00000000    0.00000000
     atom    5 type  1   force =    -0.00041650   -0.00122413   -0.00036306
     atom    6 type  3   force =     0.00000000    0.00000000    0.00000000
     atom    7 type  3   force =     0.00000000    0.00000000    0.00000000
     atom    8 type  1   force =     0.00023721   -0.00093246    0.00052412
     atom    9 type  3   force =     0.00000000    0.00000000    0.00000000
     atom   10 type  1   force =     0.00150407    0.00007809    0.00017115
     atom   11 type  1   force =     0.01059355    0.00680063   -0.00240240
     atom   12 type  2   force =    -0.01225876   -0.00810736    0.00648308
     atom   13 type  3   force =     0.00000000    0.00000000    0.00000000
     atom   14 type  1   force =    -0.00001221    0.00116646    0.00052238
     atom   15 type  3   force =     0.00000000    0.00000000    0.00000000
     atom   16 type  1   force =     0.00099072   -0.00023540    0.00090458
     atom   17 type  1   force =     0.00910483   -0.00721285    0.00064077
     atom   18 type  2   force =    -0.01077306    0.00967189    0.00120478
     atom   19 type  3   force =     0.00000000    0.00000000    0.00000000
     atom   20 type  1   force =    -0.00000366    0.00110271   -0.00036631
     atom   21 type  3   force =     0.00000000    0.00000000    0.00000000
     atom   22 type  1   force =    -0.00142009   -0.00021019   -0.00010971
     atom   23 type  1   force =    -0.01013023   -0.00742379    0.00093850
     atom   24 type  2   force =     0.01083364    0.01074977   -0.00262627
     The Hubbard contrib.    to forces
     atom    1 type  2   force =     0.00000000    0.00000000    0.00000000
     atom    2 type  1   force =     0.00000000    0.00000000    0.00000000
     atom    3 type  1   force =     0.00000000    0.00000000    0.00000000
     atom    4 type  3   force =     0.00000000    0.00000000    0.00000000
     atom    5 type  1   force =     0.00000000    0.00000000    0.00000000
     atom    6 type  3   force =     0.00000000    0.00000000    0.00000000
     atom    7 type  3   force =     0.00000000    0.00000000    0.00000000
     atom    8 type  1   force =     0.00000000    0.00000000    0.00000000
     atom    9 type  3   force =     0.00000000    0.00000000    0.00000000
     atom   10 type  1   force =     0.00000000    0.00000000    0.00000000
     atom   11 type  1   force =     0.00000000    0.00000000    0.00000000
     atom   12 type  2   force =     0.00000000    0.00000000    0.00000000
     atom   13 type  3   force =     0.00000000    0.00000000    0.00000000
     atom   14 type  1   force =     0.00000000    0.00000000    0.00000000
     atom   15 type  3   force =     0.00000000    0.00000000    0.00000000
     atom   16 type  1   force =     0.00000000    0.00000000    0.00000000
     atom   17 type  1   force =     0.00000000    0.00000000    0.00000000
     atom   18 type  2   force =     0.00000000    0.00000000    0.00000000
     atom   19 type  3   force =     0.00000000    0.00000000    0.00000000
     atom   20 type  1   force =     0.00000000    0.00000000    0.00000000
     atom   21 type  3   force =     0.00000000    0.00000000    0.00000000
     atom   22 type  1   force =     0.00000000    0.00000000    0.00000000
     atom   23 type  1   force =     0.00000000    0.00000000    0.00000000
     atom   24 type  2   force =     0.00000000    0.00000000    0.00000000
     The SCF correction term to forces
     atom    1 type  2   force =     0.00007654    0.00000113    0.00001381
     atom    2 type  1   force =     0.00008128    0.00003773    0.00005462
     atom    3 type  1   force =     0.00005592    0.00000862    0.00003265
     atom    4 type  3   force =    -0.00000497   -0.00000418   -0.00000590
     atom    5 type  1   force =     0.00007358   -0.00001079    0.00003116
     atom    6 type  3   force =     0.00001101   -0.00000185    0.00000588
     atom    7 type  3   force =     0.00001425   -0.00002100    0.00001343
     atom    8 type  1   force =     0.00013006   -0.00000476    0.00004175
     atom    9 type  3   force =    -0.00000616    0.00001194   -0.00000432
     atom   10 type  1   force =     0.00010419    0.00006463    0.00001160
     atom   11 type  1   force =     0.00004867    0.00001459    0.00002717
     atom   12 type  2   force =    -0.00002311   -0.00004642    0.00003472
     atom   13 type  3   force =     0.00000771   -0.00001311   -0.00000349
     atom   14 type  1   force =     0.00006263   -0.00002235    0.00001198
     atom   15 type  3   force =    -0.00001891   -0.00000353   -0.00001217
     atom   16 type  1   force =    -0.00001470    0.00002109   -0.00000302
     atom   17 type  1   force =     0.00000435    0.00004675    0.00001895
     atom   18 type  2   force =    -0.00005857    0.00001924   -0.00001429
     atom   19 type  3   force =     0.00000342   -0.00000973    0.00000319
     atom   20 type  1   force =     0.00005145    0.00003986    0.00000552
     atom   21 type  3   force =    -0.00001430    0.00001114   -0.00000741
     atom   22 type  1   force =    -0.00002077    0.00010471   -0.00004200
     atom   23 type  1   force =    -0.00004608    0.00002558   -0.00002295
     atom   24 type  2   force =    -0.00021021   -0.00011308   -0.00005132

     Total force =     0.102145     Total SCF correction =     0.000404

     Writing output data file scf-255.save
 writing file ./scratch/scf-255.save/charge-density
 writing file ./scratch/scf-255.save/charge-density
 writing file ./scratch/scf-255.save/charge-density
 writing file ./scratch/scf-255.save/charge-density
 writing file ./scratch/scf-255.save/charge-density
 writing file ./scratch/scf-255.save/charge-density
 writing file ./scratch/scf-255.save/charge-density
 writing file ./scratch/scf-255.save/charge-density
 writing file ./scratch/scf-255.save/charge-density
 writing file ./scratch/scf-255.save/charge-density
 writing file ./scratch/scf-255.save/charge-density
 writing file ./scratch/scf-255.save/charge-density
 writing file ./scratch/scf-255.save/charge-density
 writing file ./scratch/scf-255.save/charge-density
 writing file ./scratch/scf-255.save/charge-density
 writing file ./scratch/scf-255.save/charge-density
 writing file ./scratch/scf-255.save/charge-density
 writing file ./scratch/scf-255.save/charge-density
 writing file ./scratch/scf-255.save/charge-density
 writing file ./scratch/scf-255.save/charge-density
 writing file ./scratch/scf-255.save/charge-density
 writing file ./scratch/scf-255.save/charge-density
 writing file ./scratch/scf-255.save/charge-density
 writing file ./scratch/scf-255.save/charge-density
 writing file ./scratch/scf-255.save/charge-density
 writing file ./scratch/scf-255.save/charge-density
 writing file ./scratch/scf-255.save/charge-density
 writing file ./scratch/scf-255.save/charge-density
 writing file ./scratch/scf-255.save/charge-density
 writing file ./scratch/scf-255.save/charge-density
 writing file ./scratch/scf-255.save/charge-density
 writing file ./scratch/scf-255.save/charge-density
 
     init_run     :      4.34s CPU      4.57s WALL (       1 calls)
     electrons    :     49.34s CPU     52.26s WALL (       1 calls)
     forces       :      2.33s CPU      2.47s WALL (       1 calls)

     Called by init_run:
     wfcinit      :      1.60s CPU      1.62s WALL (       1 calls)
     wfcinit:atom :      0.01s CPU      0.02s WALL (      16 calls)
     wfcinit:wfcr :      1.47s CPU      1.49s WALL (      16 calls)
     potinit      :      0.89s CPU      0.91s WALL (       1 calls)

     Called by electrons:
     c_bands      :     38.68s CPU     38.95s WALL (      11 calls)
     sum_band     :      6.67s CPU      7.86s WALL (      11 calls)
     v_of_rho     :      0.92s CPU      0.96s WALL (      12 calls)
     v_h          :      0.07s CPU      0.06s WALL (      12 calls)
     v_xc         :      0.91s CPU      0.98s WALL (      13 calls)
     newd         :      1.40s CPU      2.85s WALL (      12 calls)
     PAW_pot      :      1.65s CPU      1.70s WALL (      12 calls)
     mix_rho      :      0.13s CPU      0.14s WALL (      11 calls)

     Called by c_bands:
     init_us_2    :      0.85s CPU      0.85s WALL (     384 calls)
     cegterg      :     36.36s CPU     36.58s WALL (     176 calls)

     Called by sum_band:
     sum_band:bec :      0.02s CPU      0.02s WALL (     176 calls)
     addusdens    :      1.51s CPU      2.66s WALL (      11 calls)

     Called by *egterg:
     h_psi        :     27.06s CPU     27.24s WALL (     864 calls)
     s_psi        :      1.98s CPU      2.00s WALL (     864 calls)
     g_psi        :      0.17s CPU      0.16s WALL (     672 calls)
     cdiaghg      :      3.49s CPU      3.40s WALL (     848 calls)
     cegterg:over :      1.62s CPU      1.64s WALL (     672 calls)
     cegterg:upda :      1.22s CPU      1.28s WALL (     672 calls)
     cegterg:last :      0.36s CPU      0.43s WALL (     192 calls)

     Called by h_psi:
     h_psi:pot    :     26.85s CPU     26.96s WALL (     864 calls)
     h_psi:calbec :      2.30s CPU      2.25s WALL (     864 calls)
     vloc_psi     :     22.60s CPU     22.77s WALL (     864 calls)
     add_vuspsi   :      1.95s CPU      1.94s WALL (     864 calls)

     General routines
     calbec       :      3.06s CPU      2.99s WALL (    1104 calls)
     fft          :      0.74s CPU      0.79s WALL (     199 calls)
     ffts         :      0.03s CPU      0.03s WALL (      23 calls)
     fftw         :     21.28s CPU     21.41s WALL (   55558 calls)
     interpolate  :      0.14s CPU      0.15s WALL (      23 calls)
     davcio       :      0.00s CPU      0.01s WALL (      16 calls)
 
     Parallel routines
     fft_scatter  :      7.64s CPU      7.65s WALL (   55780 calls)

     PAW routines
     PAW_pot      :      1.65s CPU      1.70s WALL (      12 calls)
 
     PWSCF        :  0m56.68s CPU     1m 0.38s WALL

 
   This run was terminated on:  12:23:41  20May2017            

=------------------------------------------------------------------------------=
   JOB DONE.
=------------------------------------------------------------------------------=
