
     Program PWSCF v.6.1 starts on 22May2017 at 14: 3: 5 

     This program is part of the open-source Quantum ESPRESSO suite
     for quantum simulation of materials; please cite
         "P. Giannozzi et al., J. Phys.:Condens. Matter 21 395502 (2009);
          URL http://www.quantum-espresso.org", 
     in publications or presentations arising from this work. More details at
     http://www.quantum-espresso.org/quote

     Parallel version (MPI & OpenMP), running on      32 processor cores
     Number of MPI processes:                32
     Threads/MPI process:                     1
     R & G space division:  proc/nbgrp/npool/nimage =      32
     Waiting for input...
     Reading input from standard input
Warning: card &IONS ignored
Warning: card     ION_TEMPERATURE   = 'INITIAL' ignored
Warning: card     TEMPW             = 586.D0 ignored
Warning: card     TOLP              = 100.D0 ignored
Warning: card     DELTA_T           = 1.D0 ignored
Warning: card     NRAISE            = 1 ignored
Warning: card / ignored
Warning: card &CELL ignored
Warning: card     CELL_DYNAMICS     = 'BFGS' ignored
Warning: card / ignored

     Current dimensions of program PWSCF are:
     Max number of different atomic species (ntypx) = 10
     Max number of k-points (npk) =  40000
     Max angular momentum in pseudopotentials (lmaxx) =  3
               file C.pbe-n-kjpaw_psl.1.0.0.UPF: wavefunction(s)  2S 2P renormalized
               file Cl.pbe-n-kjpaw_psl.1.0.0.UPF: wavefunction(s)  3S 3P renormalized
               file H.pbe-kjpaw_psl.1.0.0.UPF: wavefunction(s)  1S renormalized

     Subspace diagonalization in iterative solution of the eigenvalue problem:
     a serial algorithm will be used

 
     Parallelization info
     --------------------
     sticks:   dense  smooth     PW     G-vecs:    dense   smooth      PW
     Min         764     305     83                36108     9133    1292
     Max         765     306     84                36110     9135    1293
     Sum       24467    9791   2657              1155489   292295   41363
 


     bravais-lattice index     =            0
     lattice parameter (alat)  =       1.8897  a.u.
     unit-cell volume          =    2163.5316 (a.u.)^3
     number of atoms/cell      =           24
     number of atomic types    =            3
     number of electrons       =        84.00
     number of Kohn-Sham states=           42
     kinetic-energy cutoff     =     100.0000  Ry
     charge density cutoff     =    1000.0000  Ry
     convergence threshold     =      1.0E-07
     mixing beta               =       0.7000
     number of iterations used =            8  plain     mixing
     Exchange-correlation      =  SLA  PW   PBX  PBC ( 1  4  3  4 0 0)

     celldm(1)=   1.889726  celldm(2)=   0.000000  celldm(3)=   0.000000
     celldm(4)=   0.000000  celldm(5)=   0.000000  celldm(6)=   0.000000

     crystal axes: (cart. coord. in units of alat)
               a(1) = (  14.762000   0.000000   0.000000 )  
               a(2) = (   0.000000   5.832000   0.000000 )  
               a(3) = (  -1.563876   0.000000   3.723951 )  

     reciprocal axes: (cart. coord. in units 2 pi/alat)
               b(1) = (  0.067741  0.000000  0.028448 )  
               b(2) = (  0.000000  0.171468  0.000000 )  
               b(3) = (  0.000000  0.000000  0.268532 )  


     PseudoPot. # 1 for  C read from file:
     /global/cscratch1/sd/almno10/.data/PSEUDOPOTENTIALS/C.pbe-n-kjpaw_psl.1.0.0.UPF
     MD5 check sum: 2ba8448e293caca687844dde9a1b88a8
     Pseudo is Projector augmented-wave + core cor, Zval =  4.0
     Generated using "atomic" code by A. Dal Corso  v.5.3.0 svn rev. 11974
     Shape of augmentation charge: PSQ
     Using radial grid of 1073 points,  4 beta functions with: 
                l(1) =   0
                l(2) =   0
                l(3) =   1
                l(4) =   1
     Q(r) pseudized with 0 coefficients 


     PseudoPot. # 2 for Cl read from file:
     /global/cscratch1/sd/almno10/.data/PSEUDOPOTENTIALS/Cl.pbe-n-kjpaw_psl.1.0.0.UPF
     MD5 check sum: dca63699d6b897c5771335df08a09219
     Pseudo is Projector augmented-wave + core cor, Zval =  7.0
     Generated using "atomic" code by A. Dal Corso  v.5.3.0 svn rev. 11974
     Shape of augmentation charge: PSQ
     Using radial grid of 1157 points,  6 beta functions with: 
                l(1) =   0
                l(2) =   0
                l(3) =   1
                l(4) =   1
                l(5) =   2
                l(6) =   2
     Q(r) pseudized with 0 coefficients 


     PseudoPot. # 3 for  H read from file:
     /global/cscratch1/sd/almno10/.data/PSEUDOPOTENTIALS/H.pbe-kjpaw_psl.1.0.0.UPF
     MD5 check sum: bc0feb48a24907a0b97fa6ee2d589a29
     Pseudo is Projector augmented-wave, Zval =  1.0
     Generated using "atomic" code by A. Dal Corso  v.5.3.0 svn rev. 11974
     Shape of augmentation charge: PSQ
     Using radial grid of  929 points,  2 beta functions with: 
                l(1) =   0
                l(2) =   0
     Q(r) pseudized with 0 coefficients 


     atomic species   valence    mass     pseudopotential
        C              4.00    12.01100      C( 1.00)
        Cl             7.00    35.45270     Cl( 1.00)
        H              1.00     1.00790      H( 1.00)

     No symmetry found


                                    s                        frac. trans.

      isym =  1     identity                                     

 cryst.   s( 1) = (     1          0          0      )
                  (     0          1          0      )
                  (     0          0          1      )

 cart.    s( 1) = (  1.0000000  0.0000000 -0.0000000 )
                  (  0.0000000  1.0000000  0.0000000 )
                  (  0.0000000  0.0000000  1.0000000 )


   Cartesian axes

     site n.     atom                  positions (alat units)
         1           Cl  tau(   1) = (  16.4995765   1.1373006   1.5667851  )
         2           C   tau(   2) = (  15.1178771   2.2586574   1.8125218  )
         3           C   tau(   3) = (  15.2701315   3.4239183   2.5635659  )
         4           H   tau(   4) = (  16.2529962   3.7048493   2.9383302  )
         5           C   tau(   5) = (  14.1724084   4.2502405   2.7981371  )
         6           H   tau(   6) = (  14.2924603   5.1563380   3.3895507  )
         7           H   tau(   7) = (   6.5833498   2.1331106   0.6418042  )
         8           C   tau(   8) = (   6.5412609   1.1422606   1.0894846  )
         9           H   tau(   9) = (   4.4833942   0.8137123   0.5323336  )
        10           C   tau(  10) = (   5.3697701   0.3892129   1.0016645  )
        11           C   tau(  11) = (   5.3816178  -0.8754960   1.5887727  )
        12           Cl  tau(  12) = (   4.0541915  -1.9263471   1.6714471  )
        13           H   tau(  13) = (  13.7546218   0.9543240   0.7478330  )
        14           C   tau(  14) = (  13.8664452   1.8550399   1.3486264  )
        15           H   tau(  15) = (  11.7892730   2.4077168   1.1858231  )
        16           C   tau(  16) = (  12.7736427   2.7001687   1.5437656  )
        17           C   tau(  17) = (  12.9250268   3.8619169   2.3117780  )
        18           Cl  tau(  18) = (  11.5332491   4.8135124   2.5499982  )
        19           H   tau(  19) = (   6.4749106  -2.3546258   2.6807248  )
        20           C   tau(  20) = (   6.5316968  -1.3815142   2.1953869  )
        21           H   tau(  21) = (   8.5697748  -1.0277780   2.7978138  )
        22           C   tau(  22) = (   7.6873216  -0.6120297   2.3163234  )
        23           C   tau(  23) = (   7.6937765   0.6261857   1.6781663  )
        24           Cl  tau(  24) = (   9.1232293   1.7557209   1.6915087  )

   Crystallographic axes

     site n.     atom                  positions (cryst. coord.)
         1           Cl  tau(   1) = (  1.1622781  0.1950104  0.4207319  )
         2           C   tau(   2) = (  1.0756704  0.3872869  0.4867200  )
         3           C   tau(   3) = (  1.1073501  0.5870916  0.6883994  )
         4           H   tau(   4) = (  1.1845922  0.6352622  0.7890356  )
         5           C   tau(   5) = (  1.0396618  0.7287792  0.7513893  )
         6           H   tau(   6) = (  1.0646189  0.8841457  0.9102027  )
         7           H   tau(   7) = (  0.4642241  0.3657597  0.1723449  )
         8           C   tau(   8) = (  0.4741086  0.1958609  0.2925615  )
         9           H   tau(   9) = (  0.3188557  0.1395254  0.1429486  )
        10           C   tau(  10) = (  0.3922517  0.0667375  0.2689789  )
        11           C   tau(  11) = (  0.4097564 -0.1501193  0.4266363  )
        12           Cl  tau(  12) = (  0.3221865 -0.3303064  0.4488370  )
        13           H   tau(  13) = (  0.9530331  0.1636358  0.2008171  )
        14           C   tau(  14) = (  0.9776996  0.3180795  0.3621493  )
        15           H   tau(  15) = (  0.8323574  0.4128458  0.3184314  )
        16           C   tau(  16) = (  0.9092229  0.4629919  0.4145504  )
        17           C   tau(  17) = (  0.9413263  0.6621943  0.6207863  )
        18           Cl  tau(  18) = (  0.8538221  0.8253622  0.6847560  )
        19           H   tau(  19) = (  0.5148816 -0.4037424  0.7198603  )
        20           C   tau(  20) = (  0.5049215 -0.2368852  0.5895316  )
        21           H   tau(  21) = (  0.6601218 -0.1762308  0.7513025  )
        22           C   tau(  22) = (  0.5866456 -0.1049434  0.6220069  )
        23           C   tau(  23) = (  0.5689286  0.1073707  0.4506413  )
        24           Cl  tau(  24) = (  0.6661414  0.3010495  0.4542241  )

     number of k points=    16
                       cart. coord. in units 2pi/alat
        k(    1) = (   0.0169354   0.0214335   0.0406785), wk =   0.1250000
        k(    2) = (   0.0169354   0.0214335   0.1078115), wk =   0.1250000
        k(    3) = (   0.0169354   0.0214335  -0.0935875), wk =   0.1250000
        k(    4) = (   0.0169354   0.0214335  -0.0264545), wk =   0.1250000
        k(    5) = (   0.0169354   0.0643004   0.0406785), wk =   0.1250000
        k(    6) = (   0.0169354   0.0643004   0.1078115), wk =   0.1250000
        k(    7) = (   0.0169354   0.0643004  -0.0935875), wk =   0.1250000
        k(    8) = (   0.0169354   0.0643004  -0.0264545), wk =   0.1250000
        k(    9) = (  -0.0169354   0.0214335  -0.0406785), wk =   0.1250000
        k(   10) = (  -0.0169354   0.0214335  -0.1078115), wk =   0.1250000
        k(   11) = (  -0.0169354   0.0214335   0.0935875), wk =   0.1250000
        k(   12) = (  -0.0169354   0.0214335   0.0264545), wk =   0.1250000
        k(   13) = (  -0.0169354   0.0643004  -0.0406785), wk =   0.1250000
        k(   14) = (  -0.0169354   0.0643004  -0.1078115), wk =   0.1250000
        k(   15) = (  -0.0169354   0.0643004   0.0935875), wk =   0.1250000
        k(   16) = (  -0.0169354   0.0643004   0.0264545), wk =   0.1250000

                       cryst. coord.
        k(    1) = (   0.2500000   0.1250000   0.1250000), wk =   0.1250000
        k(    2) = (   0.2500000   0.1250000   0.3750000), wk =   0.1250000
        k(    3) = (   0.2500000   0.1250000  -0.3750000), wk =   0.1250000
        k(    4) = (   0.2500000   0.1250000  -0.1250000), wk =   0.1250000
        k(    5) = (   0.2500000   0.3750000   0.1250000), wk =   0.1250000
        k(    6) = (   0.2500000   0.3750000   0.3750000), wk =   0.1250000
        k(    7) = (   0.2500000   0.3750000  -0.3750000), wk =   0.1250000
        k(    8) = (   0.2500000   0.3750000  -0.1250000), wk =   0.1250000
        k(    9) = (  -0.2500000   0.1250000  -0.1250000), wk =   0.1250000
        k(   10) = (  -0.2500000   0.1250000  -0.3750000), wk =   0.1250000
        k(   11) = (  -0.2500000   0.1250000   0.3750000), wk =   0.1250000
        k(   12) = (  -0.2500000   0.1250000   0.1250000), wk =   0.1250000
        k(   13) = (  -0.2500000   0.3750000  -0.1250000), wk =   0.1250000
        k(   14) = (  -0.2500000   0.3750000  -0.3750000), wk =   0.1250000
        k(   15) = (  -0.2500000   0.3750000   0.3750000), wk =   0.1250000
        k(   16) = (  -0.2500000   0.3750000   0.1250000), wk =   0.1250000

     Dense  grid:  1155489 G-vectors     FFT dimensions: ( 288, 120,  80)

     Smooth grid:   292295 G-vectors     FFT dimensions: ( 180,  72,  50)

     Estimated max dynamical RAM per process >     147.21MB

     Estimated total allocated dynamical RAM >    4710.62MB

     Initial potential from superposition of free atoms

     starting charge   83.99939, renormalised to   84.00000
     Starting wfc are   72 randomized atomic wfcs
     Checking if some PAW data can be deallocated... 
       node    0, deallocated PAW data for type:  1
       node    0, deallocated PAW data for type:  3
       node    1, deallocated PAW data for type:  1
       node    1, deallocated PAW data for type:  3
       node    2, deallocated PAW data for type:  2
       node    2, deallocated PAW data for type:  3
       node    3, deallocated PAW data for type:  2
       node    3, deallocated PAW data for type:  3
       node    4, deallocated PAW data for type:  2
       node    4, deallocated PAW data for type:  3
       node    5, deallocated PAW data for type:  2
       node    5, deallocated PAW data for type:  3
       node    6, deallocated PAW data for type:  1
       node    6, deallocated PAW data for type:  2
       node    7, deallocated PAW data for type:  1
       node    7, deallocated PAW data for type:  2
       node    8, deallocated PAW data for type:  2
       node    8, deallocated PAW data for type:  3
       node    9, deallocated PAW data for type:  2
       node    9, deallocated PAW data for type:  3
       node   10, deallocated PAW data for type:  1
       node   10, deallocated PAW data for type:  2
       node   11, deallocated PAW data for type:  1
       node   11, deallocated PAW data for type:  2
       node   12, deallocated PAW data for type:  1
       node   12, deallocated PAW data for type:  2
       node   13, deallocated PAW data for type:  1
       node   13, deallocated PAW data for type:  2
       node   14, deallocated PAW data for type:  2
       node   14, deallocated PAW data for type:  3
       node   15, deallocated PAW data for type:  2
       node   15, deallocated PAW data for type:  3
       node   16, deallocated PAW data for type:  1
       node   16, deallocated PAW data for type:  2
       node   17, deallocated PAW data for type:  2
       node   17, deallocated PAW data for type:  3
       node   18, deallocated PAW data for type:  2
       node   18, deallocated PAW data for type:  3
       node   19, deallocated PAW data for type:  1
       node   19, deallocated PAW data for type:  3
       node   20, deallocated PAW data for type:  1
       node   20, deallocated PAW data for type:  2
       node   21, deallocated PAW data for type:  2
       node   21, deallocated PAW data for type:  3
       node   22, deallocated PAW data for type:  1
       node   22, deallocated PAW data for type:  2
       node   23, deallocated PAW data for type:  2
       node   23, deallocated PAW data for type:  3
       node   24, deallocated PAW data for type:  2
       node   24, deallocated PAW data for type:  3
       node   25, deallocated PAW data for type:  1
       node   25, deallocated PAW data for type:  3
       node   26, deallocated PAW data for type:  1
       node   26, deallocated PAW data for type:  2
       node   27, deallocated PAW data for type:  2
       node   27, deallocated PAW data for type:  3
       node   28, deallocated PAW data for type:  1
       node   28, deallocated PAW data for type:  2
       node   29, deallocated PAW data for type:  2
       node   29, deallocated PAW data for type:  3
       node   30, deallocated PAW data for type:  2
       node   30, deallocated PAW data for type:  3
       node   31, deallocated PAW data for type:  1
       node   31, deallocated PAW data for type:  3

     total cpu time spent up to now is        5.3 secs

     per-process dynamical memory:    20.7 Mb

     Self-consistent Calculation

     iteration #  1     ecut=   100.00 Ry     beta= 0.70
     Davidson diagonalization with overlap
     ethr =  1.00E-04,  avg # of iterations =  5.0

     total cpu time spent up to now is       12.0 secs

     total energy              =    -547.12871909 Ry
     Harris-Foulkes estimate   =    -548.98978400 Ry
     estimated scf accuracy    <       2.72414296 Ry

     iteration #  2     ecut=   100.00 Ry     beta= 0.70
     Davidson diagonalization with overlap
     ethr =  3.24E-03,  avg # of iterations =  3.0

     total cpu time spent up to now is       16.9 secs

     total energy              =    -547.53222119 Ry
     Harris-Foulkes estimate   =    -548.60395174 Ry
     estimated scf accuracy    <       1.93398388 Ry

     iteration #  3     ecut=   100.00 Ry     beta= 0.70
     Davidson diagonalization with overlap
     ethr =  2.30E-03,  avg # of iterations =  3.0

     total cpu time spent up to now is       21.4 secs

     total energy              =    -548.01308885 Ry
     Harris-Foulkes estimate   =    -548.05443293 Ry
     estimated scf accuracy    <       0.08296401 Ry

     iteration #  4     ecut=   100.00 Ry     beta= 0.70
     Davidson diagonalization with overlap
     ethr =  9.88E-05,  avg # of iterations =  4.0

     total cpu time spent up to now is       26.3 secs

     total energy              =    -548.03970805 Ry
     Harris-Foulkes estimate   =    -548.05063755 Ry
     estimated scf accuracy    <       0.02176171 Ry

     iteration #  5     ecut=   100.00 Ry     beta= 0.70
     Davidson diagonalization with overlap
     ethr =  2.59E-05,  avg # of iterations =  3.0

     total cpu time spent up to now is       30.7 secs

     total energy              =    -548.04407501 Ry
     Harris-Foulkes estimate   =    -548.04469612 Ry
     estimated scf accuracy    <       0.00118935 Ry

     iteration #  6     ecut=   100.00 Ry     beta= 0.70
     Davidson diagonalization with overlap
     ethr =  1.42E-06,  avg # of iterations =  4.0

     total cpu time spent up to now is       35.6 secs

     total energy              =    -548.04429336 Ry
     Harris-Foulkes estimate   =    -548.04472133 Ry
     estimated scf accuracy    <       0.00101501 Ry

     iteration #  7     ecut=   100.00 Ry     beta= 0.70
     Davidson diagonalization with overlap
     ethr =  1.21E-06,  avg # of iterations =  4.0

     total cpu time spent up to now is       39.9 secs

     total energy              =    -548.04451041 Ry
     Harris-Foulkes estimate   =    -548.04455866 Ry
     estimated scf accuracy    <       0.00013282 Ry

     iteration #  8     ecut=   100.00 Ry     beta= 0.70
     Davidson diagonalization with overlap
     ethr =  1.58E-07,  avg # of iterations =  4.0

     total cpu time spent up to now is       44.4 secs

     total energy              =    -548.04453442 Ry
     Harris-Foulkes estimate   =    -548.04454251 Ry
     estimated scf accuracy    <       0.00001750 Ry

     iteration #  9     ecut=   100.00 Ry     beta= 0.70
     Davidson diagonalization with overlap
     ethr =  2.08E-08,  avg # of iterations =  4.0

     total cpu time spent up to now is       49.0 secs

     total energy              =    -548.04453884 Ry
     Harris-Foulkes estimate   =    -548.04454001 Ry
     estimated scf accuracy    <       0.00000280 Ry

     iteration # 10     ecut=   100.00 Ry     beta= 0.70
     Davidson diagonalization with overlap
     ethr =  3.33E-09,  avg # of iterations =  4.0

     total cpu time spent up to now is       53.6 secs

     total energy              =    -548.04453941 Ry
     Harris-Foulkes estimate   =    -548.04453951 Ry
     estimated scf accuracy    <       0.00000021 Ry

     iteration # 11     ecut=   100.00 Ry     beta= 0.70
     Davidson diagonalization with overlap
     ethr =  2.56E-10,  avg # of iterations =  4.0

     total cpu time spent up to now is       58.4 secs

     End of self-consistent calculation

          k = 0.0169 0.0214 0.0407 ( 36525 PWs)   bands (ev):

   -16.2529 -16.0440 -15.2995 -15.2557 -13.9371 -13.8415 -12.4233 -12.2555
   -11.3157 -11.1207  -9.1018  -8.8441  -8.3198  -8.0917  -6.4337  -6.2237
    -5.4096  -5.2198  -5.0325  -4.8096  -4.2867  -4.0533  -3.9764  -3.8745
    -3.2807  -3.0709  -2.7731  -2.6164  -2.4806  -2.3506  -2.1611  -2.0997
    -1.2222  -1.1006  -1.0118  -0.9563  -0.9141  -0.7780  -0.0831   0.2070
     0.5204   0.6478

     occupation numbers 
     1.0000   1.0000   1.0000   1.0000   1.0000   1.0000   1.0000   1.0000
     1.0000   1.0000   1.0000   1.0000   1.0000   1.0000   1.0000   1.0000
     1.0000   1.0000   1.0000   1.0000   1.0000   1.0000   1.0000   1.0000
     1.0000   1.0000   1.0000   1.0000   1.0000   1.0000   1.0000   1.0000
     1.0000   1.0000   1.0000   1.0000   1.0000   1.0000   1.0000   1.0000
     1.0000   1.0000

          k = 0.0169 0.0214 0.1078 ( 36561 PWs)   bands (ev):

   -16.1871 -15.9344 -15.2471 -15.2099 -13.9199 -13.8552 -12.3964 -12.2152
   -11.3122 -11.1674  -9.0588  -8.8192  -8.2833  -8.0411  -6.4118  -6.3199
    -5.4041  -5.2278  -5.0750  -4.9417  -4.2964  -4.1930  -4.0566  -3.9683
    -3.7814  -3.7204  -2.8460  -2.7176  -2.6025  -2.4771  -2.3738  -2.3483
    -1.2993  -1.1334  -1.0942  -0.9074  -0.8448  -0.7646  -0.3770  -0.1655
     0.6000   0.9726

     occupation numbers 
     1.0000   1.0000   1.0000   1.0000   1.0000   1.0000   1.0000   1.0000
     1.0000   1.0000   1.0000   1.0000   1.0000   1.0000   1.0000   1.0000
     1.0000   1.0000   1.0000   1.0000   1.0000   1.0000   1.0000   1.0000
     1.0000   1.0000   1.0000   1.0000   1.0000   1.0000   1.0000   1.0000
     1.0000   1.0000   1.0000   1.0000   1.0000   1.0000   1.0000   1.0000
     1.0000   1.0000

          k = 0.0169 0.0214-0.0936 ( 36547 PWs)   bands (ev):

   -16.1851 -15.9413 -15.2533 -15.1995 -13.9205 -13.8442 -12.4024 -12.2107
   -11.3100 -11.1845  -9.0381  -8.8537  -8.2662  -8.0803  -6.4435  -6.2321
    -5.4013  -5.2240  -5.0987  -4.8394  -4.3405  -4.2009  -4.1002  -3.9706
    -3.7894  -3.7145  -2.8098  -2.6729  -2.6041  -2.4445  -2.4209  -2.3092
    -1.2745  -1.1147  -1.0765  -0.9890  -0.9317  -0.7832  -0.3288  -0.2394
     0.5957   0.9785

     occupation numbers 
     1.0000   1.0000   1.0000   1.0000   1.0000   1.0000   1.0000   1.0000
     1.0000   1.0000   1.0000   1.0000   1.0000   1.0000   1.0000   1.0000
     1.0000   1.0000   1.0000   1.0000   1.0000   1.0000   1.0000   1.0000
     1.0000   1.0000   1.0000   1.0000   1.0000   1.0000   1.0000   1.0000
     1.0000   1.0000   1.0000   1.0000   1.0000   1.0000   1.0000   1.0000
     1.0000   1.0000

          k = 0.0169 0.0214-0.0265 ( 36551 PWs)   bands (ev):

   -16.2514 -16.0492 -15.3061 -15.2465 -13.9396 -13.8284 -12.4292 -12.2521
   -11.3137 -11.1362  -9.0831  -8.8761  -8.3130  -8.1161  -6.4611  -6.1369
    -5.4086  -5.2306  -5.0830  -4.6832  -4.3370  -4.0705  -4.0048  -3.8248
    -3.2999  -3.0512  -2.7914  -2.5938  -2.5016  -2.2543  -2.1448  -2.1251
    -1.2171  -1.1321  -1.0229  -0.9815  -0.9250  -0.8360  -0.0449   0.1392
     0.5211   0.6468

     occupation numbers 
     1.0000   1.0000   1.0000   1.0000   1.0000   1.0000   1.0000   1.0000
     1.0000   1.0000   1.0000   1.0000   1.0000   1.0000   1.0000   1.0000
     1.0000   1.0000   1.0000   1.0000   1.0000   1.0000   1.0000   1.0000
     1.0000   1.0000   1.0000   1.0000   1.0000   1.0000   1.0000   1.0000
     1.0000   1.0000   1.0000   1.0000   1.0000   1.0000   1.0000   1.0000
     1.0000   1.0000

          k = 0.0169 0.0643 0.0407 ( 36518 PWs)   bands (ev):

   -16.2266 -16.0186 -15.2971 -15.2678 -13.9665 -13.8789 -12.4850 -12.2904
   -11.3406 -11.1156  -8.9788  -8.7709  -8.1980  -8.0019  -6.4211  -6.3032
    -5.3580  -5.1947  -5.0619  -5.0070  -4.3909  -4.2412  -4.0221  -3.9800
    -3.3294  -3.1411  -2.6602  -2.5281  -2.4265  -2.3589  -2.1489  -2.0959
    -1.1082  -1.0244  -0.9326  -0.8634  -0.8433  -0.7670  -0.0177   0.2316
     0.6033   0.6614

     occupation numbers 
     1.0000   1.0000   1.0000   1.0000   1.0000   1.0000   1.0000   1.0000
     1.0000   1.0000   1.0000   1.0000   1.0000   1.0000   1.0000   1.0000
     1.0000   1.0000   1.0000   1.0000   1.0000   1.0000   1.0000   1.0000
     1.0000   1.0000   1.0000   1.0000   1.0000   1.0000   1.0000   1.0000
     1.0000   1.0000   1.0000   1.0000   1.0000   1.0000   1.0000   1.0000
     1.0000   1.0000

          k = 0.0169 0.0643 0.1078 ( 36558 PWs)   bands (ev):

   -16.1672 -15.9247 -15.2426 -15.2088 -13.9371 -13.8665 -12.4421 -12.2335
   -11.3408 -11.1980  -8.9766  -8.8060  -8.2245  -8.0583  -6.3973  -6.2651
    -5.3680  -5.2043  -4.9845  -4.8994  -4.3490  -4.2239  -4.0827  -4.0298
    -3.9357  -3.8548  -2.7165  -2.6722  -2.6009  -2.5271  -2.3739  -2.3220
    -1.2450  -1.1321  -1.0422  -0.9779  -0.8843  -0.8004  -0.2392  -0.0092
     0.6280   0.9955

     occupation numbers 
     1.0000   1.0000   1.0000   1.0000   1.0000   1.0000   1.0000   1.0000
     1.0000   1.0000   1.0000   1.0000   1.0000   1.0000   1.0000   1.0000
     1.0000   1.0000   1.0000   1.0000   1.0000   1.0000   1.0000   1.0000
     1.0000   1.0000   1.0000   1.0000   1.0000   1.0000   1.0000   1.0000
     1.0000   1.0000   1.0000   1.0000   1.0000   1.0000   1.0000   1.0000
     1.0000   1.0000

          k = 0.0169 0.0643-0.0936 ( 36547 PWs)   bands (ev):

   -16.1650 -15.9322 -15.2470 -15.1999 -13.9406 -13.8527 -12.4475 -12.2286
   -11.3396 -11.2152  -8.9566  -8.8403  -8.1998  -8.1000  -6.4140  -6.1970
    -5.3676  -5.2138  -5.0363  -4.7487  -4.4036  -4.2403  -4.1311  -4.0257
    -3.9071  -3.8310  -2.7184  -2.6962  -2.6242  -2.5666  -2.3459  -2.1546
    -1.2591  -1.1446  -1.1024  -1.0046  -0.8977  -0.8373  -0.2043  -0.0843
     0.6308   1.0011

     occupation numbers 
     1.0000   1.0000   1.0000   1.0000   1.0000   1.0000   1.0000   1.0000
     1.0000   1.0000   1.0000   1.0000   1.0000   1.0000   1.0000   1.0000
     1.0000   1.0000   1.0000   1.0000   1.0000   1.0000   1.0000   1.0000
     1.0000   1.0000   1.0000   1.0000   1.0000   1.0000   1.0000   1.0000
     1.0000   1.0000   1.0000   1.0000   1.0000   1.0000   1.0000   1.0000
     1.0000   1.0000

          k = 0.0169 0.0643-0.0265 ( 36489 PWs)   bands (ev):

   -16.2246 -16.0249 -15.3019 -15.2593 -13.9702 -13.8660 -12.4900 -12.2843
   -11.3403 -11.1336  -8.9610  -8.7967  -8.1709  -8.0528  -6.4379  -6.2494
    -5.3580  -5.1814  -5.1055  -4.8789  -4.4017  -4.2249  -4.0753  -4.0327
    -3.3523  -3.1037  -2.6323  -2.5011  -2.3776  -2.3474  -2.1583  -2.0836
    -1.1395  -1.0183  -0.9661  -0.9144  -0.8693  -0.7744   0.0185   0.1682
     0.6013   0.6549

     occupation numbers 
     1.0000   1.0000   1.0000   1.0000   1.0000   1.0000   1.0000   1.0000
     1.0000   1.0000   1.0000   1.0000   1.0000   1.0000   1.0000   1.0000
     1.0000   1.0000   1.0000   1.0000   1.0000   1.0000   1.0000   1.0000
     1.0000   1.0000   1.0000   1.0000   1.0000   1.0000   1.0000   1.0000
     1.0000   1.0000   1.0000   1.0000   1.0000   1.0000   1.0000   1.0000
     1.0000   1.0000

          k =-0.0169 0.0214-0.0407 ( 36525 PWs)   bands (ev):

   -16.2509 -16.0500 -15.3020 -15.2501 -13.9405 -13.8277 -12.4286 -12.2524
   -11.3127 -11.1376  -9.0800  -8.8779  -8.3014  -8.1338  -6.4371  -6.1562
    -5.4057  -5.2300  -5.0544  -4.7343  -4.3042  -4.0992  -4.0146  -3.8124
    -3.2979  -3.0406  -2.7648  -2.6232  -2.5077  -2.2470  -2.1413  -2.1136
    -1.2263  -1.1275  -1.0734  -0.9722  -0.8891  -0.8384  -0.0462   0.1422
     0.5155   0.6490

     occupation numbers 
     1.0000   1.0000   1.0000   1.0000   1.0000   1.0000   1.0000   1.0000
     1.0000   1.0000   1.0000   1.0000   1.0000   1.0000   1.0000   1.0000
     1.0000   1.0000   1.0000   1.0000   1.0000   1.0000   1.0000   1.0000
     1.0000   1.0000   1.0000   1.0000   1.0000   1.0000   1.0000   1.0000
     1.0000   1.0000   1.0000   1.0000   1.0000   1.0000   1.0000   1.0000
     1.0000   1.0000

          k =-0.0169 0.0214-0.1078 ( 36561 PWs)   bands (ev):

   -16.1848 -15.9420 -15.2482 -15.2042 -13.9223 -13.8426 -12.4023 -12.2100
   -11.3102 -11.1857  -9.0362  -8.8536  -8.2557  -8.0952  -6.4172  -6.2600
    -5.3973  -5.2305  -5.0603  -4.8779  -4.3253  -4.1771  -4.1191  -4.0014
    -3.7854  -3.6931  -2.8042  -2.7514  -2.5995  -2.4424  -2.4000  -2.2512
    -1.3103  -1.1153  -1.0877  -0.9698  -0.9016  -0.8011  -0.3382  -0.2339
     0.5983   0.9759

     occupation numbers 
     1.0000   1.0000   1.0000   1.0000   1.0000   1.0000   1.0000   1.0000
     1.0000   1.0000   1.0000   1.0000   1.0000   1.0000   1.0000   1.0000
     1.0000   1.0000   1.0000   1.0000   1.0000   1.0000   1.0000   1.0000
     1.0000   1.0000   1.0000   1.0000   1.0000   1.0000   1.0000   1.0000
     1.0000   1.0000   1.0000   1.0000   1.0000   1.0000   1.0000   1.0000
     1.0000   1.0000

          k =-0.0169 0.0214 0.0936 ( 36547 PWs)   bands (ev):

   -16.1873 -15.9339 -15.2518 -15.2055 -13.9165 -13.8585 -12.3964 -12.2156
   -11.3111 -11.1679  -9.0587  -8.8217  -8.2853  -8.0339  -6.4357  -6.2986
    -5.4003  -5.2320  -5.1173  -4.8924  -4.3160  -4.1708  -4.0480  -3.9924
    -3.7788  -3.7165  -2.8000  -2.7229  -2.6314  -2.4717  -2.3866  -2.3672
    -1.2641  -1.1542  -1.0437  -0.9741  -0.8542  -0.7463  -0.3721  -0.1630
     0.5971   0.9752

     occupation numbers 
     1.0000   1.0000   1.0000   1.0000   1.0000   1.0000   1.0000   1.0000
     1.0000   1.0000   1.0000   1.0000   1.0000   1.0000   1.0000   1.0000
     1.0000   1.0000   1.0000   1.0000   1.0000   1.0000   1.0000   1.0000
     1.0000   1.0000   1.0000   1.0000   1.0000   1.0000   1.0000   1.0000
     1.0000   1.0000   1.0000   1.0000   1.0000   1.0000   1.0000   1.0000
     1.0000   1.0000

          k =-0.0169 0.0214 0.0265 ( 36551 PWs)   bands (ev):

   -16.2534 -16.0429 -15.3067 -15.2492 -13.9356 -13.8426 -12.4230 -12.2576
   -11.3135 -11.1203  -9.1025  -8.8498  -8.3261  -8.0760  -6.4545  -6.1957
    -5.4114  -5.2308  -5.0906  -4.7432  -4.3244  -4.0769  -3.9488  -3.8055
    -3.3015  -3.0731  -2.8196  -2.5818  -2.4832  -2.3271  -2.1979  -2.1096
    -1.1619  -1.1175  -1.0504  -0.9588  -0.9029  -0.7700  -0.0864   0.2054
     0.5188   0.6525

     occupation numbers 
     1.0000   1.0000   1.0000   1.0000   1.0000   1.0000   1.0000   1.0000
     1.0000   1.0000   1.0000   1.0000   1.0000   1.0000   1.0000   1.0000
     1.0000   1.0000   1.0000   1.0000   1.0000   1.0000   1.0000   1.0000
     1.0000   1.0000   1.0000   1.0000   1.0000   1.0000   1.0000   1.0000
     1.0000   1.0000   1.0000   1.0000   1.0000   1.0000   1.0000   1.0000
     1.0000   1.0000

          k =-0.0169 0.0643-0.0407 ( 36518 PWs)   bands (ev):

   -16.2245 -16.0250 -15.3007 -15.2606 -13.9700 -13.8657 -12.4898 -12.2867
   -11.3373 -11.1334  -8.9599  -8.8019  -8.1730  -8.0529  -6.4210  -6.2394
    -5.3616  -5.1834  -5.1283  -4.9009  -4.3854  -4.2984  -4.1090  -3.8805
    -3.3572  -3.1031  -2.6513  -2.5481  -2.3998  -2.2746  -2.1780  -2.0858
    -1.0984  -1.0192  -0.9764  -0.9339  -0.8507  -0.7939   0.0188   0.1628
     0.5887   0.6712

     occupation numbers 
     1.0000   1.0000   1.0000   1.0000   1.0000   1.0000   1.0000   1.0000
     1.0000   1.0000   1.0000   1.0000   1.0000   1.0000   1.0000   1.0000
     1.0000   1.0000   1.0000   1.0000   1.0000   1.0000   1.0000   1.0000
     1.0000   1.0000   1.0000   1.0000   1.0000   1.0000   1.0000   1.0000
     1.0000   1.0000   1.0000   1.0000   1.0000   1.0000   1.0000   1.0000
     1.0000   1.0000

          k =-0.0169 0.0643-0.1078 ( 36558 PWs)   bands (ev):

   -16.1649 -15.9324 -15.2447 -15.2020 -13.9404 -13.8529 -12.4476 -12.2289
   -11.3387 -11.2153  -8.9559  -8.8419  -8.1947  -8.1075  -6.3957  -6.2030
    -5.3647  -5.2170  -5.0450  -4.7908  -4.3346  -4.2491  -4.1734  -4.0037
    -3.9070  -3.8280  -2.7186  -2.6806  -2.6202  -2.5408  -2.3792  -2.1819
    -1.2587  -1.1393  -1.0764  -1.0027  -0.9154  -0.8391  -0.2027  -0.0802
     0.6268   0.9986

     occupation numbers 
     1.0000   1.0000   1.0000   1.0000   1.0000   1.0000   1.0000   1.0000
     1.0000   1.0000   1.0000   1.0000   1.0000   1.0000   1.0000   1.0000
     1.0000   1.0000   1.0000   1.0000   1.0000   1.0000   1.0000   1.0000
     1.0000   1.0000   1.0000   1.0000   1.0000   1.0000   1.0000   1.0000
     1.0000   1.0000   1.0000   1.0000   1.0000   1.0000   1.0000   1.0000
     1.0000   1.0000

          k =-0.0169 0.0643 0.0936 ( 36547 PWs)   bands (ev):

   -16.1673 -15.9246 -15.2446 -15.2068 -13.9365 -13.8674 -12.4418 -12.2328
   -11.3409 -11.1994  -8.9752  -8.8062  -8.2231  -8.0569  -6.4035  -6.2763
    -5.3646  -5.2101  -4.9677  -4.8672  -4.3676  -4.2271  -4.1337  -4.0131
    -3.9120  -3.8420  -2.7787  -2.6733  -2.6396  -2.5074  -2.3599  -2.2512
    -1.2467  -1.1460  -1.0561  -0.9531  -0.8851  -0.8111  -0.2433  -0.0109
     0.6314   0.9992

     occupation numbers 
     1.0000   1.0000   1.0000   1.0000   1.0000   1.0000   1.0000   1.0000
     1.0000   1.0000   1.0000   1.0000   1.0000   1.0000   1.0000   1.0000
     1.0000   1.0000   1.0000   1.0000   1.0000   1.0000   1.0000   1.0000
     1.0000   1.0000   1.0000   1.0000   1.0000   1.0000   1.0000   1.0000
     1.0000   1.0000   1.0000   1.0000   1.0000   1.0000   1.0000   1.0000
     1.0000   1.0000

          k =-0.0169 0.0643 0.0265 ( 36489 PWs)   bands (ev):

   -16.2268 -16.0181 -15.3023 -15.2627 -13.9663 -13.8794 -12.4842 -12.2906
   -11.3401 -11.1171  -8.9772  -8.7729  -8.1974  -7.9971  -6.4372  -6.3039
    -5.3563  -5.1934  -5.0577  -4.9738  -4.4010  -4.2628  -4.0635  -3.9397
    -3.3351  -3.1393  -2.6509  -2.4797  -2.4413  -2.3857  -2.1609  -2.0854
    -1.1425  -0.9995  -0.9692  -0.8804  -0.8208  -0.7318  -0.0161   0.2345
     0.5918   0.6682

     occupation numbers 
     1.0000   1.0000   1.0000   1.0000   1.0000   1.0000   1.0000   1.0000
     1.0000   1.0000   1.0000   1.0000   1.0000   1.0000   1.0000   1.0000
     1.0000   1.0000   1.0000   1.0000   1.0000   1.0000   1.0000   1.0000
     1.0000   1.0000   1.0000   1.0000   1.0000   1.0000   1.0000   1.0000
     1.0000   1.0000   1.0000   1.0000   1.0000   1.0000   1.0000   1.0000
     1.0000   1.0000

     highest occupied level (ev):     1.0011

!    total energy              =    -548.04453946 Ry
     Harris-Foulkes estimate   =    -548.04453949 Ry
     estimated scf accuracy    <       0.00000004 Ry

     total all-electron energy =     -4615.888027 Ry

     The total energy is the sum of the following terms:

     one-electron contribution =    -155.00823008 Ry
     hartree contribution      =     108.85944206 Ry
     xc contribution           =    -104.22150798 Ry
     ewald contribution        =    -141.89135804 Ry
     one-center paw contrib.   =    -255.78288541 Ry
      -> PAW hartree energy AE =      19.06893435 Ry
      -> PAW hartree energy PS =     -18.96443828 Ry
      -> PAW xc energy AE      =     -55.63778902 Ry
      -> PAW xc energy PS      =      10.09182599 Ry
      -> total E_H with PAW    =     108.96393813 Ry
      -> total E_XC with PAW   =    -149.76747102 Ry

     convergence has been achieved in  11 iterations
 writing file ./scratch/scf-1336.save/charge-density
 writing file ./scratch/scf-1336.save/charge-density
 writing file ./scratch/scf-1336.save/charge-density
 writing file ./scratch/scf-1336.save/charge-density
 writing file ./scratch/scf-1336.save/charge-density
 writing file ./scratch/scf-1336.save/charge-density
 writing file ./scratch/scf-1336.save/charge-density
 writing file ./scratch/scf-1336.save/charge-density
 writing file ./scratch/scf-1336.save/charge-density
 writing file ./scratch/scf-1336.save/charge-density
 writing file ./scratch/scf-1336.save/charge-density
 writing file ./scratch/scf-1336.save/charge-density
 writing file ./scratch/scf-1336.save/charge-density
 writing file ./scratch/scf-1336.save/charge-density
 writing file ./scratch/scf-1336.save/charge-density
 writing file ./scratch/scf-1336.save/charge-density
 writing file ./scratch/scf-1336.save/charge-density
 writing file ./scratch/scf-1336.save/charge-density
 writing file ./scratch/scf-1336.save/charge-density
 writing file ./scratch/scf-1336.save/charge-density
 writing file ./scratch/scf-1336.save/charge-density
 writing file ./scratch/scf-1336.save/charge-density
 writing file ./scratch/scf-1336.save/charge-density
 writing file ./scratch/scf-1336.save/charge-density
 writing file ./scratch/scf-1336.save/charge-density
 writing file ./scratch/scf-1336.save/charge-density
 writing file ./scratch/scf-1336.save/charge-density
 writing file ./scratch/scf-1336.save/charge-density
 writing file ./scratch/scf-1336.save/charge-density
 writing file ./scratch/scf-1336.save/charge-density
 writing file ./scratch/scf-1336.save/charge-density
 writing file ./scratch/scf-1336.save/charge-density

     Forces acting on atoms (cartesian axes, Ry/au):

     atom    1 type  2   force =    -0.02337830    0.02814658    0.00893818
     atom    2 type  1   force =     0.00650353   -0.02539026    0.01242304
     atom    3 type  1   force =     0.01554536   -0.00423385   -0.01370510
     atom    4 type  3   force =    -0.00341062   -0.00002074    0.00041627
     atom    5 type  1   force =    -0.00412532   -0.00718852    0.00243859
     atom    6 type  3   force =    -0.00125188   -0.00003000   -0.00168152
     atom    7 type  3   force =    -0.00355166   -0.00025912   -0.00117138
     atom    8 type  1   force =     0.00549865    0.00188338   -0.01974464
     atom    9 type  3   force =     0.00035335   -0.00391837   -0.00007842
     atom   10 type  1   force =     0.00280684   -0.00159085    0.01218108
     atom   11 type  1   force =     0.03807434    0.00612641    0.00513085
     atom   12 type  2   force =    -0.04825816   -0.01482281   -0.00873446
     atom   13 type  3   force =    -0.00015780   -0.00262842    0.00398705
     atom   14 type  1   force =     0.00371267    0.01234219   -0.01800069
     atom   15 type  3   force =     0.00022579    0.00095039   -0.00424262
     atom   16 type  1   force =     0.00869822   -0.00984135    0.02134273
     atom   17 type  1   force =     0.01854665   -0.02264827   -0.02415340
     atom   18 type  2   force =    -0.02630254    0.02916503    0.00636431
     atom   19 type  3   force =     0.00538576    0.00007560   -0.00151340
     atom   20 type  1   force =     0.00820075    0.01205801    0.02283463
     atom   21 type  3   force =     0.00057883    0.00359168    0.00282019
     atom   22 type  1   force =     0.01324507   -0.00143645   -0.02410957
     atom   23 type  1   force =     0.01649570    0.04078666    0.01212378
     atom   24 type  2   force =    -0.03343522   -0.04111692    0.00613450
     The non-local contrib.  to forces
     atom    1 type  2   force =    -0.29522249    0.25431059    0.05496511
     atom    2 type  1   force =     0.40390779   -0.34180069   -0.04229669
     atom    3 type  1   force =    -0.03245317   -0.04790526   -0.07090286
     atom    4 type  3   force =    -0.07093055   -0.02050982   -0.02734982
     atom    5 type  1   force =    -0.03973338   -0.06954500   -0.03428798
     atom    6 type  3   force =    -0.00908905   -0.06545671   -0.04300775
     atom    7 type  3   force =    -0.00306844   -0.07149481    0.03236470
     atom    8 type  1   force =     0.03501181   -0.05023149   -0.00308501
     atom    9 type  3   force =     0.06377523   -0.03122446    0.03417310
     atom   10 type  1   force =     0.04318139   -0.05969859    0.05591708
     atom   11 type  1   force =    -0.35707612   -0.29317060   -0.00654640
     atom   12 type  2   force =     0.29441616    0.26115448   -0.03152970
     atom   13 type  3   force =     0.00840226    0.06493374    0.04390994
     atom   14 type  1   force =     0.05023655    0.06750857    0.00283367
     atom   15 type  3   force =     0.07104147    0.02167289    0.02593354
     atom   16 type  1   force =     0.04123872    0.01351160    0.06278748
     atom   17 type  1   force =    -0.38074007    0.27343716    0.03977047
     atom   18 type  2   force =     0.32502299   -0.21477860   -0.04790196
     atom   19 type  3   force =     0.00386731    0.06999810   -0.03526874
     atom   20 type  1   force =    -0.00552947    0.06078125    0.00119381
     atom   21 type  3   force =    -0.06381277    0.03066280   -0.03474808
     atom   22 type  1   force =    -0.00409440    0.05502812   -0.08301489
     atom   23 type  1   force =     0.40381081    0.33866814    0.04494688
     atom   24 type  2   force =    -0.30127874   -0.25583551    0.00392959
     The ionic contribution  to forces
     atom    1 type  2   force =     4.98804669   -3.89489424    0.07368305
     atom    2 type  1   force =     2.08663278   -1.66174044   -0.46158889
     atom    3 type  1   force =     4.03209951    1.69847326    1.80471426
     atom    4 type  3   force =     2.09364057    0.70680127    0.79293477
     atom    5 type  1   force =     0.74986364    4.17966054    1.87636737
     atom    6 type  3   force =     0.31358098    1.89236786    1.15725172
     atom    7 type  3   force =     0.12763614    2.00982556   -1.01747774
     atom    8 type  1   force =     0.06801160    4.13759369   -1.45152897
     atom    9 type  3   force =    -1.76812764    0.97470799   -1.00411933
     atom   10 type  1   force =    -3.38982845    2.29452960   -2.18917630
     atom   11 type  1   force =    -1.54708993   -0.90548750   -0.31158997
     atom   12 type  2   force =    -4.57141450   -3.94796895    0.37736239
     atom   13 type  3   force =    -0.74234828   -1.88736603   -1.37285588
     atom   14 type  1   force =    -2.38460357   -4.33879228   -2.38293474
     atom   15 type  3   force =    -2.43285701   -0.80153463   -1.06171222
     atom   16 type  1   force =    -5.48019394   -1.87243933   -2.77442478
     atom   17 type  1   force =    -2.99912337    1.48646179   -0.32692480
     atom   18 type  2   force =    -8.07061945    4.33366890   -0.84177879
     atom   19 type  3   force =     0.32598213   -2.01646798    1.27992683
     atom   20 type  1   force =     1.88770824   -4.14733716    2.09405875
     atom   21 type  3   force =     2.07798222   -0.98851412    1.23270762
     atom   22 type  1   force =     4.94570853   -2.06755941    3.10448907
     atom   23 type  1   force =     3.82698673    1.32623467    0.55543844
     atom   24 type  2   force =     5.86232636    3.48977695    0.84717815
     The local contribution  to forces
     atom    1 type  2   force =    -4.72915574    3.68021694   -0.11718382
     atom    2 type  1   force =    -2.47300637    1.96958857    0.51446921
     atom    3 type  1   force =    -3.98284447   -1.65487110   -1.74769874
     atom    4 type  3   force =    -2.02610096   -0.68630228   -0.76515996
     atom    5 type  1   force =    -0.71452931   -4.11640790   -1.83916680
     atom    6 type  3   force =    -0.30574765   -1.82693959   -1.11592836
     atom    7 type  3   force =    -0.12812732   -1.93862573    0.98394937
     atom    8 type  1   force =    -0.09736925   -4.08446104    1.43414579
     atom    9 type  3   force =     1.70473681   -0.94740625    0.96988050
     atom   10 type  1   force =     3.34837957   -2.23642982    2.14505067
     atom   11 type  1   force =     1.93306002    1.19828490    0.32280193
     atom   12 type  2   force =     4.23870669    3.68164839   -0.35589209
     atom   13 type  3   force =     0.73377223    1.81979852    1.33292652
     atom   14 type  1   force =     2.33825037    4.28259081    2.36138358
     atom   15 type  3   force =     2.36204816    0.78081790    1.03153812
     atom   16 type  1   force =     5.44651951    1.84894848    2.73279131
     atom   17 type  1   force =     3.38901210   -1.77593261    0.26448081
     atom   18 type  2   force =     7.73114062   -4.09740518    0.89441204
     atom   19 type  3   force =    -0.32447083    1.94651916   -1.24616776
     atom   20 type  1   force =    -1.87367152    4.09759818   -2.07197534
     atom   21 type  3   force =    -2.01357967    0.96144559   -1.19513615
     atom   22 type  1   force =    -4.92666757    2.01139425   -3.04534469
     atom   23 type  1   force =    -4.20282943   -1.61558338   -0.58769441
     atom   24 type  2   force =    -5.60833464   -3.28727890   -0.84463089
     The core correction contribution to forces
     atom    1 type  2   force =     0.01311716   -0.01159347   -0.00248059
     atom    2 type  1   force =    -0.01102461    0.00852703    0.00182930
     atom    3 type  1   force =    -0.00122270    0.00014566    0.00022198
     atom    4 type  3   force =     0.00000000    0.00000000    0.00000000
     atom    5 type  1   force =     0.00021026   -0.00082224   -0.00047018
     atom    6 type  3   force =     0.00000000    0.00000000    0.00000000
     atom    7 type  3   force =     0.00000000    0.00000000    0.00000000
     atom    8 type  1   force =    -0.00021015   -0.00104136    0.00071521
     atom    9 type  3   force =     0.00000000    0.00000000    0.00000000
     atom   10 type  1   force =     0.00112300    0.00011117    0.00037573
     atom   11 type  1   force =     0.00914673    0.00661924    0.00041515
     atom   12 type  2   force =    -0.00992157   -0.00967494    0.00134686
     atom   13 type  3   force =     0.00000000    0.00000000    0.00000000
     atom   14 type  1   force =    -0.00031093    0.00101189    0.00067049
     atom   15 type  3   force =     0.00000000    0.00000000    0.00000000
     atom   16 type  1   force =     0.00104643    0.00015181    0.00016269
     atom   17 type  1   force =     0.00932737   -0.00661007   -0.00151650
     atom   18 type  2   force =    -0.01183813    0.00762855    0.00157769
     atom   19 type  3   force =     0.00000000    0.00000000    0.00000000
     atom   20 type  1   force =    -0.00033718    0.00101756   -0.00045222
     atom   21 type  3   force =     0.00000000    0.00000000    0.00000000
     atom   22 type  1   force =    -0.00168243   -0.00020056   -0.00026771
     atom   23 type  1   force =    -0.01155146   -0.00845379   -0.00061866
     atom   24 type  2   force =     0.01378451    0.01216810   -0.00033585
     The Hubbard contrib.    to forces
     atom    1 type  2   force =     0.00000000    0.00000000    0.00000000
     atom    2 type  1   force =     0.00000000    0.00000000    0.00000000
     atom    3 type  1   force =     0.00000000    0.00000000    0.00000000
     atom    4 type  3   force =     0.00000000    0.00000000    0.00000000
     atom    5 type  1   force =     0.00000000    0.00000000    0.00000000
     atom    6 type  3   force =     0.00000000    0.00000000    0.00000000
     atom    7 type  3   force =     0.00000000    0.00000000    0.00000000
     atom    8 type  1   force =     0.00000000    0.00000000    0.00000000
     atom    9 type  3   force =     0.00000000    0.00000000    0.00000000
     atom   10 type  1   force =     0.00000000    0.00000000    0.00000000
     atom   11 type  1   force =     0.00000000    0.00000000    0.00000000
     atom   12 type  2   force =     0.00000000    0.00000000    0.00000000
     atom   13 type  3   force =     0.00000000    0.00000000    0.00000000
     atom   14 type  1   force =     0.00000000    0.00000000    0.00000000
     atom   15 type  3   force =     0.00000000    0.00000000    0.00000000
     atom   16 type  1   force =     0.00000000    0.00000000    0.00000000
     atom   17 type  1   force =     0.00000000    0.00000000    0.00000000
     atom   18 type  2   force =     0.00000000    0.00000000    0.00000000
     atom   19 type  3   force =     0.00000000    0.00000000    0.00000000
     atom   20 type  1   force =     0.00000000    0.00000000    0.00000000
     atom   21 type  3   force =     0.00000000    0.00000000    0.00000000
     atom   22 type  1   force =     0.00000000    0.00000000    0.00000000
     atom   23 type  1   force =     0.00000000    0.00000000    0.00000000
     atom   24 type  2   force =     0.00000000    0.00000000    0.00000000
     The SCF correction term to forces
     atom    1 type  2   force =    -0.00016452    0.00010657   -0.00004620
     atom    2 type  1   force =    -0.00000665    0.00003509    0.00000948
     atom    3 type  1   force =    -0.00003440   -0.00007660   -0.00004037
     atom    4 type  3   force =    -0.00002028   -0.00001009   -0.00000935
     atom    5 type  1   force =     0.00006287   -0.00007410   -0.00000445
     atom    6 type  3   force =     0.00000325   -0.00000174    0.00000224
     atom    7 type  3   force =     0.00000736    0.00003568   -0.00000833
     atom    8 type  1   force =     0.00005405    0.00002339    0.00000772
     atom    9 type  3   force =    -0.00003164    0.00000417   -0.00001332
     atom   10 type  1   force =    -0.00004927   -0.00010340    0.00001327
     atom   11 type  1   force =     0.00003304   -0.00011982    0.00004951
     atom   12 type  2   force =    -0.00004553    0.00001803   -0.00002255
     atom   13 type  3   force =     0.00001540    0.00000516    0.00000585
     atom   14 type  1   force =     0.00013966    0.00002302    0.00004570
     atom   15 type  3   force =    -0.00000742   -0.00000596   -0.00000269
     atom   16 type  1   force =     0.00008690   -0.00001409    0.00002541
     atom   17 type  1   force =     0.00007003   -0.00000472    0.00003599
     atom   18 type  2   force =    -0.00000917    0.00005117    0.00005469
     atom   19 type  3   force =     0.00000657    0.00002612   -0.00000435
     atom   20 type  1   force =     0.00003009   -0.00000200    0.00000900
     atom   21 type  3   force =    -0.00001154   -0.00000277   -0.00000382
     atom   22 type  1   force =    -0.00001965   -0.00009903    0.00002802
     atom   23 type  1   force =     0.00007845   -0.00007917    0.00005090
     atom   24 type  2   force =     0.00006671    0.00005225   -0.00000713

     Total force =     0.134929     Total SCF correction =     0.000423

     Writing output data file scf-1336.save
 writing file ./scratch/scf-1336.save/charge-density
 writing file ./scratch/scf-1336.save/charge-density
 writing file ./scratch/scf-1336.save/charge-density
 writing file ./scratch/scf-1336.save/charge-density
 writing file ./scratch/scf-1336.save/charge-density
 writing file ./scratch/scf-1336.save/charge-density
 writing file ./scratch/scf-1336.save/charge-density
 writing file ./scratch/scf-1336.save/charge-density
 writing file ./scratch/scf-1336.save/charge-density
 writing file ./scratch/scf-1336.save/charge-density
 writing file ./scratch/scf-1336.save/charge-density
 writing file ./scratch/scf-1336.save/charge-density
 writing file ./scratch/scf-1336.save/charge-density
 writing file ./scratch/scf-1336.save/charge-density
 writing file ./scratch/scf-1336.save/charge-density
 writing file ./scratch/scf-1336.save/charge-density
 writing file ./scratch/scf-1336.save/charge-density
 writing file ./scratch/scf-1336.save/charge-density
 writing file ./scratch/scf-1336.save/charge-density
 writing file ./scratch/scf-1336.save/charge-density
 writing file ./scratch/scf-1336.save/charge-density
 writing file ./scratch/scf-1336.save/charge-density
 writing file ./scratch/scf-1336.save/charge-density
 writing file ./scratch/scf-1336.save/charge-density
 writing file ./scratch/scf-1336.save/charge-density
 writing file ./scratch/scf-1336.save/charge-density
 writing file ./scratch/scf-1336.save/charge-density
 writing file ./scratch/scf-1336.save/charge-density
 writing file ./scratch/scf-1336.save/charge-density
 writing file ./scratch/scf-1336.save/charge-density
 writing file ./scratch/scf-1336.save/charge-density
 writing file ./scratch/scf-1336.save/charge-density
 
     init_run     :      4.39s CPU      4.62s WALL (       1 calls)
     electrons    :     50.59s CPU     53.32s WALL (       1 calls)
     forces       :      2.32s CPU      2.47s WALL (       1 calls)

     Called by init_run:
     wfcinit      :      1.61s CPU      1.64s WALL (       1 calls)
     wfcinit:atom :      0.01s CPU      0.02s WALL (      16 calls)
     wfcinit:wfcr :      1.49s CPU      1.52s WALL (      16 calls)
     potinit      :      0.90s CPU      0.91s WALL (       1 calls)

     Called by electrons:
     c_bands      :     39.49s CPU     39.73s WALL (      11 calls)
     sum_band     :      7.00s CPU      8.13s WALL (      11 calls)
     v_of_rho     :      0.94s CPU      0.97s WALL (      12 calls)
     v_h          :      0.06s CPU      0.06s WALL (      12 calls)
     v_xc         :      0.94s CPU      0.98s WALL (      13 calls)
     newd         :      1.50s CPU      2.86s WALL (      12 calls)
     PAW_pot      :      1.64s CPU      1.69s WALL (      12 calls)
     mix_rho      :      0.14s CPU      0.14s WALL (      11 calls)

     Called by c_bands:
     init_us_2    :      0.84s CPU      0.87s WALL (     384 calls)
     cegterg      :     37.15s CPU     37.36s WALL (     176 calls)

     Called by sum_band:
     sum_band:bec :      0.05s CPU      0.02s WALL (     176 calls)
     addusdens    :      1.56s CPU      2.66s WALL (      11 calls)

     Called by *egterg:
     h_psi        :     27.88s CPU     27.94s WALL (     864 calls)
     s_psi        :      2.04s CPU      2.05s WALL (     864 calls)
     g_psi        :      0.15s CPU      0.16s WALL (     672 calls)
     cdiaghg      :      3.53s CPU      3.44s WALL (     848 calls)
     cegterg:over :      1.66s CPU      1.65s WALL (     672 calls)
     cegterg:upda :      1.19s CPU      1.29s WALL (     672 calls)
     cegterg:last :      0.36s CPU      0.44s WALL (     192 calls)

     Called by h_psi:
     h_psi:pot    :     27.60s CPU     27.66s WALL (     864 calls)
     h_psi:calbec :      2.34s CPU      2.27s WALL (     864 calls)
     vloc_psi     :     23.23s CPU     23.39s WALL (     864 calls)
     add_vuspsi   :      2.02s CPU      2.00s WALL (     864 calls)

     General routines
     calbec       :      3.08s CPU      3.02s WALL (    1104 calls)
     fft          :      0.73s CPU      0.78s WALL (     199 calls)
     ffts         :      0.01s CPU      0.03s WALL (      23 calls)
     fftw         :     21.24s CPU     21.25s WALL (   55538 calls)
     interpolate  :      0.12s CPU      0.15s WALL (      23 calls)
     davcio       :      0.00s CPU      0.01s WALL (      16 calls)
 
     Parallel routines
     fft_scatter  :      7.30s CPU      7.34s WALL (   55760 calls)

     PAW routines
     PAW_pot      :      1.64s CPU      1.69s WALL (      12 calls)
 
     PWSCF        :  0m58.00s CPU     1m 1.50s WALL

 
   This run was terminated on:  14: 4: 6  22May2017            

=------------------------------------------------------------------------------=
   JOB DONE.
=------------------------------------------------------------------------------=
