
     Program PWSCF v.6.1 starts on 20May2017 at 10:31:36 

     This program is part of the open-source Quantum ESPRESSO suite
     for quantum simulation of materials; please cite
         "P. Giannozzi et al., J. Phys.:Condens. Matter 21 395502 (2009);
          URL http://www.quantum-espresso.org", 
     in publications or presentations arising from this work. More details at
     http://www.quantum-espresso.org/quote

     Parallel version (MPI & OpenMP), running on      32 processor cores
     Number of MPI processes:                32
     Threads/MPI process:                     1
     R & G space division:  proc/nbgrp/npool/nimage =      32
     Waiting for input...
     Reading input from standard input
Warning: card &IONS ignored
Warning: card     ION_TEMPERATURE   = 'INITIAL' ignored
Warning: card     TEMPW             = 586.D0 ignored
Warning: card     TOLP              = 100.D0 ignored
Warning: card     DELTA_T           = 1.D0 ignored
Warning: card     NRAISE            = 1 ignored
Warning: card / ignored
Warning: card &CELL ignored
Warning: card     CELL_DYNAMICS     = 'BFGS' ignored
Warning: card / ignored

     Current dimensions of program PWSCF are:
     Max number of different atomic species (ntypx) = 10
     Max number of k-points (npk) =  40000
     Max angular momentum in pseudopotentials (lmaxx) =  3
               file C.pbe-n-kjpaw_psl.1.0.0.UPF: wavefunction(s)  2S 2P renormalized
               file Cl.pbe-n-kjpaw_psl.1.0.0.UPF: wavefunction(s)  3S 3P renormalized
               file H.pbe-kjpaw_psl.1.0.0.UPF: wavefunction(s)  1S renormalized

     Subspace diagonalization in iterative solution of the eigenvalue problem:
     a serial algorithm will be used

 
     Parallelization info
     --------------------
     sticks:   dense  smooth     PW     G-vecs:    dense   smooth      PW
     Min         764     305     83                36108     9133    1292
     Max         765     306     84                36110     9135    1293
     Sum       24467    9791   2657              1155489   292295   41363
 


     bravais-lattice index     =            0
     lattice parameter (alat)  =       1.8897  a.u.
     unit-cell volume          =    2163.5316 (a.u.)^3
     number of atoms/cell      =           24
     number of atomic types    =            3
     number of electrons       =        84.00
     number of Kohn-Sham states=           42
     kinetic-energy cutoff     =     100.0000  Ry
     charge density cutoff     =    1000.0000  Ry
     convergence threshold     =      1.0E-07
     mixing beta               =       0.7000
     number of iterations used =            8  plain     mixing
     Exchange-correlation      =  SLA  PW   PBX  PBC ( 1  4  3  4 0 0)

     celldm(1)=   1.889726  celldm(2)=   0.000000  celldm(3)=   0.000000
     celldm(4)=   0.000000  celldm(5)=   0.000000  celldm(6)=   0.000000

     crystal axes: (cart. coord. in units of alat)
               a(1) = (  14.762000   0.000000   0.000000 )  
               a(2) = (   0.000000   5.832000   0.000000 )  
               a(3) = (  -1.563876   0.000000   3.723951 )  

     reciprocal axes: (cart. coord. in units 2 pi/alat)
               b(1) = (  0.067741  0.000000  0.028448 )  
               b(2) = (  0.000000  0.171468  0.000000 )  
               b(3) = (  0.000000  0.000000  0.268532 )  


     PseudoPot. # 1 for  C read from file:
     /global/cscratch1/sd/almno10/.data/PSEUDOPOTENTIALS/C.pbe-n-kjpaw_psl.1.0.0.UPF
     MD5 check sum: 2ba8448e293caca687844dde9a1b88a8
     Pseudo is Projector augmented-wave + core cor, Zval =  4.0
     Generated using "atomic" code by A. Dal Corso  v.5.3.0 svn rev. 11974
     Shape of augmentation charge: PSQ
     Using radial grid of 1073 points,  4 beta functions with: 
                l(1) =   0
                l(2) =   0
                l(3) =   1
                l(4) =   1
     Q(r) pseudized with 0 coefficients 


     PseudoPot. # 2 for Cl read from file:
     /global/cscratch1/sd/almno10/.data/PSEUDOPOTENTIALS/Cl.pbe-n-kjpaw_psl.1.0.0.UPF
     MD5 check sum: dca63699d6b897c5771335df08a09219
     Pseudo is Projector augmented-wave + core cor, Zval =  7.0
     Generated using "atomic" code by A. Dal Corso  v.5.3.0 svn rev. 11974
     Shape of augmentation charge: PSQ
     Using radial grid of 1157 points,  6 beta functions with: 
                l(1) =   0
                l(2) =   0
                l(3) =   1
                l(4) =   1
                l(5) =   2
                l(6) =   2
     Q(r) pseudized with 0 coefficients 


     PseudoPot. # 3 for  H read from file:
     /global/cscratch1/sd/almno10/.data/PSEUDOPOTENTIALS/H.pbe-kjpaw_psl.1.0.0.UPF
     MD5 check sum: bc0feb48a24907a0b97fa6ee2d589a29
     Pseudo is Projector augmented-wave, Zval =  1.0
     Generated using "atomic" code by A. Dal Corso  v.5.3.0 svn rev. 11974
     Shape of augmentation charge: PSQ
     Using radial grid of  929 points,  2 beta functions with: 
                l(1) =   0
                l(2) =   0
     Q(r) pseudized with 0 coefficients 


     atomic species   valence    mass     pseudopotential
        C              4.00    12.01100      C( 1.00)
        Cl             7.00    35.45270     Cl( 1.00)
        H              1.00     1.00790      H( 1.00)

     No symmetry found


                                    s                        frac. trans.

      isym =  1     identity                                     

 cryst.   s( 1) = (     1          0          0      )
                  (     0          1          0      )
                  (     0          0          1      )

 cart.    s( 1) = (  1.0000000  0.0000000 -0.0000000 )
                  (  0.0000000  1.0000000  0.0000000 )
                  (  0.0000000  0.0000000  1.0000000 )


   Cartesian axes

     site n.     atom                  positions (alat units)
         1           Cl  tau(   1) = (  16.6790444   0.9906665   1.6837425  )
         2           C   tau(   2) = (  15.2225606   2.1345654   1.7267120  )
         3           C   tau(   3) = (  15.3304789   3.3375510   2.4234122  )
         4           H   tau(   4) = (  16.2877025   3.6305320   2.8521795  )
         5           C   tau(   5) = (  14.1809758   4.0704229   2.7176319  )
         6           H   tau(   6) = (  14.2609458   5.0074670   3.2665974  )
         7           H   tau(   7) = (   6.4001052   2.2030559   0.5757921  )
         8           C   tau(   8) = (   6.4394677   1.2576192   1.1128796  )
         9           H   tau(   9) = (   4.4254125   0.7007106   0.5792254  )
        10           C   tau(  10) = (   5.3282565   0.4150426   1.1180708  )
        11           C   tau(  11) = (   5.3881479  -0.7984731   1.8022482  )
        12           Cl  tau(  12) = (   4.0154504  -1.8345306   1.6359636  )
        13           H   tau(  13) = (  13.9506615   0.8322246   0.5577745  )
        14           C   tau(  14) = (  14.0037441   1.7123075   1.1956541  )
        15           H   tau(  15) = (  11.9269852   2.2251226   0.9301132  )
        16           C   tau(  16) = (  12.8851219   2.5336589   1.3410190  )
        17           C   tau(  17) = (  12.9681048   3.6679783   2.1591364  )
        18           Cl  tau(  18) = (  11.5231458   4.5630849   2.2453956  )
        19           H   tau(  19) = (   6.5764988  -2.1275157   3.0357776  )
        20           C   tau(  20) = (   6.5364803  -1.1834516   2.4943586  )
        21           H   tau(  21) = (   8.5461136  -0.6213252   3.0290070  )
        22           C   tau(  22) = (   7.6441938  -0.3385535   2.4902439  )
        23           C   tau(  23) = (   7.5867058   0.8717379   1.8026251  )
        24           Cl  tau(  24) = (   8.9255817   2.0450091   1.8711248  )

   Crystallographic axes

     site n.     atom                  positions (cryst. coord.)
         1           Cl  tau(   1) = (  1.1777627  0.1698674  0.4521387  )
         2           C   tau(   2) = (  1.0803207  0.3660092  0.4636774  )
         3           C   tau(   3) = (  1.1074510  0.5722824  0.6507636  )
         4           H   tau(   4) = (  1.1844924  0.6225192  0.7659014  )
         5           C   tau(   5) = (  1.0379520  0.6979463  0.7297710  )
         6           H   tau(   6) = (  1.0589863  0.8586192  0.8771858  )
         7           H   tau(   7) = (  0.4499329  0.3777531  0.1546186  )
         8           C   tau(   8) = (  0.4678785  0.2156411  0.2988437  )
         9           H   tau(   9) = (  0.3162619  0.1201493  0.1555405  )
        10           C   tau(  10) = (  0.3927511  0.0711664  0.3002378  )
        11           C   tau(  11) = (  0.4162717 -0.1369124  0.4839612  )
        12           Cl  tau(  12) = (  0.3185527 -0.3145629  0.4393085  )
        13           H   tau(  13) = (  0.9609063  0.1426997  0.1497803  )
        14           C   tau(  14) = (  0.9826487  0.2936055  0.3210713  )
        15           H   tau(  15) = (  0.8344118  0.3815368  0.2497651  )
        16           C   tau(  16) = (  0.9110069  0.4344408  0.3601065  )
        17           C   tau(  17) = (  0.9399021  0.6289400  0.5797972  )
        18           Cl  tau(  18) = (  0.8444724  0.7824220  0.6029605  )
        19           H   tau(  19) = (  0.5318639 -0.3648004  0.8152033  )
        20           C   tau(  20) = (  0.5137507 -0.2029238  0.6698150  )
        21           H   tau(  21) = (  0.6650960 -0.1065372  0.8133852  )
        22           C   tau(  22) = (  0.5886718 -0.0580510  0.6687101  )
        23           C   tau(  23) = (  0.5652160  0.1494750  0.4840625  )
        24           Cl  tau(  24) = (  0.6578622  0.3506531  0.5024568  )

     number of k points=    16
                       cart. coord. in units 2pi/alat
        k(    1) = (   0.0169354   0.0214335   0.0406785), wk =   0.1250000
        k(    2) = (   0.0169354   0.0214335   0.1078115), wk =   0.1250000
        k(    3) = (   0.0169354   0.0214335  -0.0935875), wk =   0.1250000
        k(    4) = (   0.0169354   0.0214335  -0.0264545), wk =   0.1250000
        k(    5) = (   0.0169354   0.0643004   0.0406785), wk =   0.1250000
        k(    6) = (   0.0169354   0.0643004   0.1078115), wk =   0.1250000
        k(    7) = (   0.0169354   0.0643004  -0.0935875), wk =   0.1250000
        k(    8) = (   0.0169354   0.0643004  -0.0264545), wk =   0.1250000
        k(    9) = (  -0.0169354   0.0214335  -0.0406785), wk =   0.1250000
        k(   10) = (  -0.0169354   0.0214335  -0.1078115), wk =   0.1250000
        k(   11) = (  -0.0169354   0.0214335   0.0935875), wk =   0.1250000
        k(   12) = (  -0.0169354   0.0214335   0.0264545), wk =   0.1250000
        k(   13) = (  -0.0169354   0.0643004  -0.0406785), wk =   0.1250000
        k(   14) = (  -0.0169354   0.0643004  -0.1078115), wk =   0.1250000
        k(   15) = (  -0.0169354   0.0643004   0.0935875), wk =   0.1250000
        k(   16) = (  -0.0169354   0.0643004   0.0264545), wk =   0.1250000

                       cryst. coord.
        k(    1) = (   0.2500000   0.1250000   0.1250000), wk =   0.1250000
        k(    2) = (   0.2500000   0.1250000   0.3750000), wk =   0.1250000
        k(    3) = (   0.2500000   0.1250000  -0.3750000), wk =   0.1250000
        k(    4) = (   0.2500000   0.1250000  -0.1250000), wk =   0.1250000
        k(    5) = (   0.2500000   0.3750000   0.1250000), wk =   0.1250000
        k(    6) = (   0.2500000   0.3750000   0.3750000), wk =   0.1250000
        k(    7) = (   0.2500000   0.3750000  -0.3750000), wk =   0.1250000
        k(    8) = (   0.2500000   0.3750000  -0.1250000), wk =   0.1250000
        k(    9) = (  -0.2500000   0.1250000  -0.1250000), wk =   0.1250000
        k(   10) = (  -0.2500000   0.1250000  -0.3750000), wk =   0.1250000
        k(   11) = (  -0.2500000   0.1250000   0.3750000), wk =   0.1250000
        k(   12) = (  -0.2500000   0.1250000   0.1250000), wk =   0.1250000
        k(   13) = (  -0.2500000   0.3750000  -0.1250000), wk =   0.1250000
        k(   14) = (  -0.2500000   0.3750000  -0.3750000), wk =   0.1250000
        k(   15) = (  -0.2500000   0.3750000   0.3750000), wk =   0.1250000
        k(   16) = (  -0.2500000   0.3750000   0.1250000), wk =   0.1250000

     Dense  grid:  1155489 G-vectors     FFT dimensions: ( 288, 120,  80)

     Smooth grid:   292295 G-vectors     FFT dimensions: ( 180,  72,  50)

     Estimated max dynamical RAM per process >     147.21MB

     Estimated total allocated dynamical RAM >    4710.62MB

     Initial potential from superposition of free atoms

     starting charge   83.99939, renormalised to   84.00000
     Starting wfc are   72 randomized atomic wfcs
     Checking if some PAW data can be deallocated... 
       node    0, deallocated PAW data for type:  1
       node    0, deallocated PAW data for type:  3
       node    1, deallocated PAW data for type:  1
       node    1, deallocated PAW data for type:  3
       node    2, deallocated PAW data for type:  2
       node    2, deallocated PAW data for type:  3
       node    3, deallocated PAW data for type:  2
       node    3, deallocated PAW data for type:  3
       node    4, deallocated PAW data for type:  2
       node    4, deallocated PAW data for type:  3
       node    5, deallocated PAW data for type:  2
       node    5, deallocated PAW data for type:  3
       node    6, deallocated PAW data for type:  1
       node    6, deallocated PAW data for type:  2
       node    7, deallocated PAW data for type:  1
       node    7, deallocated PAW data for type:  2
       node    8, deallocated PAW data for type:  2
       node    8, deallocated PAW data for type:  3
       node    9, deallocated PAW data for type:  2
       node    9, deallocated PAW data for type:  3
       node   10, deallocated PAW data for type:  1
       node   10, deallocated PAW data for type:  2
       node   11, deallocated PAW data for type:  1
       node   11, deallocated PAW data for type:  2
       node   12, deallocated PAW data for type:  1
       node   12, deallocated PAW data for type:  2
       node   13, deallocated PAW data for type:  1
       node   13, deallocated PAW data for type:  2
       node   14, deallocated PAW data for type:  2
       node   14, deallocated PAW data for type:  3
       node   15, deallocated PAW data for type:  2
       node   15, deallocated PAW data for type:  3
       node   16, deallocated PAW data for type:  1
       node   16, deallocated PAW data for type:  2
       node   17, deallocated PAW data for type:  2
       node   17, deallocated PAW data for type:  3
       node   18, deallocated PAW data for type:  2
       node   18, deallocated PAW data for type:  3
       node   19, deallocated PAW data for type:  1
       node   19, deallocated PAW data for type:  3
       node   20, deallocated PAW data for type:  1
       node   20, deallocated PAW data for type:  2
       node   21, deallocated PAW data for type:  2
       node   21, deallocated PAW data for type:  3
       node   22, deallocated PAW data for type:  1
       node   22, deallocated PAW data for type:  2
       node   23, deallocated PAW data for type:  2
       node   23, deallocated PAW data for type:  3
       node   24, deallocated PAW data for type:  2
       node   24, deallocated PAW data for type:  3
       node   25, deallocated PAW data for type:  1
       node   25, deallocated PAW data for type:  3
       node   26, deallocated PAW data for type:  1
       node   26, deallocated PAW data for type:  2
       node   27, deallocated PAW data for type:  2
       node   27, deallocated PAW data for type:  3
       node   28, deallocated PAW data for type:  1
       node   28, deallocated PAW data for type:  2
       node   29, deallocated PAW data for type:  2
       node   29, deallocated PAW data for type:  3
       node   30, deallocated PAW data for type:  2
       node   30, deallocated PAW data for type:  3
       node   31, deallocated PAW data for type:  1
       node   31, deallocated PAW data for type:  3

     total cpu time spent up to now is        5.3 secs

     per-process dynamical memory:    20.7 Mb

     Self-consistent Calculation

     iteration #  1     ecut=   100.00 Ry     beta= 0.70
     Davidson diagonalization with overlap
     ethr =  1.00E-04,  avg # of iterations =  5.0

     total cpu time spent up to now is       12.0 secs

     total energy              =    -547.13488249 Ry
     Harris-Foulkes estimate   =    -548.98581129 Ry
     estimated scf accuracy    <       2.71228632 Ry

     iteration #  2     ecut=   100.00 Ry     beta= 0.70
     Davidson diagonalization with overlap
     ethr =  3.23E-03,  avg # of iterations =  3.0

     total cpu time spent up to now is       16.8 secs

     total energy              =    -547.53048514 Ry
     Harris-Foulkes estimate   =    -548.60322443 Ry
     estimated scf accuracy    <       1.93686888 Ry

     iteration #  3     ecut=   100.00 Ry     beta= 0.70
     Davidson diagonalization with overlap
     ethr =  2.31E-03,  avg # of iterations =  3.0

     total cpu time spent up to now is       21.2 secs

     total energy              =    -548.01214359 Ry
     Harris-Foulkes estimate   =    -548.05576902 Ry
     estimated scf accuracy    <       0.08710357 Ry

     iteration #  4     ecut=   100.00 Ry     beta= 0.70
     Davidson diagonalization with overlap
     ethr =  1.04E-04,  avg # of iterations =  4.0

     total cpu time spent up to now is       26.1 secs

     total energy              =    -548.03961376 Ry
     Harris-Foulkes estimate   =    -548.05117187 Ry
     estimated scf accuracy    <       0.02305069 Ry

     iteration #  5     ecut=   100.00 Ry     beta= 0.70
     Davidson diagonalization with overlap
     ethr =  2.74E-05,  avg # of iterations =  3.0

     total cpu time spent up to now is       30.5 secs

     total energy              =    -548.04416065 Ry
     Harris-Foulkes estimate   =    -548.04510006 Ry
     estimated scf accuracy    <       0.00173274 Ry

     iteration #  6     ecut=   100.00 Ry     beta= 0.70
     Davidson diagonalization with overlap
     ethr =  2.06E-06,  avg # of iterations =  4.0

     total cpu time spent up to now is       35.2 secs

     total energy              =    -548.04446704 Ry
     Harris-Foulkes estimate   =    -548.04514745 Ry
     estimated scf accuracy    <       0.00173422 Ry

     iteration #  7     ecut=   100.00 Ry     beta= 0.70
     Davidson diagonalization with overlap
     ethr =  2.06E-06,  avg # of iterations =  4.0

     total cpu time spent up to now is       39.5 secs

     total energy              =    -548.04480669 Ry
     Harris-Foulkes estimate   =    -548.04485024 Ry
     estimated scf accuracy    <       0.00011277 Ry

     iteration #  8     ecut=   100.00 Ry     beta= 0.70
     Davidson diagonalization with overlap
     ethr =  1.34E-07,  avg # of iterations =  4.0

     total cpu time spent up to now is       44.1 secs

     total energy              =    -548.04483116 Ry
     Harris-Foulkes estimate   =    -548.04484025 Ry
     estimated scf accuracy    <       0.00002017 Ry

     iteration #  9     ecut=   100.00 Ry     beta= 0.70
     Davidson diagonalization with overlap
     ethr =  2.40E-08,  avg # of iterations =  4.0

     total cpu time spent up to now is       48.8 secs

     total energy              =    -548.04483585 Ry
     Harris-Foulkes estimate   =    -548.04483724 Ry
     estimated scf accuracy    <       0.00000320 Ry

     iteration # 10     ecut=   100.00 Ry     beta= 0.70
     Davidson diagonalization with overlap
     ethr =  3.81E-09,  avg # of iterations =  4.0

     total cpu time spent up to now is       53.4 secs

     total energy              =    -548.04483652 Ry
     Harris-Foulkes estimate   =    -548.04483670 Ry
     estimated scf accuracy    <       0.00000038 Ry

     iteration # 11     ecut=   100.00 Ry     beta= 0.70
     Davidson diagonalization with overlap
     ethr =  4.51E-10,  avg # of iterations =  3.9

     total cpu time spent up to now is       58.2 secs

     End of self-consistent calculation

          k = 0.0169 0.0214 0.0407 ( 36525 PWs)   bands (ev):

   -16.1240 -16.0568 -15.3167 -15.1151 -13.9220 -13.8332 -12.3449 -12.3349
   -11.2757 -11.2335  -8.9983  -8.9112  -8.2468  -8.1475  -6.3865  -6.2355
    -5.3345  -5.2636  -5.0209  -4.7956  -4.2103  -4.1118  -4.0101  -3.8779
    -3.1788  -3.1542  -2.7422  -2.5747  -2.4097  -2.3073  -2.1800  -2.0835
    -1.2428  -1.1445  -0.9887  -0.9639  -0.8878  -0.7458  -0.0077   0.0654
     0.5148   0.7203

     occupation numbers 
     1.0000   1.0000   1.0000   1.0000   1.0000   1.0000   1.0000   1.0000
     1.0000   1.0000   1.0000   1.0000   1.0000   1.0000   1.0000   1.0000
     1.0000   1.0000   1.0000   1.0000   1.0000   1.0000   1.0000   1.0000
     1.0000   1.0000   1.0000   1.0000   1.0000   1.0000   1.0000   1.0000
     1.0000   1.0000   1.0000   1.0000   1.0000   1.0000   1.0000   1.0000
     1.0000   1.0000

          k = 0.0169 0.0214 0.1078 ( 36561 PWs)   bands (ev):

   -16.0272 -15.9878 -15.2709 -15.0678 -13.8995 -13.8190 -12.3207 -12.3137
   -11.2851 -11.2484  -8.9613  -8.8902  -8.2057  -8.1318  -6.3452  -6.2921
    -5.3286  -5.2800  -5.0363  -4.9252  -4.2585  -4.1647  -4.1215  -3.9819
    -3.8179  -3.6793  -2.8064  -2.7291  -2.5396  -2.4310  -2.3696  -2.2541
    -1.3336  -1.2155  -1.1144  -0.9853  -0.8764  -0.7373  -0.2651  -0.1992
     0.6318   0.8053

     occupation numbers 
     1.0000   1.0000   1.0000   1.0000   1.0000   1.0000   1.0000   1.0000
     1.0000   1.0000   1.0000   1.0000   1.0000   1.0000   1.0000   1.0000
     1.0000   1.0000   1.0000   1.0000   1.0000   1.0000   1.0000   1.0000
     1.0000   1.0000   1.0000   1.0000   1.0000   1.0000   1.0000   1.0000
     1.0000   1.0000   1.0000   1.0000   1.0000   1.0000   1.0000   1.0000
     1.0000   1.0000

          k = 0.0169 0.0214-0.0936 ( 36547 PWs)   bands (ev):

   -16.0331 -15.9821 -15.2748 -15.0640 -13.9007 -13.8140 -12.3258 -12.3092
   -11.2865 -11.2507  -8.9344  -8.9236  -8.2150  -8.1270  -6.3687  -6.2520
    -5.3207  -5.2816  -5.0984  -4.8450  -4.2438  -4.2126  -4.1144  -4.0180
    -3.7833  -3.6973  -2.7885  -2.6287  -2.5207  -2.4487  -2.3879  -2.3189
    -1.2873  -1.1786  -1.1458  -0.9922  -0.9278  -0.7416  -0.2982  -0.1803
     0.6205   0.8133

     occupation numbers 
     1.0000   1.0000   1.0000   1.0000   1.0000   1.0000   1.0000   1.0000
     1.0000   1.0000   1.0000   1.0000   1.0000   1.0000   1.0000   1.0000
     1.0000   1.0000   1.0000   1.0000   1.0000   1.0000   1.0000   1.0000
     1.0000   1.0000   1.0000   1.0000   1.0000   1.0000   1.0000   1.0000
     1.0000   1.0000   1.0000   1.0000   1.0000   1.0000   1.0000   1.0000
     1.0000   1.0000

          k = 0.0169 0.0214-0.0265 ( 36551 PWs)   bands (ev):

   -16.1296 -16.0510 -15.3211 -15.1114 -13.9251 -13.8261 -12.3437 -12.3375
   -11.2778 -11.2339  -8.9744  -8.9424  -8.2762  -8.1180  -6.4224  -6.1800
    -5.3314  -5.2734  -5.1013  -4.6888  -4.2712  -4.1291  -3.9466  -3.8644
    -3.1980  -3.1396  -2.7907  -2.5308  -2.3891  -2.2914  -2.1846  -2.1124
    -1.2174  -1.0997  -1.0634  -0.9599  -0.8969  -0.7433   0.0105   0.0242
     0.5120   0.7209

     occupation numbers 
     1.0000   1.0000   1.0000   1.0000   1.0000   1.0000   1.0000   1.0000
     1.0000   1.0000   1.0000   1.0000   1.0000   1.0000   1.0000   1.0000
     1.0000   1.0000   1.0000   1.0000   1.0000   1.0000   1.0000   1.0000
     1.0000   1.0000   1.0000   1.0000   1.0000   1.0000   1.0000   1.0000
     1.0000   1.0000   1.0000   1.0000   1.0000   1.0000   1.0000   1.0000
     1.0000   1.0000

          k = 0.0169 0.0643 0.0407 ( 36518 PWs)   bands (ev):

   -16.1056 -16.0253 -15.3208 -15.1164 -13.9622 -13.8658 -12.3812 -12.3768
   -11.2815 -11.2419  -8.8993  -8.8469  -8.1413  -8.0936  -6.3833  -6.2884
    -5.2814  -5.2364  -4.9968  -4.9499  -4.3374  -4.2846  -4.0443  -3.9298
    -3.2410  -3.2087  -2.6460  -2.5795  -2.4403  -2.3567  -2.1125  -2.0344
    -1.0887  -0.9799  -0.9009  -0.8675  -0.8400  -0.7995   0.0199   0.0901
     0.5952   0.7406

     occupation numbers 
     1.0000   1.0000   1.0000   1.0000   1.0000   1.0000   1.0000   1.0000
     1.0000   1.0000   1.0000   1.0000   1.0000   1.0000   1.0000   1.0000
     1.0000   1.0000   1.0000   1.0000   1.0000   1.0000   1.0000   1.0000
     1.0000   1.0000   1.0000   1.0000   1.0000   1.0000   1.0000   1.0000
     1.0000   1.0000   1.0000   1.0000   1.0000   1.0000   1.0000   1.0000
     1.0000   1.0000

          k = 0.0169 0.0643 0.1078 ( 36558 PWs)   bands (ev):

   -16.0188 -15.9637 -15.2727 -15.0620 -13.9223 -13.8378 -12.3447 -12.3313
   -11.3016 -11.2697  -8.9165  -8.8855  -8.1676  -8.1290  -6.3430  -6.3040
    -5.2997  -5.2591  -4.9057  -4.8698  -4.2714  -4.2310  -4.0828  -3.9934
    -3.9450  -3.8228  -2.7781  -2.6544  -2.5675  -2.4477  -2.3588  -2.2904
    -1.2907  -1.1388  -1.0387  -0.9713  -0.9417  -0.8041  -0.1179  -0.0904
     0.6434   0.8372

     occupation numbers 
     1.0000   1.0000   1.0000   1.0000   1.0000   1.0000   1.0000   1.0000
     1.0000   1.0000   1.0000   1.0000   1.0000   1.0000   1.0000   1.0000
     1.0000   1.0000   1.0000   1.0000   1.0000   1.0000   1.0000   1.0000
     1.0000   1.0000   1.0000   1.0000   1.0000   1.0000   1.0000   1.0000
     1.0000   1.0000   1.0000   1.0000   1.0000   1.0000   1.0000   1.0000
     1.0000   1.0000

          k = 0.0169 0.0643-0.0936 ( 36547 PWs)   bands (ev):

   -16.0231 -15.9599 -15.2752 -15.0595 -13.9269 -13.8293 -12.3511 -12.3251
   -11.3097 -11.2664  -8.9191  -8.8879  -8.1805  -8.1196  -6.3750  -6.2589
    -5.2995  -5.2720  -4.9657  -4.7686  -4.2990  -4.2438  -4.0789  -4.0310
    -3.9054  -3.8055  -2.7497  -2.6905  -2.5893  -2.5193  -2.2825  -2.2210
    -1.2474  -1.1359  -1.0912  -1.0237  -0.9099  -0.8267  -0.1583  -0.0737
     0.6422   0.8436

     occupation numbers 
     1.0000   1.0000   1.0000   1.0000   1.0000   1.0000   1.0000   1.0000
     1.0000   1.0000   1.0000   1.0000   1.0000   1.0000   1.0000   1.0000
     1.0000   1.0000   1.0000   1.0000   1.0000   1.0000   1.0000   1.0000
     1.0000   1.0000   1.0000   1.0000   1.0000   1.0000   1.0000   1.0000
     1.0000   1.0000   1.0000   1.0000   1.0000   1.0000   1.0000   1.0000
     1.0000   1.0000

          k = 0.0169 0.0643-0.0265 ( 36489 PWs)   bands (ev):

   -16.1096 -16.0215 -15.3232 -15.1142 -13.9668 -13.8578 -12.3858 -12.3709
   -11.2831 -11.2470  -8.8810  -8.8667  -8.1509  -8.0883  -6.4145  -6.2626
    -5.2827  -5.2317  -5.0375  -4.8558  -4.3253  -4.2620  -4.0888  -3.9870
    -3.2664  -3.1823  -2.6313  -2.5154  -2.4171  -2.3648  -2.1225  -2.0502
    -1.0785  -1.0106  -0.9279  -0.8771  -0.8356  -0.7746   0.0377   0.0520
     0.5893   0.7397

     occupation numbers 
     1.0000   1.0000   1.0000   1.0000   1.0000   1.0000   1.0000   1.0000
     1.0000   1.0000   1.0000   1.0000   1.0000   1.0000   1.0000   1.0000
     1.0000   1.0000   1.0000   1.0000   1.0000   1.0000   1.0000   1.0000
     1.0000   1.0000   1.0000   1.0000   1.0000   1.0000   1.0000   1.0000
     1.0000   1.0000   1.0000   1.0000   1.0000   1.0000   1.0000   1.0000
     1.0000   1.0000

          k =-0.0169 0.0214-0.0407 ( 36525 PWs)   bands (ev):

   -16.1280 -16.0530 -15.3199 -15.1119 -13.9276 -13.8243 -12.3413 -12.3389
   -11.2696 -11.2437  -8.9695  -8.9444  -8.2500  -8.1518  -6.3718  -6.2346
    -5.3232  -5.2799  -5.0463  -4.7518  -4.1992  -4.1113  -4.0372  -3.8799
    -3.1999  -3.1285  -2.7540  -2.5154  -2.4187  -2.2961  -2.1834  -2.0872
    -1.2495  -1.1347  -1.0245  -0.9594  -0.8812  -0.7548   0.0131   0.0233
     0.5102   0.7219

     occupation numbers 
     1.0000   1.0000   1.0000   1.0000   1.0000   1.0000   1.0000   1.0000
     1.0000   1.0000   1.0000   1.0000   1.0000   1.0000   1.0000   1.0000
     1.0000   1.0000   1.0000   1.0000   1.0000   1.0000   1.0000   1.0000
     1.0000   1.0000   1.0000   1.0000   1.0000   1.0000   1.0000   1.0000
     1.0000   1.0000   1.0000   1.0000   1.0000   1.0000   1.0000   1.0000
     1.0000   1.0000

          k =-0.0169 0.0214-0.1078 ( 36561 PWs)   bands (ev):

   -16.0313 -15.9843 -15.2735 -15.0648 -13.9059 -13.8090 -12.3260 -12.3085
   -11.2922 -11.2460  -8.9363  -8.9200  -8.1905  -8.1545  -6.3381  -6.2841
    -5.3187  -5.2890  -5.0503  -4.8948  -4.2688  -4.1713  -4.1175  -4.0064
    -3.7737  -3.7070  -2.8043  -2.7353  -2.5242  -2.4275  -2.3515  -2.2373
    -1.3279  -1.1770  -1.1286  -1.0127  -0.9009  -0.7508  -0.3053  -0.1789
     0.6251   0.8109

     occupation numbers 
     1.0000   1.0000   1.0000   1.0000   1.0000   1.0000   1.0000   1.0000
     1.0000   1.0000   1.0000   1.0000   1.0000   1.0000   1.0000   1.0000
     1.0000   1.0000   1.0000   1.0000   1.0000   1.0000   1.0000   1.0000
     1.0000   1.0000   1.0000   1.0000   1.0000   1.0000   1.0000   1.0000
     1.0000   1.0000   1.0000   1.0000   1.0000   1.0000   1.0000   1.0000
     1.0000   1.0000

          k =-0.0169 0.0214 0.0936 ( 36547 PWs)   bands (ev):

   -16.0291 -15.9855 -15.2728 -15.0661 -13.8988 -13.8199 -12.3193 -12.3152
   -11.2795 -11.2537  -8.9606  -8.8917  -8.2158  -8.1193  -6.3577  -6.2832
    -5.3242  -5.2841  -5.0804  -4.8659  -4.2233  -4.1795  -4.1324  -4.0302
    -3.7937  -3.6932  -2.7784  -2.6708  -2.5488  -2.4344  -2.3835  -2.3221
    -1.2775  -1.2341  -1.1009  -1.0138  -0.8839  -0.7346  -0.2407  -0.2173
     0.6280   0.8083

     occupation numbers 
     1.0000   1.0000   1.0000   1.0000   1.0000   1.0000   1.0000   1.0000
     1.0000   1.0000   1.0000   1.0000   1.0000   1.0000   1.0000   1.0000
     1.0000   1.0000   1.0000   1.0000   1.0000   1.0000   1.0000   1.0000
     1.0000   1.0000   1.0000   1.0000   1.0000   1.0000   1.0000   1.0000
     1.0000   1.0000   1.0000   1.0000   1.0000   1.0000   1.0000   1.0000
     1.0000   1.0000

          k =-0.0169 0.0214 0.0265 ( 36551 PWs)   bands (ev):

   -16.1268 -16.0532 -15.3204 -15.1121 -13.9210 -13.8341 -12.3467 -12.3342
   -11.2733 -11.2340  -8.9980  -8.9158  -8.2758  -8.1093  -6.4108  -6.2107
    -5.3355  -5.2699  -5.0977  -4.7023  -4.2454  -4.1299  -3.9339  -3.8830
    -3.2044  -3.1549  -2.7793  -2.5332  -2.3959  -2.3250  -2.2001  -2.0942
    -1.2106  -1.1175  -1.0191  -0.9636  -0.9041  -0.7318  -0.0118   0.0649
     0.5103   0.7269

     occupation numbers 
     1.0000   1.0000   1.0000   1.0000   1.0000   1.0000   1.0000   1.0000
     1.0000   1.0000   1.0000   1.0000   1.0000   1.0000   1.0000   1.0000
     1.0000   1.0000   1.0000   1.0000   1.0000   1.0000   1.0000   1.0000
     1.0000   1.0000   1.0000   1.0000   1.0000   1.0000   1.0000   1.0000
     1.0000   1.0000   1.0000   1.0000   1.0000   1.0000   1.0000   1.0000
     1.0000   1.0000

          k =-0.0169 0.0643-0.0407 ( 36518 PWs)   bands (ev):

   -16.1098 -16.0212 -15.3245 -15.1129 -13.9676 -13.8571 -12.3848 -12.3733
   -11.2737 -11.2540  -8.8815  -8.8690  -8.1555  -8.0870  -6.3626  -6.2912
    -5.2823  -5.2352  -5.0648  -4.8862  -4.3404  -4.2650  -4.0536  -3.9333
    -3.2712  -3.1800  -2.6725  -2.5317  -2.4310  -2.3301  -2.1222  -2.0407
    -1.0811  -0.9755  -0.9176  -0.8984  -0.8358  -0.7955   0.0366   0.0485
     0.5867   0.7472

     occupation numbers 
     1.0000   1.0000   1.0000   1.0000   1.0000   1.0000   1.0000   1.0000
     1.0000   1.0000   1.0000   1.0000   1.0000   1.0000   1.0000   1.0000
     1.0000   1.0000   1.0000   1.0000   1.0000   1.0000   1.0000   1.0000
     1.0000   1.0000   1.0000   1.0000   1.0000   1.0000   1.0000   1.0000
     1.0000   1.0000   1.0000   1.0000   1.0000   1.0000   1.0000   1.0000
     1.0000   1.0000

          k =-0.0169 0.0643-0.1078 ( 36558 PWs)   bands (ev):

   -16.0229 -15.9601 -15.2756 -15.0589 -13.9295 -13.8269 -12.3512 -12.3250
   -11.3094 -11.2666  -8.9197  -8.8879  -8.1716  -8.1300  -6.3378  -6.2914
    -5.2940  -5.2736  -4.9565  -4.8135  -4.2623  -4.2255  -4.1012  -4.0009
    -3.9150  -3.8434  -2.7682  -2.6430  -2.5661  -2.4740  -2.3345  -2.2601
    -1.2770  -1.1251  -1.0836  -0.9965  -0.9059  -0.8361  -0.1583  -0.0726
     0.6380   0.8424

     occupation numbers 
     1.0000   1.0000   1.0000   1.0000   1.0000   1.0000   1.0000   1.0000
     1.0000   1.0000   1.0000   1.0000   1.0000   1.0000   1.0000   1.0000
     1.0000   1.0000   1.0000   1.0000   1.0000   1.0000   1.0000   1.0000
     1.0000   1.0000   1.0000   1.0000   1.0000   1.0000   1.0000   1.0000
     1.0000   1.0000   1.0000   1.0000   1.0000   1.0000   1.0000   1.0000
     1.0000   1.0000

          k =-0.0169 0.0643 0.0936 ( 36547 PWs)   bands (ev):

   -16.0189 -15.9637 -15.2729 -15.0617 -13.9242 -13.8361 -12.3446 -12.3309
   -11.3037 -11.2687  -8.9154  -8.8850  -8.1645  -8.1311  -6.3570  -6.3008
    -5.2994  -5.2669  -4.9095  -4.8227  -4.2818  -4.2074  -4.1056  -4.0633
    -3.9030  -3.7992  -2.8193  -2.6409  -2.5830  -2.5375  -2.2844  -2.2348
    -1.2472  -1.1487  -1.0586  -1.0216  -0.8881  -0.8364  -0.1108  -0.0993
     0.6475   0.8405

     occupation numbers 
     1.0000   1.0000   1.0000   1.0000   1.0000   1.0000   1.0000   1.0000
     1.0000   1.0000   1.0000   1.0000   1.0000   1.0000   1.0000   1.0000
     1.0000   1.0000   1.0000   1.0000   1.0000   1.0000   1.0000   1.0000
     1.0000   1.0000   1.0000   1.0000   1.0000   1.0000   1.0000   1.0000
     1.0000   1.0000   1.0000   1.0000   1.0000   1.0000   1.0000   1.0000
     1.0000   1.0000

          k =-0.0169 0.0643 0.0265 ( 36489 PWs)   bands (ev):

   -16.1064 -16.0243 -15.3222 -15.1151 -13.9628 -13.8657 -12.3820 -12.3746
   -11.2797 -11.2458  -8.8968  -8.8475  -8.1526  -8.0777  -6.3975  -6.2999
    -5.2787  -5.2396  -5.0074  -4.8836  -4.3320  -4.2182  -4.1075  -3.9991
    -3.2477  -3.2064  -2.6515  -2.5015  -2.4287  -2.3874  -2.1178  -2.0516
    -1.0703  -1.0139  -0.9279  -0.8614  -0.8465  -0.7568   0.0225   0.0929
     0.5840   0.7466

     occupation numbers 
     1.0000   1.0000   1.0000   1.0000   1.0000   1.0000   1.0000   1.0000
     1.0000   1.0000   1.0000   1.0000   1.0000   1.0000   1.0000   1.0000
     1.0000   1.0000   1.0000   1.0000   1.0000   1.0000   1.0000   1.0000
     1.0000   1.0000   1.0000   1.0000   1.0000   1.0000   1.0000   1.0000
     1.0000   1.0000   1.0000   1.0000   1.0000   1.0000   1.0000   1.0000
     1.0000   1.0000

     highest occupied level (ev):     0.8436

!    total energy              =    -548.04483661 Ry
     Harris-Foulkes estimate   =    -548.04483665 Ry
     estimated scf accuracy    <       0.00000005 Ry

     total all-electron energy =     -4615.888324 Ry

     The total energy is the sum of the following terms:

     one-electron contribution =    -153.27686123 Ry
     hartree contribution      =     107.99973017 Ry
     xc contribution           =    -104.17919444 Ry
     ewald contribution        =    -142.80730020 Ry
     one-center paw contrib.   =    -255.78121091 Ry
      -> PAW hartree energy AE =      18.84690469 Ry
      -> PAW hartree energy PS =     -18.74272444 Ry
      -> PAW xc energy AE      =     -55.59651308 Ry
      -> PAW xc energy PS      =      10.05171638 Ry
      -> total E_H with PAW    =     108.10391041 Ry
      -> total E_XC with PAW   =    -149.72399115 Ry

     convergence has been achieved in  11 iterations
 writing file ./scratch/scf-164.save/charge-density
 writing file ./scratch/scf-164.save/charge-density
 writing file ./scratch/scf-164.save/charge-density
 writing file ./scratch/scf-164.save/charge-density
 writing file ./scratch/scf-164.save/charge-density
 writing file ./scratch/scf-164.save/charge-density
 writing file ./scratch/scf-164.save/charge-density
 writing file ./scratch/scf-164.save/charge-density
 writing file ./scratch/scf-164.save/charge-density
 writing file ./scratch/scf-164.save/charge-density
 writing file ./scratch/scf-164.save/charge-density
 writing file ./scratch/scf-164.save/charge-density
 writing file ./scratch/scf-164.save/charge-density
 writing file ./scratch/scf-164.save/charge-density
 writing file ./scratch/scf-164.save/charge-density
 writing file ./scratch/scf-164.save/charge-density
 writing file ./scratch/scf-164.save/charge-density
 writing file ./scratch/scf-164.save/charge-density
 writing file ./scratch/scf-164.save/charge-density
 writing file ./scratch/scf-164.save/charge-density
 writing file ./scratch/scf-164.save/charge-density
 writing file ./scratch/scf-164.save/charge-density
 writing file ./scratch/scf-164.save/charge-density
 writing file ./scratch/scf-164.save/charge-density
 writing file ./scratch/scf-164.save/charge-density
 writing file ./scratch/scf-164.save/charge-density
 writing file ./scratch/scf-164.save/charge-density
 writing file ./scratch/scf-164.save/charge-density
 writing file ./scratch/scf-164.save/charge-density
 writing file ./scratch/scf-164.save/charge-density
 writing file ./scratch/scf-164.save/charge-density
 writing file ./scratch/scf-164.save/charge-density

     Forces acting on atoms (cartesian axes, Ry/au):

     atom    1 type  2   force =    -0.05578835    0.04605000   -0.00639122
     atom    2 type  1   force =     0.02643486   -0.02944860    0.01290507
     atom    3 type  1   force =     0.00912480   -0.02487789    0.01990152
     atom    4 type  3   force =    -0.00254850    0.00304521   -0.00267356
     atom    5 type  1   force =    -0.00442257    0.01673267   -0.02358261
     atom    6 type  3   force =    -0.00031797   -0.00271317    0.00459260
     atom    7 type  3   force =     0.00009930    0.00035523    0.00058103
     atom    8 type  1   force =    -0.00499201   -0.00269435    0.00111578
     atom    9 type  3   force =     0.00346317   -0.00108003   -0.00006178
     atom   10 type  1   force =     0.01000027    0.00652330   -0.00210000
     atom   11 type  1   force =     0.00770422    0.01223362   -0.01378133
     atom   12 type  2   force =    -0.00482304   -0.01556850    0.01384429
     atom   13 type  3   force =    -0.00246193   -0.00629548    0.00664036
     atom   14 type  1   force =     0.01413964    0.00481977   -0.02003855
     atom   15 type  3   force =     0.00000516    0.00249933   -0.00600747
     atom   16 type  1   force =     0.01574481   -0.01803941    0.02643142
     atom   17 type  1   force =     0.01649013   -0.02791666   -0.03359356
     atom   18 type  2   force =    -0.02744215    0.03699880    0.01728424
     atom   19 type  3   force =     0.00054583    0.00029751   -0.00153680
     atom   20 type  1   force =    -0.00669346   -0.00340897   -0.00147533
     atom   21 type  3   force =     0.00047917   -0.00061858    0.00226793
     atom   22 type  1   force =     0.00982823    0.00751557    0.00317486
     atom   23 type  1   force =     0.00731266    0.02281072    0.00340907
     atom   24 type  2   force =    -0.01188228   -0.02722009   -0.00090596
     The non-local contrib.  to forces
     atom    1 type  2   force =    -0.30512256    0.24983544   -0.00427133
     atom    2 type  1   force =     0.42320875   -0.32617612   -0.02365163
     atom    3 type  1   force =    -0.05037670   -0.07545347   -0.02720436
     atom    4 type  3   force =    -0.06925930   -0.02123575   -0.03137554
     atom    5 type  1   force =    -0.04587451   -0.04007642   -0.06939484
     atom    6 type  3   force =    -0.00643038   -0.06773129   -0.03947375
     atom    7 type  3   force =     0.00339755   -0.06813379    0.03903158
     atom    8 type  1   force =     0.03499856   -0.04016247    0.02971381
     atom    9 type  3   force =     0.06520928   -0.02112311    0.03922223
     atom   10 type  1   force =     0.05806027   -0.03195437    0.04926470
     atom   11 type  1   force =    -0.37932849   -0.29911127   -0.03912884
     atom   12 type  2   force =     0.31801039    0.23490706    0.05551949
     atom   13 type  3   force =     0.00400122    0.06306728    0.04673109
     atom   14 type  1   force =     0.06943669    0.05364346   -0.00091638
     atom   15 type  3   force =     0.06970524    0.02288141    0.02974217
     atom   16 type  1   force =     0.05615718   -0.00814266    0.07641113
     atom   17 type  1   force =    -0.39657114    0.25403008    0.01736353
     atom   18 type  2   force =     0.34038071   -0.19184612   -0.00004442
     atom   19 type  3   force =    -0.00343347    0.06789194   -0.03925885
     atom   20 type  1   force =    -0.04155702    0.04895508   -0.03536227
     atom   21 type  3   force =    -0.06499347    0.02059164   -0.03899258
     atom   22 type  1   force =    -0.01835377    0.04847841   -0.04225688
     atom   23 type  1   force =     0.38995170    0.32975724    0.02389795
     atom   24 type  2   force =    -0.28805851   -0.27556089   -0.01659116
     The ionic contribution  to forces
     atom    1 type  2   force =     3.64401073   -3.21552779    0.08915384
     atom    2 type  1   force =     2.10567938   -1.94093095   -0.52897508
     atom    3 type  1   force =     3.72641027    2.06988872    1.31638969
     atom    4 type  3   force =     1.95646650    0.71588579    0.87893684
     atom    5 type  1   force =     0.22510653    4.00681522    2.29124322
     atom    6 type  3   force =     0.12473935    2.01164369    1.08669580
     atom    7 type  3   force =    -0.05222387    1.96219718   -1.17556314
     atom    8 type  1   force =    -0.06268984    4.02989776   -1.98116470
     atom    9 type  3   force =    -1.78141566    0.76583277   -1.15442988
     atom   10 type  1   force =    -3.21909050    1.97244001   -2.13416697
     atom   11 type  1   force =    -1.33837449   -1.58863277    0.37631110
     atom   12 type  2   force =    -4.29324371   -4.03853510   -0.34154865
     atom   13 type  3   force =    -0.60412504   -1.92918442   -1.45906955
     atom   14 type  1   force =    -2.12703772   -4.55899667   -2.40065441
     atom   15 type  3   force =    -2.34450579   -0.94331370   -1.09373055
     atom   16 type  1   force =    -5.13138831   -2.06018531   -2.92223569
     atom   17 type  1   force =    -2.92460477    1.48800309   -0.03657774
     atom   18 type  2   force =    -7.75280965    4.69242235   -0.99166653
     atom   19 type  3   force =     0.45786004   -1.93047890    1.34756658
     atom   20 type  1   force =     1.84299223   -4.02786690    2.76567574
     atom   21 type  3   force =     2.23427199   -0.69630848    1.35139909
     atom   22 type  1   force =     5.21209114   -1.79747081    2.94187708
     atom   23 type  1   force =     3.62090349    1.46072059    0.60568333
     atom   24 type  2   force =     6.48097770    3.55168463    1.16885058
     The local contribution  to forces
     atom    1 type  2   force =    -3.40962724    3.02397806   -0.09176180
     atom    2 type  1   force =    -2.49075584    2.22881304    0.56424058
     atom    3 type  1   force =    -3.66592181   -2.01937562   -1.26954559
     atom    4 type  3   force =    -1.88975172   -0.69160644   -0.85023389
     atom    5 type  1   force =    -0.18431665   -3.94919053   -2.24478822
     atom    6 type  3   force =    -0.11864563   -1.94661940   -1.04263608
     atom    7 type  3   force =     0.04891224   -1.89371142    1.13710946
     atom    8 type  1   force =     0.02292542   -3.99116068    1.95179480
     atom    9 type  3   force =     1.71967820   -0.74578933    1.11514898
     atom   10 type  1   force =     3.17017097   -1.93361552    2.08250729
     atom   11 type  1   force =     1.71572369    1.89238266   -0.35140542
     atom   12 type  2   force =     3.98283979    3.79695766    0.30252670
     atom   13 type  3   force =     0.59765797    1.85984550    1.41898940
     atom   14 type  1   force =     2.07237757    4.50891864    2.38085498
     atom   15 type  3   force =     2.27483594    0.92293473    1.05799205
     atom   16 type  1   force =     5.09029499    2.04977413    2.87206467
     atom   17 type  1   force =     3.32803068   -1.76381071   -0.01307968
     atom   18 type  2   force =     7.39757457   -4.47017687    1.00952396
     atom   19 type  3   force =    -0.45387905    1.86287031   -1.30984039
     atom   20 type  1   force =    -1.80862344    3.97435637   -2.73119189
     atom   21 type  3   force =    -2.16877560    0.67509234   -1.31012714
     atom   22 type  1   force =    -5.18238858    1.75649654   -2.89601740
     atom   23 type  1   force =    -3.99287953   -1.75923552   -0.62578022
     atom   24 type  2   force =    -6.21684727   -3.31561057   -1.15381559
     The core correction contribution to forces
     atom    1 type  2   force =     0.01471996   -0.01218789    0.00042008
     atom    2 type  1   force =    -0.01182810    0.00875741    0.00120161
     atom    3 type  1   force =    -0.00105384    0.00001058    0.00021239
     atom    4 type  3   force =     0.00000000    0.00000000    0.00000000
     atom    5 type  1   force =     0.00055052   -0.00080404   -0.00066454
     atom    6 type  3   force =     0.00000000    0.00000000    0.00000000
     atom    7 type  3   force =     0.00000000    0.00000000    0.00000000
     atom    8 type  1   force =    -0.00032664   -0.00122973    0.00072418
     atom    9 type  3   force =     0.00000000    0.00000000    0.00000000
     atom   10 type  1   force =     0.00080646   -0.00029541    0.00025231
     atom   11 type  1   force =     0.00962612    0.00760301    0.00040056
     atom   12 type  2   force =    -0.01246038   -0.00897209   -0.00267452
     atom   13 type  3   force =     0.00000000    0.00000000    0.00000000
     atom   14 type  1   force =    -0.00069924    0.00128375    0.00066969
     atom   15 type  3   force =     0.00000000    0.00000000    0.00000000
     atom   16 type  1   force =     0.00071465    0.00046131    0.00017711
     atom   17 type  1   force =     0.00959998   -0.00622136   -0.00134677
     atom   18 type  2   force =    -0.01248125    0.00649953   -0.00054798
     atom   19 type  3   force =     0.00000000    0.00000000    0.00000000
     atom   20 type  1   force =     0.00049190    0.00108140   -0.00057938
     atom   21 type  3   force =     0.00000000    0.00000000    0.00000000
     atom   22 type  1   force =    -0.00143009   -0.00001901   -0.00037979
     atom   23 type  1   force =    -0.01062992   -0.00839760   -0.00038321
     atom   24 type  2   force =     0.01224699    0.01230075    0.00074669
     The Hubbard contrib.    to forces
     atom    1 type  2   force =     0.00000000    0.00000000    0.00000000
     atom    2 type  1   force =     0.00000000    0.00000000    0.00000000
     atom    3 type  1   force =     0.00000000    0.00000000    0.00000000
     atom    4 type  3   force =     0.00000000    0.00000000    0.00000000
     atom    5 type  1   force =     0.00000000    0.00000000    0.00000000
     atom    6 type  3   force =     0.00000000    0.00000000    0.00000000
     atom    7 type  3   force =     0.00000000    0.00000000    0.00000000
     atom    8 type  1   force =     0.00000000    0.00000000    0.00000000
     atom    9 type  3   force =     0.00000000    0.00000000    0.00000000
     atom   10 type  1   force =     0.00000000    0.00000000    0.00000000
     atom   11 type  1   force =     0.00000000    0.00000000    0.00000000
     atom   12 type  2   force =     0.00000000    0.00000000    0.00000000
     atom   13 type  3   force =     0.00000000    0.00000000    0.00000000
     atom   14 type  1   force =     0.00000000    0.00000000    0.00000000
     atom   15 type  3   force =     0.00000000    0.00000000    0.00000000
     atom   16 type  1   force =     0.00000000    0.00000000    0.00000000
     atom   17 type  1   force =     0.00000000    0.00000000    0.00000000
     atom   18 type  2   force =     0.00000000    0.00000000    0.00000000
     atom   19 type  3   force =     0.00000000    0.00000000    0.00000000
     atom   20 type  1   force =     0.00000000    0.00000000    0.00000000
     atom   21 type  3   force =     0.00000000    0.00000000    0.00000000
     atom   22 type  1   force =     0.00000000    0.00000000    0.00000000
     atom   23 type  1   force =     0.00000000    0.00000000    0.00000000
     atom   24 type  2   force =     0.00000000    0.00000000    0.00000000
     The SCF correction term to forces
     atom    1 type  2   force =     0.00022915   -0.00004974    0.00006715
     atom    2 type  1   force =     0.00012908    0.00008610    0.00008875
     atom    3 type  1   force =     0.00006528    0.00004999    0.00004854
     atom    4 type  3   force =    -0.00000556   -0.00000032   -0.00000181
     atom    5 type  1   force =     0.00010994   -0.00001347    0.00002094
     atom    6 type  3   force =     0.00001710   -0.00000808    0.00000579
     atom    7 type  3   force =     0.00001178    0.00000134    0.00000228
     atom    8 type  1   force =     0.00009890   -0.00004114    0.00004686
     atom    9 type  3   force =    -0.00001024   -0.00000228   -0.00000395
     atom   10 type  1   force =     0.00005148   -0.00005332    0.00004182
     atom   11 type  1   force =     0.00005579   -0.00000992    0.00004042
     atom   12 type  2   force =     0.00002928    0.00007206    0.00002043
     atom   13 type  3   force =     0.00000233   -0.00002576   -0.00001143
     atom   14 type  1   force =     0.00006075   -0.00003132    0.00000672
     atom   15 type  3   force =    -0.00003182   -0.00000502   -0.00001198
     atom   16 type  1   force =    -0.00003529    0.00005121    0.00001336
     atom   17 type  1   force =     0.00003377    0.00008033    0.00004626
     atom   18 type  2   force =    -0.00010813    0.00009799    0.00001838
     atom   19 type  3   force =    -0.00000330    0.00001225   -0.00000499
     atom   20 type  1   force =     0.00000128    0.00006317   -0.00001837
     atom   21 type  3   force =    -0.00002534    0.00000400   -0.00001228
     atom   22 type  1   force =    -0.00009207    0.00002854   -0.00004900
     atom   23 type  1   force =    -0.00003467   -0.00003591   -0.00000963
     atom   24 type  2   force =    -0.00020279   -0.00003593   -0.00009732

     Total force =     0.135610     Total SCF correction =     0.000510

     Writing output data file scf-164.save
 writing file ./scratch/scf-164.save/charge-density
 writing file ./scratch/scf-164.save/charge-density
 writing file ./scratch/scf-164.save/charge-density
 writing file ./scratch/scf-164.save/charge-density
 writing file ./scratch/scf-164.save/charge-density
 writing file ./scratch/scf-164.save/charge-density
 writing file ./scratch/scf-164.save/charge-density
 writing file ./scratch/scf-164.save/charge-density
 writing file ./scratch/scf-164.save/charge-density
 writing file ./scratch/scf-164.save/charge-density
 writing file ./scratch/scf-164.save/charge-density
 writing file ./scratch/scf-164.save/charge-density
 writing file ./scratch/scf-164.save/charge-density
 writing file ./scratch/scf-164.save/charge-density
 writing file ./scratch/scf-164.save/charge-density
 writing file ./scratch/scf-164.save/charge-density
 writing file ./scratch/scf-164.save/charge-density
 writing file ./scratch/scf-164.save/charge-density
 writing file ./scratch/scf-164.save/charge-density
 writing file ./scratch/scf-164.save/charge-density
 writing file ./scratch/scf-164.save/charge-density
 writing file ./scratch/scf-164.save/charge-density
 writing file ./scratch/scf-164.save/charge-density
 writing file ./scratch/scf-164.save/charge-density
 writing file ./scratch/scf-164.save/charge-density
 writing file ./scratch/scf-164.save/charge-density
 writing file ./scratch/scf-164.save/charge-density
 writing file ./scratch/scf-164.save/charge-density
 writing file ./scratch/scf-164.save/charge-density
 writing file ./scratch/scf-164.save/charge-density
 writing file ./scratch/scf-164.save/charge-density
 writing file ./scratch/scf-164.save/charge-density
 
     init_run     :      4.37s CPU      4.61s WALL (       1 calls)
     electrons    :     50.14s CPU     53.02s WALL (       1 calls)
     forces       :      2.32s CPU      2.47s WALL (       1 calls)

     Called by init_run:
     wfcinit      :      1.61s CPU      1.65s WALL (       1 calls)
     wfcinit:atom :      0.02s CPU      0.02s WALL (      16 calls)
     wfcinit:wfcr :      1.50s CPU      1.52s WALL (      16 calls)
     potinit      :      0.88s CPU      0.91s WALL (       1 calls)

     Called by electrons:
     c_bands      :     39.12s CPU     39.48s WALL (      11 calls)
     sum_band     :      6.90s CPU      8.10s WALL (      11 calls)
     v_of_rho     :      0.91s CPU      0.96s WALL (      12 calls)
     v_h          :      0.05s CPU      0.06s WALL (      12 calls)
     v_xc         :      0.93s CPU      0.98s WALL (      13 calls)
     newd         :      1.54s CPU      2.85s WALL (      12 calls)
     PAW_pot      :      1.65s CPU      1.70s WALL (      12 calls)
     mix_rho      :      0.15s CPU      0.14s WALL (      11 calls)

     Called by c_bands:
     init_us_2    :      0.78s CPU      0.86s WALL (     384 calls)
     cegterg      :     36.79s CPU     37.04s WALL (     176 calls)

     Called by sum_band:
     sum_band:bec :      0.01s CPU      0.02s WALL (     176 calls)
     addusdens    :      1.52s CPU      2.67s WALL (      11 calls)

     Called by *egterg:
     h_psi        :     27.52s CPU     27.69s WALL (     863 calls)
     s_psi        :      2.03s CPU      1.96s WALL (     863 calls)
     g_psi        :      0.18s CPU      0.16s WALL (     671 calls)
     cdiaghg      :      3.56s CPU      3.41s WALL (     847 calls)
     cegterg:over :      1.59s CPU      1.69s WALL (     671 calls)
     cegterg:upda :      1.22s CPU      1.26s WALL (     671 calls)
     cegterg:last :      0.38s CPU      0.44s WALL (     192 calls)

     Called by h_psi:
     h_psi:pot    :     27.29s CPU     27.43s WALL (     863 calls)
     h_psi:calbec :      2.28s CPU      2.24s WALL (     863 calls)
     vloc_psi     :     23.04s CPU     23.27s WALL (     863 calls)
     add_vuspsi   :      1.96s CPU      1.91s WALL (     863 calls)

     General routines
     calbec       :      3.01s CPU      2.98s WALL (    1103 calls)
     fft          :      0.75s CPU      0.81s WALL (     199 calls)
     ffts         :      0.04s CPU      0.03s WALL (      23 calls)
     fftw         :     22.00s CPU     22.41s WALL (   55638 calls)
     interpolate  :      0.16s CPU      0.15s WALL (      23 calls)
     davcio       :      0.00s CPU      0.01s WALL (      16 calls)
 
     Parallel routines
     fft_scatter  :      8.40s CPU      8.74s WALL (   55860 calls)

     PAW routines
     PAW_pot      :      1.65s CPU      1.70s WALL (      12 calls)
 
     PWSCF        :  0m57.52s CPU     1m 1.39s WALL

 
   This run was terminated on:  10:32:37  20May2017            

=------------------------------------------------------------------------------=
   JOB DONE.
=------------------------------------------------------------------------------=
