
     Program PWSCF v.6.1 starts on 20May2017 at 10:40:21 

     This program is part of the open-source Quantum ESPRESSO suite
     for quantum simulation of materials; please cite
         "P. Giannozzi et al., J. Phys.:Condens. Matter 21 395502 (2009);
          URL http://www.quantum-espresso.org", 
     in publications or presentations arising from this work. More details at
     http://www.quantum-espresso.org/quote

     Parallel version (MPI & OpenMP), running on      32 processor cores
     Number of MPI processes:                32
     Threads/MPI process:                     1
     R & G space division:  proc/nbgrp/npool/nimage =      32
     Waiting for input...
     Reading input from standard input
Warning: card &IONS ignored
Warning: card     ION_TEMPERATURE   = 'INITIAL' ignored
Warning: card     TEMPW             = 586.D0 ignored
Warning: card     TOLP              = 100.D0 ignored
Warning: card     DELTA_T           = 1.D0 ignored
Warning: card     NRAISE            = 1 ignored
Warning: card / ignored
Warning: card &CELL ignored
Warning: card     CELL_DYNAMICS     = 'BFGS' ignored
Warning: card / ignored

     Current dimensions of program PWSCF are:
     Max number of different atomic species (ntypx) = 10
     Max number of k-points (npk) =  40000
     Max angular momentum in pseudopotentials (lmaxx) =  3
               file C.pbe-n-kjpaw_psl.1.0.0.UPF: wavefunction(s)  2S 2P renormalized
               file Cl.pbe-n-kjpaw_psl.1.0.0.UPF: wavefunction(s)  3S 3P renormalized
               file H.pbe-kjpaw_psl.1.0.0.UPF: wavefunction(s)  1S renormalized

     Subspace diagonalization in iterative solution of the eigenvalue problem:
     a serial algorithm will be used

 
     Parallelization info
     --------------------
     sticks:   dense  smooth     PW     G-vecs:    dense   smooth      PW
     Min         764     305     83                36108     9133    1292
     Max         765     306     84                36110     9135    1293
     Sum       24467    9791   2657              1155489   292295   41363
 


     bravais-lattice index     =            0
     lattice parameter (alat)  =       1.8897  a.u.
     unit-cell volume          =    2163.5316 (a.u.)^3
     number of atoms/cell      =           24
     number of atomic types    =            3
     number of electrons       =        84.00
     number of Kohn-Sham states=           42
     kinetic-energy cutoff     =     100.0000  Ry
     charge density cutoff     =    1000.0000  Ry
     convergence threshold     =      1.0E-07
     mixing beta               =       0.7000
     number of iterations used =            8  plain     mixing
     Exchange-correlation      =  SLA  PW   PBX  PBC ( 1  4  3  4 0 0)

     celldm(1)=   1.889726  celldm(2)=   0.000000  celldm(3)=   0.000000
     celldm(4)=   0.000000  celldm(5)=   0.000000  celldm(6)=   0.000000

     crystal axes: (cart. coord. in units of alat)
               a(1) = (  14.762000   0.000000   0.000000 )  
               a(2) = (   0.000000   5.832000   0.000000 )  
               a(3) = (  -1.563876   0.000000   3.723951 )  

     reciprocal axes: (cart. coord. in units 2 pi/alat)
               b(1) = (  0.067741  0.000000  0.028448 )  
               b(2) = (  0.000000  0.171468  0.000000 )  
               b(3) = (  0.000000  0.000000  0.268532 )  


     PseudoPot. # 1 for  C read from file:
     /global/cscratch1/sd/almno10/.data/PSEUDOPOTENTIALS/C.pbe-n-kjpaw_psl.1.0.0.UPF
     MD5 check sum: 2ba8448e293caca687844dde9a1b88a8
     Pseudo is Projector augmented-wave + core cor, Zval =  4.0
     Generated using "atomic" code by A. Dal Corso  v.5.3.0 svn rev. 11974
     Shape of augmentation charge: PSQ
     Using radial grid of 1073 points,  4 beta functions with: 
                l(1) =   0
                l(2) =   0
                l(3) =   1
                l(4) =   1
     Q(r) pseudized with 0 coefficients 


     PseudoPot. # 2 for Cl read from file:
     /global/cscratch1/sd/almno10/.data/PSEUDOPOTENTIALS/Cl.pbe-n-kjpaw_psl.1.0.0.UPF
     MD5 check sum: dca63699d6b897c5771335df08a09219
     Pseudo is Projector augmented-wave + core cor, Zval =  7.0
     Generated using "atomic" code by A. Dal Corso  v.5.3.0 svn rev. 11974
     Shape of augmentation charge: PSQ
     Using radial grid of 1157 points,  6 beta functions with: 
                l(1) =   0
                l(2) =   0
                l(3) =   1
                l(4) =   1
                l(5) =   2
                l(6) =   2
     Q(r) pseudized with 0 coefficients 


     PseudoPot. # 3 for  H read from file:
     /global/cscratch1/sd/almno10/.data/PSEUDOPOTENTIALS/H.pbe-kjpaw_psl.1.0.0.UPF
     MD5 check sum: bc0feb48a24907a0b97fa6ee2d589a29
     Pseudo is Projector augmented-wave, Zval =  1.0
     Generated using "atomic" code by A. Dal Corso  v.5.3.0 svn rev. 11974
     Shape of augmentation charge: PSQ
     Using radial grid of  929 points,  2 beta functions with: 
                l(1) =   0
                l(2) =   0
     Q(r) pseudized with 0 coefficients 


     atomic species   valence    mass     pseudopotential
        C              4.00    12.01100      C( 1.00)
        Cl             7.00    35.45270     Cl( 1.00)
        H              1.00     1.00790      H( 1.00)

     No symmetry found


                                    s                        frac. trans.

      isym =  1     identity                                     

 cryst.   s( 1) = (     1          0          0      )
                  (     0          1          0      )
                  (     0          0          1      )

 cart.    s( 1) = (  1.0000000  0.0000000 -0.0000000 )
                  (  0.0000000  1.0000000  0.0000000 )
                  (  0.0000000  0.0000000  1.0000000 )


   Cartesian axes

     site n.     atom                  positions (alat units)
         1           Cl  tau(   1) = (  16.6222891   1.0370715   1.5982043  )
         2           C   tau(   2) = (  15.1414459   2.0949627   1.7773846  )
         3           C   tau(   3) = (  15.3021458   3.3948566   2.2548083  )
         4           H   tau(   4) = (  16.2546141   3.7504093   2.6460098  )
         5           C   tau(   5) = (  14.1464435   4.1532589   2.4377990  )
         6           H   tau(   6) = (  14.2205365   5.1724300   2.8143327  )
         7           H   tau(   7) = (   6.2718791   2.2515525   0.6781186  )
         8           C   tau(   8) = (   6.3479158   1.3082975   1.2160130  )
         9           H   tau(   9) = (   4.3968536   0.6254561   0.6014675  )
        10           C   tau(  10) = (   5.3160476   0.3742601   1.1293337  )
        11           C   tau(  11) = (   5.4176544  -0.8369462   1.8128665  )
        12           Cl  tau(  12) = (   4.1373313  -1.9369323   1.7120494  )
        13           H   tau(  13) = (  13.8385498   0.6612071   0.8479582  )
        14           C   tau(  14) = (  13.9056925   1.6404205   1.3168461  )
        15           H   tau(  15) = (  11.8284326   2.1111039   0.9851474  )
        16           C   tau(  16) = (  12.7862450   2.4728373   1.3508771  )
        17           C   tau(  17) = (  12.9168586   3.7112847   1.9494553  )
        18           Cl  tau(  18) = (  11.6071868   4.6578709   2.3535228  )
        19           H   tau(  19) = (   6.6396071  -2.1082850   3.0751660  )
        20           C   tau(  20) = (   6.5737139  -1.1768670   2.5156147  )
        21           H   tau(  21) = (   8.5111198  -0.4809148   3.1500353  )
        22           C   tau(  22) = (   7.6017065  -0.2407510   2.6031796  )
        23           C   tau(  23) = (   7.5128980   0.9543998   1.8922740  )
        24           Cl  tau(  24) = (   8.9729514   1.9449860   1.8164618  )

   Crystallographic axes

     site n.     atom                  positions (cryst. coord.)
         1           Cl  tau(   1) = (  1.1714846  0.1778243  0.4291690  )
         2           C   tau(   2) = (  1.0762674  0.3592186  0.4772846  )
         3           C   tau(   3) = (  1.1007353  0.5821085  0.6054881  )
         4           H   tau(   4) = (  1.1763858  0.6430743  0.7105382  )
         5           C   tau(   5) = (  1.0276520  0.7121500  0.6546270  )
         6           H   tau(   6) = (  1.0433828  0.8869050  0.7557383  )
         7           H   tau(   7) = (  0.4441577  0.3860687  0.1820965  )
         8           C   tau(   8) = (  0.4646106  0.2243309  0.3265384  )
         9           H   tau(   9) = (  0.3149600  0.1072456  0.1615133  )
        10           C   tau(  10) = (  0.3922444  0.0641735  0.3032622  )
        11           C   tau(  11) = (  0.4185726 -0.1435093  0.4868126  )
        12           Cl  tau(  12) = (  0.3289735 -0.3321215  0.4597400  )
        13           H   tau(  13) = (  0.9615669  0.1133757  0.2277039  )
        14           C   tau(  14) = (  0.9794542  0.2812792  0.3536153  )
        15           H   tau(  15) = (  0.8293013  0.3619863  0.2645436  )
        16           C   tau(  16) = (  0.9045893  0.4240119  0.3627537  )
        17           C   tau(  17) = (  0.9304656  0.6363657  0.5234911  )
        18           Cl  tau(  18) = (  0.8532414  0.7986747  0.6319961  )
        19           H   tau(  19) = (  0.5372595 -0.3615029  0.8257804  )
        20           C   tau(  20) = (  0.5168776 -0.2017947  0.6755230  )
        21           H   tau(  21) = (  0.6661685 -0.0824614  0.8458852  )
        22           C   tau(  22) = (  0.5890065 -0.0412810  0.6990369  )
        23           C   tau(  23) = (  0.5627665  0.1636488  0.5081361  )
        24           Cl  tau(  24) = (  0.6595160  0.3335024  0.4877781  )

     number of k points=    16
                       cart. coord. in units 2pi/alat
        k(    1) = (   0.0169354   0.0214335   0.0406785), wk =   0.1250000
        k(    2) = (   0.0169354   0.0214335   0.1078115), wk =   0.1250000
        k(    3) = (   0.0169354   0.0214335  -0.0935875), wk =   0.1250000
        k(    4) = (   0.0169354   0.0214335  -0.0264545), wk =   0.1250000
        k(    5) = (   0.0169354   0.0643004   0.0406785), wk =   0.1250000
        k(    6) = (   0.0169354   0.0643004   0.1078115), wk =   0.1250000
        k(    7) = (   0.0169354   0.0643004  -0.0935875), wk =   0.1250000
        k(    8) = (   0.0169354   0.0643004  -0.0264545), wk =   0.1250000
        k(    9) = (  -0.0169354   0.0214335  -0.0406785), wk =   0.1250000
        k(   10) = (  -0.0169354   0.0214335  -0.1078115), wk =   0.1250000
        k(   11) = (  -0.0169354   0.0214335   0.0935875), wk =   0.1250000
        k(   12) = (  -0.0169354   0.0214335   0.0264545), wk =   0.1250000
        k(   13) = (  -0.0169354   0.0643004  -0.0406785), wk =   0.1250000
        k(   14) = (  -0.0169354   0.0643004  -0.1078115), wk =   0.1250000
        k(   15) = (  -0.0169354   0.0643004   0.0935875), wk =   0.1250000
        k(   16) = (  -0.0169354   0.0643004   0.0264545), wk =   0.1250000

                       cryst. coord.
        k(    1) = (   0.2500000   0.1250000   0.1250000), wk =   0.1250000
        k(    2) = (   0.2500000   0.1250000   0.3750000), wk =   0.1250000
        k(    3) = (   0.2500000   0.1250000  -0.3750000), wk =   0.1250000
        k(    4) = (   0.2500000   0.1250000  -0.1250000), wk =   0.1250000
        k(    5) = (   0.2500000   0.3750000   0.1250000), wk =   0.1250000
        k(    6) = (   0.2500000   0.3750000   0.3750000), wk =   0.1250000
        k(    7) = (   0.2500000   0.3750000  -0.3750000), wk =   0.1250000
        k(    8) = (   0.2500000   0.3750000  -0.1250000), wk =   0.1250000
        k(    9) = (  -0.2500000   0.1250000  -0.1250000), wk =   0.1250000
        k(   10) = (  -0.2500000   0.1250000  -0.3750000), wk =   0.1250000
        k(   11) = (  -0.2500000   0.1250000   0.3750000), wk =   0.1250000
        k(   12) = (  -0.2500000   0.1250000   0.1250000), wk =   0.1250000
        k(   13) = (  -0.2500000   0.3750000  -0.1250000), wk =   0.1250000
        k(   14) = (  -0.2500000   0.3750000  -0.3750000), wk =   0.1250000
        k(   15) = (  -0.2500000   0.3750000   0.3750000), wk =   0.1250000
        k(   16) = (  -0.2500000   0.3750000   0.1250000), wk =   0.1250000

     Dense  grid:  1155489 G-vectors     FFT dimensions: ( 288, 120,  80)

     Smooth grid:   292295 G-vectors     FFT dimensions: ( 180,  72,  50)

     Estimated max dynamical RAM per process >     147.21MB

     Estimated total allocated dynamical RAM >    4710.62MB

     Initial potential from superposition of free atoms

     starting charge   83.99939, renormalised to   84.00000
     Starting wfc are   72 randomized atomic wfcs
     Checking if some PAW data can be deallocated... 
       node    0, deallocated PAW data for type:  1
       node    0, deallocated PAW data for type:  3
       node    1, deallocated PAW data for type:  1
       node    1, deallocated PAW data for type:  3
       node    2, deallocated PAW data for type:  2
       node    2, deallocated PAW data for type:  3
       node    3, deallocated PAW data for type:  2
       node    3, deallocated PAW data for type:  3
       node    4, deallocated PAW data for type:  2
       node    4, deallocated PAW data for type:  3
       node    5, deallocated PAW data for type:  2
       node    5, deallocated PAW data for type:  3
       node    6, deallocated PAW data for type:  1
       node    6, deallocated PAW data for type:  2
       node    7, deallocated PAW data for type:  1
       node    7, deallocated PAW data for type:  2
       node    8, deallocated PAW data for type:  2
       node    8, deallocated PAW data for type:  3
       node    9, deallocated PAW data for type:  2
       node    9, deallocated PAW data for type:  3
       node   10, deallocated PAW data for type:  1
       node   10, deallocated PAW data for type:  2
       node   11, deallocated PAW data for type:  1
       node   11, deallocated PAW data for type:  2
       node   12, deallocated PAW data for type:  1
       node   12, deallocated PAW data for type:  2
       node   13, deallocated PAW data for type:  1
       node   13, deallocated PAW data for type:  2
       node   14, deallocated PAW data for type:  2
       node   14, deallocated PAW data for type:  3
       node   15, deallocated PAW data for type:  2
       node   15, deallocated PAW data for type:  3
       node   16, deallocated PAW data for type:  1
       node   16, deallocated PAW data for type:  2
       node   17, deallocated PAW data for type:  2
       node   17, deallocated PAW data for type:  3
       node   18, deallocated PAW data for type:  2
       node   18, deallocated PAW data for type:  3
       node   19, deallocated PAW data for type:  1
       node   19, deallocated PAW data for type:  3
       node   20, deallocated PAW data for type:  1
       node   20, deallocated PAW data for type:  2
       node   21, deallocated PAW data for type:  2
       node   21, deallocated PAW data for type:  3
       node   22, deallocated PAW data for type:  1
       node   22, deallocated PAW data for type:  2
       node   23, deallocated PAW data for type:  2
       node   23, deallocated PAW data for type:  3
       node   24, deallocated PAW data for type:  2
       node   24, deallocated PAW data for type:  3
       node   25, deallocated PAW data for type:  1
       node   25, deallocated PAW data for type:  3
       node   26, deallocated PAW data for type:  1
       node   26, deallocated PAW data for type:  2
       node   27, deallocated PAW data for type:  2
       node   27, deallocated PAW data for type:  3
       node   28, deallocated PAW data for type:  1
       node   28, deallocated PAW data for type:  2
       node   29, deallocated PAW data for type:  2
       node   29, deallocated PAW data for type:  3
       node   30, deallocated PAW data for type:  2
       node   30, deallocated PAW data for type:  3
       node   31, deallocated PAW data for type:  1
       node   31, deallocated PAW data for type:  3

     total cpu time spent up to now is        5.3 secs

     per-process dynamical memory:    20.7 Mb

     Self-consistent Calculation

     iteration #  1     ecut=   100.00 Ry     beta= 0.70
     Davidson diagonalization with overlap
     ethr =  1.00E-04,  avg # of iterations =  5.0

     total cpu time spent up to now is       11.9 secs

     total energy              =    -547.10938506 Ry
     Harris-Foulkes estimate   =    -548.99674807 Ry
     estimated scf accuracy    <       2.75642528 Ry

     iteration #  2     ecut=   100.00 Ry     beta= 0.70
     Davidson diagonalization with overlap
     ethr =  3.28E-03,  avg # of iterations =  3.0

     total cpu time spent up to now is       16.7 secs

     total energy              =    -547.52306638 Ry
     Harris-Foulkes estimate   =    -548.60626296 Ry
     estimated scf accuracy    <       1.95525224 Ry

     iteration #  3     ecut=   100.00 Ry     beta= 0.70
     Davidson diagonalization with overlap
     ethr =  2.33E-03,  avg # of iterations =  3.0

     total cpu time spent up to now is       21.1 secs

     total energy              =    -548.00874714 Ry
     Harris-Foulkes estimate   =    -548.04823854 Ry
     estimated scf accuracy    <       0.07972161 Ry

     iteration #  4     ecut=   100.00 Ry     beta= 0.70
     Davidson diagonalization with overlap
     ethr =  9.49E-05,  avg # of iterations =  4.0

     total cpu time spent up to now is       25.8 secs

     total energy              =    -548.03495690 Ry
     Harris-Foulkes estimate   =    -548.04506927 Ry
     estimated scf accuracy    <       0.01996173 Ry

     iteration #  5     ecut=   100.00 Ry     beta= 0.70
     Davidson diagonalization with overlap
     ethr =  2.38E-05,  avg # of iterations =  3.0

     total cpu time spent up to now is       30.2 secs

     total energy              =    -548.03899689 Ry
     Harris-Foulkes estimate   =    -548.03962459 Ry
     estimated scf accuracy    <       0.00122226 Ry

     iteration #  6     ecut=   100.00 Ry     beta= 0.70
     Davidson diagonalization with overlap
     ethr =  1.46E-06,  avg # of iterations =  4.2

     total cpu time spent up to now is       34.9 secs

     total energy              =    -548.03924243 Ry
     Harris-Foulkes estimate   =    -548.03960042 Ry
     estimated scf accuracy    <       0.00081421 Ry

     iteration #  7     ecut=   100.00 Ry     beta= 0.70
     Davidson diagonalization with overlap
     ethr =  9.69E-07,  avg # of iterations =  4.0

     total cpu time spent up to now is       39.3 secs

     total energy              =    -548.03941772 Ry
     Harris-Foulkes estimate   =    -548.03947157 Ry
     estimated scf accuracy    <       0.00013911 Ry

     iteration #  8     ecut=   100.00 Ry     beta= 0.70
     Davidson diagonalization with overlap
     ethr =  1.66E-07,  avg # of iterations =  4.0

     total cpu time spent up to now is       43.6 secs

     total energy              =    -548.03944471 Ry
     Harris-Foulkes estimate   =    -548.03945421 Ry
     estimated scf accuracy    <       0.00002205 Ry

     iteration #  9     ecut=   100.00 Ry     beta= 0.70
     Davidson diagonalization with overlap
     ethr =  2.62E-08,  avg # of iterations =  4.0

     total cpu time spent up to now is       48.1 secs

     total energy              =    -548.03944969 Ry
     Harris-Foulkes estimate   =    -548.03945098 Ry
     estimated scf accuracy    <       0.00000303 Ry

     iteration # 10     ecut=   100.00 Ry     beta= 0.70
     Davidson diagonalization with overlap
     ethr =  3.61E-09,  avg # of iterations =  4.0

     total cpu time spent up to now is       52.6 secs

     total energy              =    -548.03945033 Ry
     Harris-Foulkes estimate   =    -548.03945047 Ry
     estimated scf accuracy    <       0.00000032 Ry

     iteration # 11     ecut=   100.00 Ry     beta= 0.70
     Davidson diagonalization with overlap
     ethr =  3.75E-10,  avg # of iterations =  4.0

     total cpu time spent up to now is       57.3 secs

     End of self-consistent calculation

          k = 0.0169 0.0214 0.0407 ( 36525 PWs)   bands (ev):

   -16.3608 -16.1790 -15.4381 -15.2539 -13.9239 -13.8931 -12.3507 -12.3004
   -11.2281 -11.1947  -9.0347  -8.9987  -8.2290  -8.1577  -6.4088  -6.2895
    -5.3583  -5.3339  -5.0458  -4.8238  -4.2688  -4.1038  -3.9615  -3.8707
    -3.2775  -3.2108  -2.7419  -2.6443  -2.4492  -2.2844  -2.1931  -2.1551
    -1.2190  -1.1071  -1.0569  -0.9483  -0.9215  -0.8101   0.0209   0.0953
     0.5200   0.7946

     occupation numbers 
     1.0000   1.0000   1.0000   1.0000   1.0000   1.0000   1.0000   1.0000
     1.0000   1.0000   1.0000   1.0000   1.0000   1.0000   1.0000   1.0000
     1.0000   1.0000   1.0000   1.0000   1.0000   1.0000   1.0000   1.0000
     1.0000   1.0000   1.0000   1.0000   1.0000   1.0000   1.0000   1.0000
     1.0000   1.0000   1.0000   1.0000   1.0000   1.0000   1.0000   1.0000
     1.0000   1.0000

          k = 0.0169 0.0214 0.1078 ( 36561 PWs)   bands (ev):

   -16.2722 -16.1145 -15.3844 -15.2066 -13.9133 -13.8855 -12.3106 -12.2844
   -11.2610 -11.1845  -8.9996  -8.9597  -8.1648  -8.1445  -6.4461  -6.3269
    -5.3549  -5.3230  -5.0580  -4.9142  -4.2945  -4.2134  -4.1019  -3.9933
    -3.8129  -3.6722  -2.8989  -2.7242  -2.6303  -2.4509  -2.3837  -2.2991
    -1.3075  -1.1558  -1.1013  -0.9696  -0.9111  -0.8163  -0.3138  -0.1874
     0.7186   0.8604

     occupation numbers 
     1.0000   1.0000   1.0000   1.0000   1.0000   1.0000   1.0000   1.0000
     1.0000   1.0000   1.0000   1.0000   1.0000   1.0000   1.0000   1.0000
     1.0000   1.0000   1.0000   1.0000   1.0000   1.0000   1.0000   1.0000
     1.0000   1.0000   1.0000   1.0000   1.0000   1.0000   1.0000   1.0000
     1.0000   1.0000   1.0000   1.0000   1.0000   1.0000   1.0000   1.0000
     1.0000   1.0000

          k = 0.0169 0.0214-0.0936 ( 36547 PWs)   bands (ev):

   -16.2758 -16.1111 -15.3869 -15.2029 -13.9127 -13.8848 -12.3048 -12.2907
   -11.2720 -11.1799  -9.0204  -8.9352  -8.2043  -8.1116  -6.4290  -6.3150
    -5.3534  -5.3160  -5.1116  -4.8512  -4.3050  -4.2254  -4.1156  -4.0250
    -3.7759  -3.6976  -2.8516  -2.6916  -2.6593  -2.4498  -2.3976  -2.3452
    -1.2421  -1.1425  -1.0939  -1.0207  -0.9319  -0.8004  -0.3639  -0.1497
     0.7115   0.8658

     occupation numbers 
     1.0000   1.0000   1.0000   1.0000   1.0000   1.0000   1.0000   1.0000
     1.0000   1.0000   1.0000   1.0000   1.0000   1.0000   1.0000   1.0000
     1.0000   1.0000   1.0000   1.0000   1.0000   1.0000   1.0000   1.0000
     1.0000   1.0000   1.0000   1.0000   1.0000   1.0000   1.0000   1.0000
     1.0000   1.0000   1.0000   1.0000   1.0000   1.0000   1.0000   1.0000
     1.0000   1.0000

          k = 0.0169 0.0214-0.0265 ( 36551 PWs)   bands (ev):

   -16.3642 -16.1756 -15.4405 -15.2507 -13.9294 -13.8858 -12.3463 -12.3062
   -11.2412 -11.1869  -9.0563  -8.9747  -8.2676  -8.1213  -6.4217  -6.2482
    -5.3626  -5.3286  -5.1106  -4.7450  -4.3084  -4.1174  -3.9414  -3.8502
    -3.2859  -3.2206  -2.8038  -2.6058  -2.4086  -2.3253  -2.1907  -2.1624
    -1.1728  -1.1236  -1.0377  -0.9891  -0.9252  -0.7876   0.0441   0.0535
     0.5287   0.7881

     occupation numbers 
     1.0000   1.0000   1.0000   1.0000   1.0000   1.0000   1.0000   1.0000
     1.0000   1.0000   1.0000   1.0000   1.0000   1.0000   1.0000   1.0000
     1.0000   1.0000   1.0000   1.0000   1.0000   1.0000   1.0000   1.0000
     1.0000   1.0000   1.0000   1.0000   1.0000   1.0000   1.0000   1.0000
     1.0000   1.0000   1.0000   1.0000   1.0000   1.0000   1.0000   1.0000
     1.0000   1.0000

          k = 0.0169 0.0643 0.0407 ( 36518 PWs)   bands (ev):

   -16.3384 -16.1441 -15.4497 -15.2556 -13.9656 -13.9250 -12.4164 -12.3483
   -11.2444 -11.2006  -8.9031  -8.8783  -8.1086  -8.0775  -6.3890  -6.3379
    -5.3195  -5.2814  -5.0796  -5.0060  -4.3449  -4.2540  -4.1426  -3.9457
    -3.3227  -3.2819  -2.6222  -2.5793  -2.4594  -2.3650  -2.1993  -2.0997
    -1.0566  -1.0250  -0.9345  -0.8966  -0.8555  -0.8224   0.0710   0.1681
     0.5582   0.8051

     occupation numbers 
     1.0000   1.0000   1.0000   1.0000   1.0000   1.0000   1.0000   1.0000
     1.0000   1.0000   1.0000   1.0000   1.0000   1.0000   1.0000   1.0000
     1.0000   1.0000   1.0000   1.0000   1.0000   1.0000   1.0000   1.0000
     1.0000   1.0000   1.0000   1.0000   1.0000   1.0000   1.0000   1.0000
     1.0000   1.0000   1.0000   1.0000   1.0000   1.0000   1.0000   1.0000
     1.0000   1.0000

          k = 0.0169 0.0643 0.1078 ( 36558 PWs)   bands (ev):

   -16.2581 -16.0875 -15.3925 -15.2003 -13.9320 -13.9118 -12.3605 -12.3164
   -11.2999 -11.2000  -8.9047  -8.8918  -8.1281  -8.1184  -6.3596  -6.3198
    -5.3178  -5.2981  -4.9946  -4.9324  -4.3363  -4.2589  -4.1492  -3.9975
    -3.9729  -3.8582  -2.7572  -2.6869  -2.6323  -2.5877  -2.3431  -2.2909
    -1.2459  -1.1359  -1.1165  -1.0252  -0.9093  -0.8278  -0.1218  -0.0520
     0.7232   0.8822

     occupation numbers 
     1.0000   1.0000   1.0000   1.0000   1.0000   1.0000   1.0000   1.0000
     1.0000   1.0000   1.0000   1.0000   1.0000   1.0000   1.0000   1.0000
     1.0000   1.0000   1.0000   1.0000   1.0000   1.0000   1.0000   1.0000
     1.0000   1.0000   1.0000   1.0000   1.0000   1.0000   1.0000   1.0000
     1.0000   1.0000   1.0000   1.0000   1.0000   1.0000   1.0000   1.0000
     1.0000   1.0000

          k = 0.0169 0.0643-0.0936 ( 36547 PWs)   bands (ev):

   -16.2616 -16.0842 -15.3946 -15.1969 -13.9389 -13.9035 -12.3555 -12.3219
   -11.3110 -11.1956  -8.9240  -8.8665  -8.1631  -8.0931  -6.3564  -6.2994
    -5.3130  -5.3000  -5.0069  -4.8784  -4.3625  -4.2735  -4.1721  -4.0430
    -3.9114  -3.8713  -2.8011  -2.7422  -2.6169  -2.5443  -2.3412  -2.2435
    -1.2349  -1.1489  -1.1077  -1.0370  -0.8880  -0.8440  -0.1745  -0.0203
     0.7240   0.8873

     occupation numbers 
     1.0000   1.0000   1.0000   1.0000   1.0000   1.0000   1.0000   1.0000
     1.0000   1.0000   1.0000   1.0000   1.0000   1.0000   1.0000   1.0000
     1.0000   1.0000   1.0000   1.0000   1.0000   1.0000   1.0000   1.0000
     1.0000   1.0000   1.0000   1.0000   1.0000   1.0000   1.0000   1.0000
     1.0000   1.0000   1.0000   1.0000   1.0000   1.0000   1.0000   1.0000
     1.0000   1.0000

          k = 0.0169 0.0643-0.0265 ( 36489 PWs)   bands (ev):

   -16.3417 -16.1409 -15.4518 -15.2526 -13.9725 -13.9169 -12.4113 -12.3535
   -11.2562 -11.1963  -8.9199  -8.8546  -8.1303  -8.0649  -6.3913  -6.3209
    -5.3043  -5.2895  -5.0772  -4.9640  -4.3398  -4.2575  -4.1795  -3.9955
    -3.3159  -3.2872  -2.6223  -2.5167  -2.4624  -2.4029  -2.1944  -2.0987
    -1.1158  -0.9881  -0.9713  -0.8781  -0.8438  -0.7906   0.1026   0.1282
     0.5595   0.7976

     occupation numbers 
     1.0000   1.0000   1.0000   1.0000   1.0000   1.0000   1.0000   1.0000
     1.0000   1.0000   1.0000   1.0000   1.0000   1.0000   1.0000   1.0000
     1.0000   1.0000   1.0000   1.0000   1.0000   1.0000   1.0000   1.0000
     1.0000   1.0000   1.0000   1.0000   1.0000   1.0000   1.0000   1.0000
     1.0000   1.0000   1.0000   1.0000   1.0000   1.0000   1.0000   1.0000
     1.0000   1.0000

          k =-0.0169 0.0214-0.0407 ( 36525 PWs)   bands (ev):

   -16.3639 -16.1760 -15.4401 -15.2508 -13.9306 -13.8849 -12.3465 -12.3054
   -11.2395 -11.1893  -9.0563  -8.9730  -8.2527  -8.1416  -6.3923  -6.2736
    -5.3650  -5.3225  -5.0849  -4.7927  -4.2751  -4.1068  -3.9821  -3.8550
    -3.2729  -3.2275  -2.7583  -2.6216  -2.4141  -2.3536  -2.1833  -2.1401
    -1.2126  -1.1157  -1.0398  -0.9863  -0.8987  -0.7937   0.0420   0.0560
     0.5268   0.7872

     occupation numbers 
     1.0000   1.0000   1.0000   1.0000   1.0000   1.0000   1.0000   1.0000
     1.0000   1.0000   1.0000   1.0000   1.0000   1.0000   1.0000   1.0000
     1.0000   1.0000   1.0000   1.0000   1.0000   1.0000   1.0000   1.0000
     1.0000   1.0000   1.0000   1.0000   1.0000   1.0000   1.0000   1.0000
     1.0000   1.0000   1.0000   1.0000   1.0000   1.0000   1.0000   1.0000
     1.0000   1.0000

          k =-0.0169 0.0214-0.1078 ( 36561 PWs)   bands (ev):

   -16.2757 -16.1114 -15.3865 -15.2031 -13.9189 -13.8788 -12.3052 -12.2901
   -11.2732 -11.1793  -9.0207  -8.9338  -8.1884  -8.1303  -6.4096  -6.3328
    -5.3600  -5.3119  -5.0733  -4.8980  -4.2862  -4.2414  -4.1321  -3.9883
    -3.7802  -3.6955  -2.8891  -2.7266  -2.6488  -2.4237  -2.3915  -2.3041
    -1.2984  -1.1437  -1.0942  -0.9949  -0.9018  -0.8138  -0.3662  -0.1523
     0.7127   0.8633

     occupation numbers 
     1.0000   1.0000   1.0000   1.0000   1.0000   1.0000   1.0000   1.0000
     1.0000   1.0000   1.0000   1.0000   1.0000   1.0000   1.0000   1.0000
     1.0000   1.0000   1.0000   1.0000   1.0000   1.0000   1.0000   1.0000
     1.0000   1.0000   1.0000   1.0000   1.0000   1.0000   1.0000   1.0000
     1.0000   1.0000   1.0000   1.0000   1.0000   1.0000   1.0000   1.0000
     1.0000   1.0000

          k =-0.0169 0.0214 0.0936 ( 36547 PWs)   bands (ev):

   -16.2724 -16.1141 -15.3854 -15.2058 -13.9103 -13.8885 -12.3103 -12.2850
   -11.2605 -11.1844  -9.0006  -8.9601  -8.1894  -8.1169  -6.4622  -6.3101
    -5.3582  -5.3220  -5.1017  -4.8615  -4.3012  -4.2045  -4.1230  -3.9930
    -3.7972  -3.6816  -2.8557  -2.7141  -2.6686  -2.4600  -2.3777  -2.3208
    -1.2793  -1.1453  -1.0954  -1.0093  -0.9083  -0.8162  -0.3077  -0.1886
     0.7172   0.8617

     occupation numbers 
     1.0000   1.0000   1.0000   1.0000   1.0000   1.0000   1.0000   1.0000
     1.0000   1.0000   1.0000   1.0000   1.0000   1.0000   1.0000   1.0000
     1.0000   1.0000   1.0000   1.0000   1.0000   1.0000   1.0000   1.0000
     1.0000   1.0000   1.0000   1.0000   1.0000   1.0000   1.0000   1.0000
     1.0000   1.0000   1.0000   1.0000   1.0000   1.0000   1.0000   1.0000
     1.0000   1.0000

          k =-0.0169 0.0214 0.0265 ( 36551 PWs)   bands (ev):

   -16.3612 -16.1783 -15.4394 -15.2529 -13.9228 -13.8939 -12.3518 -12.3002
   -11.2310 -11.1902  -9.0398  -8.9970  -8.2587  -8.1208  -6.4393  -6.2540
    -5.3640  -5.3355  -5.1242  -4.7429  -4.3040  -4.0462  -3.9574  -3.8694
    -3.2835  -3.2276  -2.8000  -2.5877  -2.4469  -2.3080  -2.1957  -2.1536
    -1.1890  -1.1006  -1.0393  -1.0076  -0.9158  -0.7949   0.0180   0.0929
     0.5230   0.7964

     occupation numbers 
     1.0000   1.0000   1.0000   1.0000   1.0000   1.0000   1.0000   1.0000
     1.0000   1.0000   1.0000   1.0000   1.0000   1.0000   1.0000   1.0000
     1.0000   1.0000   1.0000   1.0000   1.0000   1.0000   1.0000   1.0000
     1.0000   1.0000   1.0000   1.0000   1.0000   1.0000   1.0000   1.0000
     1.0000   1.0000   1.0000   1.0000   1.0000   1.0000   1.0000   1.0000
     1.0000   1.0000

          k =-0.0169 0.0643-0.0407 ( 36518 PWs)   bands (ev):

   -16.3417 -16.1409 -15.4521 -15.2523 -13.9718 -13.9173 -12.4126 -12.3533
   -11.2556 -11.1948  -8.9234  -8.8541  -8.1340  -8.0626  -6.3734  -6.3160
    -5.3072  -5.2882  -5.1227  -4.9719  -4.3829  -4.2436  -4.0652  -4.0216
    -3.3177  -3.2862  -2.6724  -2.5560  -2.4337  -2.3715  -2.1856  -2.1057
    -1.0854  -0.9950  -0.9566  -0.8959  -0.8534  -0.7946   0.0949   0.1290
     0.5604   0.8009

     occupation numbers 
     1.0000   1.0000   1.0000   1.0000   1.0000   1.0000   1.0000   1.0000
     1.0000   1.0000   1.0000   1.0000   1.0000   1.0000   1.0000   1.0000
     1.0000   1.0000   1.0000   1.0000   1.0000   1.0000   1.0000   1.0000
     1.0000   1.0000   1.0000   1.0000   1.0000   1.0000   1.0000   1.0000
     1.0000   1.0000   1.0000   1.0000   1.0000   1.0000   1.0000   1.0000
     1.0000   1.0000

          k =-0.0169 0.0643-0.1078 ( 36558 PWs)   bands (ev):

   -16.2616 -16.0842 -15.3948 -15.1966 -13.9410 -13.9015 -12.3557 -12.3220
   -11.3111 -11.1948  -8.9255  -8.8662  -8.1606  -8.0968  -6.3388  -6.3065
    -5.3149  -5.2959  -5.0145  -4.9076  -4.3427  -4.2837  -4.1136  -4.0750
    -3.9270  -3.8702  -2.7767  -2.7297  -2.5962  -2.5594  -2.3861  -2.2437
    -1.2646  -1.1149  -1.0839  -1.0458  -0.9177  -0.8275  -0.1671  -0.0192
     0.7167   0.8857

     occupation numbers 
     1.0000   1.0000   1.0000   1.0000   1.0000   1.0000   1.0000   1.0000
     1.0000   1.0000   1.0000   1.0000   1.0000   1.0000   1.0000   1.0000
     1.0000   1.0000   1.0000   1.0000   1.0000   1.0000   1.0000   1.0000
     1.0000   1.0000   1.0000   1.0000   1.0000   1.0000   1.0000   1.0000
     1.0000   1.0000   1.0000   1.0000   1.0000   1.0000   1.0000   1.0000
     1.0000   1.0000

          k =-0.0169 0.0643 0.0936 ( 36547 PWs)   bands (ev):

   -16.2581 -16.0874 -15.3928 -15.2000 -13.9343 -13.9096 -12.3602 -12.3163
   -11.3005 -11.2000  -8.9062  -8.8897  -8.1351  -8.1098  -6.3695  -6.3185
    -5.3228  -5.2988  -5.0052  -4.8858  -4.3580  -4.2758  -4.1176  -4.0526
    -3.9465  -3.8335  -2.8032  -2.7244  -2.6436  -2.5520  -2.3074  -2.2691
    -1.2363  -1.1370  -1.1207  -1.0428  -0.8933  -0.8414  -0.1264  -0.0556
     0.7253   0.8881

     occupation numbers 
     1.0000   1.0000   1.0000   1.0000   1.0000   1.0000   1.0000   1.0000
     1.0000   1.0000   1.0000   1.0000   1.0000   1.0000   1.0000   1.0000
     1.0000   1.0000   1.0000   1.0000   1.0000   1.0000   1.0000   1.0000
     1.0000   1.0000   1.0000   1.0000   1.0000   1.0000   1.0000   1.0000
     1.0000   1.0000   1.0000   1.0000   1.0000   1.0000   1.0000   1.0000
     1.0000   1.0000

          k =-0.0169 0.0643 0.0265 ( 36489 PWs)   bands (ev):

   -16.3386 -16.1439 -15.4503 -15.2551 -13.9667 -13.9240 -12.4165 -12.3475
   -11.2462 -11.1999  -8.9053  -8.8758  -8.1198  -8.0620  -6.4098  -6.3313
    -5.3211  -5.2804  -5.1011  -4.9542  -4.3780  -4.2118  -4.0833  -4.0457
    -3.3199  -3.2842  -2.6452  -2.5311  -2.4536  -2.3712  -2.1715  -2.1366
    -1.0943  -1.0095  -0.9811  -0.8858  -0.8277  -0.7948   0.0736   0.1686
     0.5538   0.8057

     occupation numbers 
     1.0000   1.0000   1.0000   1.0000   1.0000   1.0000   1.0000   1.0000
     1.0000   1.0000   1.0000   1.0000   1.0000   1.0000   1.0000   1.0000
     1.0000   1.0000   1.0000   1.0000   1.0000   1.0000   1.0000   1.0000
     1.0000   1.0000   1.0000   1.0000   1.0000   1.0000   1.0000   1.0000
     1.0000   1.0000   1.0000   1.0000   1.0000   1.0000   1.0000   1.0000
     1.0000   1.0000

     highest occupied level (ev):     0.8881

!    total energy              =    -548.03945040 Ry
     Harris-Foulkes estimate   =    -548.03945043 Ry
     estimated scf accuracy    <       0.00000004 Ry

     total all-electron energy =     -4615.882938 Ry

     The total energy is the sum of the following terms:

     one-electron contribution =    -154.41175838 Ry
     hartree contribution      =     108.55399581 Ry
     xc contribution           =    -104.28947226 Ry
     ewald contribution        =    -142.10639154 Ry
     one-center paw contrib.   =    -255.78582403 Ry
      -> PAW hartree energy AE =      18.93145079 Ry
      -> PAW hartree energy PS =     -18.82715797 Ry
      -> PAW xc energy AE      =     -55.61218365 Ry
      -> PAW xc energy PS      =      10.06700317 Ry
      -> total E_H with PAW    =     108.65828863 Ry
      -> total E_XC with PAW   =    -149.83465275 Ry

     convergence has been achieved in  11 iterations
 writing file ./scratch/scf-171.save/charge-density
 writing file ./scratch/scf-171.save/charge-density
 writing file ./scratch/scf-171.save/charge-density
 writing file ./scratch/scf-171.save/charge-density
 writing file ./scratch/scf-171.save/charge-density
 writing file ./scratch/scf-171.save/charge-density
 writing file ./scratch/scf-171.save/charge-density
 writing file ./scratch/scf-171.save/charge-density
 writing file ./scratch/scf-171.save/charge-density
 writing file ./scratch/scf-171.save/charge-density
 writing file ./scratch/scf-171.save/charge-density
 writing file ./scratch/scf-171.save/charge-density
 writing file ./scratch/scf-171.save/charge-density
 writing file ./scratch/scf-171.save/charge-density
 writing file ./scratch/scf-171.save/charge-density
 writing file ./scratch/scf-171.save/charge-density
 writing file ./scratch/scf-171.save/charge-density
 writing file ./scratch/scf-171.save/charge-density
 writing file ./scratch/scf-171.save/charge-density
 writing file ./scratch/scf-171.save/charge-density
 writing file ./scratch/scf-171.save/charge-density
 writing file ./scratch/scf-171.save/charge-density
 writing file ./scratch/scf-171.save/charge-density
 writing file ./scratch/scf-171.save/charge-density
 writing file ./scratch/scf-171.save/charge-density
 writing file ./scratch/scf-171.save/charge-density
 writing file ./scratch/scf-171.save/charge-density
 writing file ./scratch/scf-171.save/charge-density
 writing file ./scratch/scf-171.save/charge-density
 writing file ./scratch/scf-171.save/charge-density
 writing file ./scratch/scf-171.save/charge-density
 writing file ./scratch/scf-171.save/charge-density

     Forces acting on atoms (cartesian axes, Ry/au):

     atom    1 type  2   force =    -0.04933156    0.02943304    0.00863965
     atom    2 type  1   force =     0.03390505   -0.01139831   -0.01985021
     atom    3 type  1   force =    -0.00894579   -0.01769372    0.02901281
     atom    4 type  3   force =    -0.00011588    0.00057989   -0.00788576
     atom    5 type  1   force =     0.02424793    0.01219202   -0.02966461
     atom    6 type  3   force =     0.00153070   -0.00518260    0.01142601
     atom    7 type  3   force =     0.00114861   -0.00105627    0.00019838
     atom    8 type  1   force =     0.01264581   -0.00537534   -0.01780645
     atom    9 type  3   force =     0.00380186   -0.00077310   -0.00332381
     atom   10 type  1   force =    -0.00473812    0.01362852    0.01799246
     atom   11 type  1   force =     0.03295864    0.02007755   -0.01205881
     atom   12 type  2   force =    -0.03881454   -0.03257071    0.00026109
     atom   13 type  3   force =    -0.00246149   -0.00167898    0.00173254
     atom   14 type  1   force =     0.01549913   -0.00740940   -0.01990768
     atom   15 type  3   force =    -0.00170521    0.00086803   -0.00152754
     atom   16 type  1   force =     0.00531750   -0.02243574    0.00702735
     atom   17 type  1   force =     0.05224361   -0.02247756    0.02320889
     atom   18 type  2   force =    -0.07680467    0.04607240   -0.00357371
     atom   19 type  3   force =     0.00029969   -0.00153087   -0.00306088
     atom   20 type  1   force =    -0.00495049    0.01636439    0.02043331
     atom   21 type  3   force =     0.00037936   -0.00072315    0.00146760
     atom   22 type  1   force =     0.00839314   -0.01175336   -0.01311231
     atom   23 type  1   force =     0.01477618    0.00081157    0.00665451
     atom   24 type  2   force =    -0.01927946    0.00203170    0.00371718
     The non-local contrib.  to forces
     atom    1 type  2   force =    -0.32255158    0.22431795    0.04223186
     atom    2 type  1   force =     0.42596324   -0.30787953   -0.08495443
     atom    3 type  1   force =    -0.05499556   -0.08927213    0.02210306
     atom    4 type  3   force =    -0.06853912   -0.02593337   -0.02893072
     atom    5 type  1   force =     0.00274307   -0.02433246   -0.08586679
     atom    6 type  3   force =    -0.00585969   -0.07367335   -0.02668802
     atom    7 type  3   force =     0.00610267   -0.06796844    0.03900384
     atom    8 type  1   force =     0.06059411   -0.04719129    0.02305706
     atom    9 type  3   force =     0.06613274   -0.01856711    0.03823816
     atom   10 type  1   force =     0.03696306   -0.01680713    0.06797114
     atom   11 type  1   force =    -0.33352471   -0.31613545   -0.05528133
     atom   12 type  2   force =     0.29518897    0.25897028    0.02589942
     atom   13 type  3   force =     0.00475912    0.07066628    0.03444229
     atom   14 type  1   force =     0.05827286    0.04053534    0.02193299
     atom   15 type  3   force =     0.06926422    0.02658072    0.02675188
     atom   16 type  1   force =     0.05105010    0.01899034    0.02835639
     atom   17 type  1   force =    -0.35515367    0.26116315    0.12430917
     atom   18 type  2   force =     0.29264202   -0.21566259   -0.12252940
     atom   19 type  3   force =    -0.00528322    0.06694353   -0.04083324
     atom   20 type  1   force =    -0.04335228    0.06003579   -0.00778649
     atom   21 type  3   force =    -0.06544582    0.01751452   -0.03965441
     atom   22 type  1   force =    -0.01543970    0.02573421   -0.04910551
     atom   23 type  1   force =     0.40251514    0.31365200    0.01599855
     atom   24 type  2   force =    -0.33441854   -0.21114763    0.02218650
     The ionic contribution  to forces
     atom    1 type  2   force =     4.57438982   -3.26198867   -0.00848318
     atom    2 type  1   force =     2.25942965   -2.02408383    0.30592989
     atom    3 type  1   force =     4.30383263    2.26192559    1.18935566
     atom    4 type  3   force =     2.01543800    0.86290879    0.87219678
     atom    5 type  1   force =     0.86254163    3.87263799    2.12238935
     atom    6 type  3   force =     0.27531616    2.05196468    0.92707485
     atom    7 type  3   force =    -0.14037184    1.89143151   -1.20267466
     atom    8 type  1   force =    -0.56232763    4.11676246   -1.75439818
     atom    9 type  3   force =    -1.88837685    0.64724102   -1.20450554
     atom   10 type  1   force =    -3.44510608    1.59324152   -2.63295228
     atom   11 type  1   force =    -1.40206464   -1.38302927    0.05209344
     atom   12 type  2   force =    -5.13282530   -4.25288521   -0.51384378
     atom   13 type  3   force =    -0.51951135   -1.93336247   -1.17275637
     atom   14 type  1   force =    -1.82036275   -4.29432531   -1.90175298
     atom   15 type  3   force =    -2.31553409   -0.94307607   -0.98164606
     atom   16 type  1   force =    -5.21356536   -2.30389283   -2.65756805
     atom   17 type  1   force =    -2.77099759    1.34451014   -1.09398663
     atom   18 type  2   force =    -8.18722957    4.57869397   -0.19323331
     atom   19 type  3   force =     0.53385425   -1.88847043    1.38884318
     atom   20 type  1   force =     2.08766076   -4.11324043    2.46089293
     atom   21 type  3   force =     2.20978592   -0.69914197    1.36745645
     atom   22 type  1   force =     4.81243157   -1.65065453    3.25619881
     atom   23 type  1   force =     2.92908887    1.87118582    0.70020835
     atom   24 type  2   force =     6.53450376    3.65564752    0.67516132
     The local contribution  to forces
     atom    1 type  2   force =    -4.31639983    3.07757074   -0.02306462
     atom    2 type  1   force =    -2.64004630    2.31179331   -0.24234924
     atom    3 type  1   force =    -4.25637936   -2.19059871   -1.18215103
     atom    4 type  3   force =    -1.94699060   -0.83639447   -0.85114243
     atom    5 type  1   force =    -0.84068060   -3.83495472   -2.06596375
     atom    6 type  3   force =    -0.26792540   -1.98344551   -0.88895589
     atom    7 type  3   force =     0.13540980   -1.82453654    1.16387499
     atom    8 type  1   force =     0.51474407   -4.07356182    1.71320317
     atom    9 type  3   force =     1.82606135   -0.62944452    1.16295039
     atom   10 type  1   force =     3.40249877   -1.56248996    2.58253713
     atom   11 type  1   force =     1.76020501    1.71177947   -0.00974815
     atom   12 type  2   force =     4.80899812    3.97037897    0.48919816
     atom   13 type  3   force =     0.51228570    1.86104352    1.14005381
     atom   14 type  1   force =     1.77796156    4.24509806    1.85983669
     atom   15 type  3   force =     2.24458995    0.91736284    0.95337385
     atom   16 type  1   force =     5.16680013    2.26163070    2.63522960
     atom   17 type  1   force =     3.16987638   -1.62176511    0.99475306
     atom   18 type  2   force =     7.82647599   -4.32365184    0.30737666
     atom   19 type  3   force =    -0.52827892    1.81998396   -1.35107177
     atom   20 type  1   force =    -2.04953044    4.06834712   -2.43209740
     atom   21 type  3   force =    -2.14394718    0.68090420   -1.32632713
     atom   22 type  1   force =    -4.78734078    1.61316323   -3.21939684
     atom   23 type  1   force =    -3.30647323   -2.17560443   -0.70939891
     atom   24 type  2   force =    -6.23365970   -3.45113981   -0.69256710
     The core correction contribution to forces
     atom    1 type  2   force =     0.01522436   -0.01045575   -0.00201093
     atom    2 type  1   force =    -0.01147635    0.00865355    0.00149131
     atom    3 type  1   force =    -0.00134533    0.00019203   -0.00029555
     atom    4 type  3   force =     0.00000000    0.00000000    0.00000000
     atom    5 type  1   force =    -0.00036902   -0.00110456   -0.00020309
     atom    6 type  3   force =     0.00000000    0.00000000    0.00000000
     atom    7 type  3   force =     0.00000000    0.00000000    0.00000000
     atom    8 type  1   force =    -0.00043456   -0.00137279    0.00030599
     atom    9 type  3   force =     0.00000000    0.00000000    0.00000000
     atom   10 type  1   force =     0.00089868   -0.00024987    0.00041380
     atom   11 type  1   force =     0.00830805    0.00750546    0.00084158
     atom   12 type  2   force =    -0.01014861   -0.00905972   -0.00099108
     atom   13 type  3   force =     0.00000000    0.00000000    0.00000000
     atom   14 type  1   force =    -0.00044754    0.00127343    0.00006009
     atom   15 type  3   force =     0.00000000    0.00000000    0.00000000
     atom   16 type  1   force =     0.00102028    0.00070868    0.00096581
     atom   17 type  1   force =     0.00844558   -0.00648654   -0.00192232
     atom   18 type  2   force =    -0.00874930    0.00671148    0.00477404
     atom   19 type  3   force =     0.00000000    0.00000000    0.00000000
     atom   20 type  1   force =     0.00022238    0.00118035   -0.00058357
     atom   21 type  3   force =     0.00000000    0.00000000    0.00000000
     atom   22 type  1   force =    -0.00125009    0.00002260   -0.00081032
     atom   23 type  1   force =    -0.01041432   -0.00835767   -0.00019496
     atom   24 type  2   force =     0.01431597    0.00866432   -0.00102031
     The Hubbard contrib.    to forces
     atom    1 type  2   force =     0.00000000    0.00000000    0.00000000
     atom    2 type  1   force =     0.00000000    0.00000000    0.00000000
     atom    3 type  1   force =     0.00000000    0.00000000    0.00000000
     atom    4 type  3   force =     0.00000000    0.00000000    0.00000000
     atom    5 type  1   force =     0.00000000    0.00000000    0.00000000
     atom    6 type  3   force =     0.00000000    0.00000000    0.00000000
     atom    7 type  3   force =     0.00000000    0.00000000    0.00000000
     atom    8 type  1   force =     0.00000000    0.00000000    0.00000000
     atom    9 type  3   force =     0.00000000    0.00000000    0.00000000
     atom   10 type  1   force =     0.00000000    0.00000000    0.00000000
     atom   11 type  1   force =     0.00000000    0.00000000    0.00000000
     atom   12 type  2   force =     0.00000000    0.00000000    0.00000000
     atom   13 type  3   force =     0.00000000    0.00000000    0.00000000
     atom   14 type  1   force =     0.00000000    0.00000000    0.00000000
     atom   15 type  3   force =     0.00000000    0.00000000    0.00000000
     atom   16 type  1   force =     0.00000000    0.00000000    0.00000000
     atom   17 type  1   force =     0.00000000    0.00000000    0.00000000
     atom   18 type  2   force =     0.00000000    0.00000000    0.00000000
     atom   19 type  3   force =     0.00000000    0.00000000    0.00000000
     atom   20 type  1   force =     0.00000000    0.00000000    0.00000000
     atom   21 type  3   force =     0.00000000    0.00000000    0.00000000
     atom   22 type  1   force =     0.00000000    0.00000000    0.00000000
     atom   23 type  1   force =     0.00000000    0.00000000    0.00000000
     atom   24 type  2   force =     0.00000000    0.00000000    0.00000000
     The SCF correction term to forces
     atom    1 type  2   force =     0.00000545   -0.00001143   -0.00003325
     atom    2 type  1   force =     0.00003459    0.00011800    0.00003248
     atom    3 type  1   force =    -0.00005839    0.00005930    0.00000091
     atom    4 type  3   force =    -0.00002438   -0.00000125   -0.00000917
     atom    5 type  1   force =     0.00001264   -0.00005443   -0.00002011
     atom    6 type  3   force =    -0.00000059   -0.00002862   -0.00000470
     atom    7 type  3   force =     0.00000776    0.00001700   -0.00000556
     atom    8 type  1   force =     0.00006960   -0.00001208    0.00002575
     atom    9 type  3   force =    -0.00001560   -0.00000269   -0.00000659
     atom   10 type  1   force =     0.00000723   -0.00006623    0.00002290
     atom   11 type  1   force =     0.00003471   -0.00004285    0.00003589
     atom   12 type  2   force =    -0.00002794    0.00002477   -0.00000140
     atom   13 type  3   force =     0.00000483   -0.00002651   -0.00000697
     atom   14 type  1   force =     0.00007477    0.00000887    0.00001575
     atom   15 type  3   force =    -0.00002550    0.00000034   -0.00000698
     atom   16 type  1   force =     0.00001213    0.00012718    0.00004384
     atom   17 type  1   force =     0.00007268    0.00010061    0.00005584
     atom   18 type  2   force =     0.00005597   -0.00001882    0.00003853
     atom   19 type  3   force =     0.00000737    0.00001186    0.00000118
     atom   20 type  1   force =     0.00004887    0.00004137    0.00000807
     atom   21 type  3   force =    -0.00001378   -0.00000009   -0.00000708
     atom   22 type  1   force =    -0.00000807   -0.00001907    0.00000178
     atom   23 type  1   force =     0.00005950   -0.00006435    0.00004171
     atom   24 type  2   force =    -0.00002117    0.00000710   -0.00004299

     Total force =     0.168066     Total SCF correction =     0.000335

     Writing output data file scf-171.save
 writing file ./scratch/scf-171.save/charge-density
 writing file ./scratch/scf-171.save/charge-density
 writing file ./scratch/scf-171.save/charge-density
 writing file ./scratch/scf-171.save/charge-density
 writing file ./scratch/scf-171.save/charge-density
 writing file ./scratch/scf-171.save/charge-density
 writing file ./scratch/scf-171.save/charge-density
 writing file ./scratch/scf-171.save/charge-density
 writing file ./scratch/scf-171.save/charge-density
 writing file ./scratch/scf-171.save/charge-density
 writing file ./scratch/scf-171.save/charge-density
 writing file ./scratch/scf-171.save/charge-density
 writing file ./scratch/scf-171.save/charge-density
 writing file ./scratch/scf-171.save/charge-density
 writing file ./scratch/scf-171.save/charge-density
 writing file ./scratch/scf-171.save/charge-density
 writing file ./scratch/scf-171.save/charge-density
 writing file ./scratch/scf-171.save/charge-density
 writing file ./scratch/scf-171.save/charge-density
 writing file ./scratch/scf-171.save/charge-density
 writing file ./scratch/scf-171.save/charge-density
 writing file ./scratch/scf-171.save/charge-density
 writing file ./scratch/scf-171.save/charge-density
 writing file ./scratch/scf-171.save/charge-density
 writing file ./scratch/scf-171.save/charge-density
 writing file ./scratch/scf-171.save/charge-density
 writing file ./scratch/scf-171.save/charge-density
 writing file ./scratch/scf-171.save/charge-density
 writing file ./scratch/scf-171.save/charge-density
 writing file ./scratch/scf-171.save/charge-density
 writing file ./scratch/scf-171.save/charge-density
 writing file ./scratch/scf-171.save/charge-density
 
     init_run     :      4.36s CPU      4.57s WALL (       1 calls)
     electrons    :     49.27s CPU     52.11s WALL (       1 calls)
     forces       :      2.33s CPU      2.48s WALL (       1 calls)

     Called by init_run:
     wfcinit      :      1.58s CPU      1.60s WALL (       1 calls)
     wfcinit:atom :      0.02s CPU      0.02s WALL (      16 calls)
     wfcinit:wfcr :      1.47s CPU      1.48s WALL (      16 calls)
     potinit      :      0.88s CPU      0.91s WALL (       1 calls)

     Called by electrons:
     c_bands      :     38.54s CPU     38.78s WALL (      11 calls)
     sum_band     :      6.70s CPU      7.88s WALL (      11 calls)
     v_of_rho     :      0.91s CPU      0.96s WALL (      12 calls)
     v_h          :      0.04s CPU      0.06s WALL (      12 calls)
     v_xc         :      0.94s CPU      0.98s WALL (      13 calls)
     newd         :      1.46s CPU      2.85s WALL (      12 calls)
     PAW_pot      :      1.62s CPU      1.70s WALL (      12 calls)
     mix_rho      :      0.14s CPU      0.14s WALL (      11 calls)

     Called by c_bands:
     init_us_2    :      0.86s CPU      0.85s WALL (     384 calls)
     cegterg      :     36.27s CPU     36.41s WALL (     176 calls)

     Called by sum_band:
     sum_band:bec :      0.02s CPU      0.02s WALL (     176 calls)
     addusdens    :      1.52s CPU      2.67s WALL (      11 calls)

     Called by *egterg:
     h_psi        :     26.93s CPU     27.03s WALL (     867 calls)
     s_psi        :      1.96s CPU      1.93s WALL (     867 calls)
     g_psi        :      0.14s CPU      0.16s WALL (     675 calls)
     cdiaghg      :      3.46s CPU      3.42s WALL (     851 calls)
     cegterg:over :      1.67s CPU      1.74s WALL (     675 calls)
     cegterg:upda :      1.22s CPU      1.26s WALL (     675 calls)
     cegterg:last :      0.40s CPU      0.43s WALL (     192 calls)

     Called by h_psi:
     h_psi:pot    :     26.69s CPU     26.76s WALL (     867 calls)
     h_psi:calbec :      2.22s CPU      2.24s WALL (     867 calls)
     vloc_psi     :     22.49s CPU     22.62s WALL (     867 calls)
     add_vuspsi   :      1.97s CPU      1.90s WALL (     867 calls)

     General routines
     calbec       :      2.96s CPU      2.98s WALL (    1107 calls)
     fft          :      0.74s CPU      0.79s WALL (     199 calls)
     ffts         :      0.02s CPU      0.03s WALL (      23 calls)
     fftw         :     21.23s CPU     21.30s WALL (   55524 calls)
     interpolate  :      0.14s CPU      0.15s WALL (      23 calls)
     davcio       :      0.01s CPU      0.01s WALL (      16 calls)
 
     Parallel routines
     fft_scatter  :      7.57s CPU      7.57s WALL (   55746 calls)

     PAW routines
     PAW_pot      :      1.62s CPU      1.70s WALL (      12 calls)
 
     PWSCF        :  0m56.68s CPU     1m 0.40s WALL

 
   This run was terminated on:  10:41:21  20May2017            

=------------------------------------------------------------------------------=
   JOB DONE.
=------------------------------------------------------------------------------=
