
     Program PWSCF v.6.1 starts on 22May2017 at 15:34:52 

     This program is part of the open-source Quantum ESPRESSO suite
     for quantum simulation of materials; please cite
         "P. Giannozzi et al., J. Phys.:Condens. Matter 21 395502 (2009);
          URL http://www.quantum-espresso.org", 
     in publications or presentations arising from this work. More details at
     http://www.quantum-espresso.org/quote

     Parallel version (MPI & OpenMP), running on      32 processor cores
     Number of MPI processes:                32
     Threads/MPI process:                     1
     R & G space division:  proc/nbgrp/npool/nimage =      32
     Waiting for input...
     Reading input from standard input
Warning: card &IONS ignored
Warning: card     ION_TEMPERATURE   = 'INITIAL' ignored
Warning: card     TEMPW             = 586.D0 ignored
Warning: card     TOLP              = 100.D0 ignored
Warning: card     DELTA_T           = 1.D0 ignored
Warning: card     NRAISE            = 1 ignored
Warning: card / ignored
Warning: card &CELL ignored
Warning: card     CELL_DYNAMICS     = 'BFGS' ignored
Warning: card / ignored

     Current dimensions of program PWSCF are:
     Max number of different atomic species (ntypx) = 10
     Max number of k-points (npk) =  40000
     Max angular momentum in pseudopotentials (lmaxx) =  3
               file C.pbe-n-kjpaw_psl.1.0.0.UPF: wavefunction(s)  2S 2P renormalized
               file Cl.pbe-n-kjpaw_psl.1.0.0.UPF: wavefunction(s)  3S 3P renormalized
               file H.pbe-kjpaw_psl.1.0.0.UPF: wavefunction(s)  1S renormalized

     Subspace diagonalization in iterative solution of the eigenvalue problem:
     a serial algorithm will be used

 
     Parallelization info
     --------------------
     sticks:   dense  smooth     PW     G-vecs:    dense   smooth      PW
     Min         764     305     83                36108     9133    1292
     Max         765     306     84                36110     9135    1293
     Sum       24467    9791   2657              1155489   292295   41363
 


     bravais-lattice index     =            0
     lattice parameter (alat)  =       1.8897  a.u.
     unit-cell volume          =    2163.5316 (a.u.)^3
     number of atoms/cell      =           24
     number of atomic types    =            3
     number of electrons       =        84.00
     number of Kohn-Sham states=           42
     kinetic-energy cutoff     =     100.0000  Ry
     charge density cutoff     =    1000.0000  Ry
     convergence threshold     =      1.0E-07
     mixing beta               =       0.7000
     number of iterations used =            8  plain     mixing
     Exchange-correlation      =  SLA  PW   PBX  PBC ( 1  4  3  4 0 0)

     celldm(1)=   1.889726  celldm(2)=   0.000000  celldm(3)=   0.000000
     celldm(4)=   0.000000  celldm(5)=   0.000000  celldm(6)=   0.000000

     crystal axes: (cart. coord. in units of alat)
               a(1) = (  14.762000   0.000000   0.000000 )  
               a(2) = (   0.000000   5.832000   0.000000 )  
               a(3) = (  -1.563876   0.000000   3.723951 )  

     reciprocal axes: (cart. coord. in units 2 pi/alat)
               b(1) = (  0.067741  0.000000  0.028448 )  
               b(2) = (  0.000000  0.171468  0.000000 )  
               b(3) = (  0.000000  0.000000  0.268532 )  


     PseudoPot. # 1 for  C read from file:
     /global/cscratch1/sd/almno10/.data/PSEUDOPOTENTIALS/C.pbe-n-kjpaw_psl.1.0.0.UPF
     MD5 check sum: 2ba8448e293caca687844dde9a1b88a8
     Pseudo is Projector augmented-wave + core cor, Zval =  4.0
     Generated using "atomic" code by A. Dal Corso  v.5.3.0 svn rev. 11974
     Shape of augmentation charge: PSQ
     Using radial grid of 1073 points,  4 beta functions with: 
                l(1) =   0
                l(2) =   0
                l(3) =   1
                l(4) =   1
     Q(r) pseudized with 0 coefficients 


     PseudoPot. # 2 for Cl read from file:
     /global/cscratch1/sd/almno10/.data/PSEUDOPOTENTIALS/Cl.pbe-n-kjpaw_psl.1.0.0.UPF
     MD5 check sum: dca63699d6b897c5771335df08a09219
     Pseudo is Projector augmented-wave + core cor, Zval =  7.0
     Generated using "atomic" code by A. Dal Corso  v.5.3.0 svn rev. 11974
     Shape of augmentation charge: PSQ
     Using radial grid of 1157 points,  6 beta functions with: 
                l(1) =   0
                l(2) =   0
                l(3) =   1
                l(4) =   1
                l(5) =   2
                l(6) =   2
     Q(r) pseudized with 0 coefficients 


     PseudoPot. # 3 for  H read from file:
     /global/cscratch1/sd/almno10/.data/PSEUDOPOTENTIALS/H.pbe-kjpaw_psl.1.0.0.UPF
     MD5 check sum: bc0feb48a24907a0b97fa6ee2d589a29
     Pseudo is Projector augmented-wave, Zval =  1.0
     Generated using "atomic" code by A. Dal Corso  v.5.3.0 svn rev. 11974
     Shape of augmentation charge: PSQ
     Using radial grid of  929 points,  2 beta functions with: 
                l(1) =   0
                l(2) =   0
     Q(r) pseudized with 0 coefficients 


     atomic species   valence    mass     pseudopotential
        C              4.00    12.01100      C( 1.00)
        Cl             7.00    35.45270     Cl( 1.00)
        H              1.00     1.00790      H( 1.00)

     No symmetry found


                                    s                        frac. trans.

      isym =  1     identity                                     

 cryst.   s( 1) = (     1          0          0      )
                  (     0          1          0      )
                  (     0          0          1      )

 cart.    s( 1) = (  1.0000000  0.0000000 -0.0000000 )
                  (  0.0000000  1.0000000  0.0000000 )
                  (  0.0000000  0.0000000  1.0000000 )


   Cartesian axes

     site n.     atom                  positions (alat units)
         1           Cl  tau(   1) = (  16.5760775   0.8664859   1.9861676  )
         2           C   tau(   2) = (  15.1604780   2.0222290   1.8872316  )
         3           C   tau(   3) = (  15.2498339   3.2809066   2.4805243  )
         4           H   tau(   4) = (  16.1589282   3.6871879   2.9216119  )
         5           C   tau(   5) = (  14.0732583   4.0282264   2.4960630  )
         6           H   tau(   6) = (  14.0659400   5.0190138   2.9483953  )
         7           H   tau(   7) = (   6.2046541   2.4052802   0.7279209  )
         8           C   tau(   8) = (   6.3522777   1.4386251   1.2045652  )
         9           H   tau(   9) = (   4.2729600   0.8815177   1.0588667  )
        10           C   tau(  10) = (   5.2692371   0.5742613   1.3736494  )
        11           C   tau(  11) = (   5.4206164  -0.6757513   1.9734111  )
        12           Cl  tau(  12) = (   4.0133767  -1.6317789   1.9028784  )
        13           H   tau(  13) = (  13.9826984   0.6209520   0.7888676  )
        14           C   tau(  14) = (  13.9744408   1.5807590   1.3013819  )
        15           H   tau(  15) = (  11.9117641   1.9868628   0.8259802  )
        16           C   tau(  16) = (  12.8182216   2.3608652   1.2964966  )
        17           C   tau(  17) = (  12.8776454   3.5590592   1.9529221  )
        18           Cl  tau(  18) = (  11.5438542   4.5351736   2.0158502  )
        19           H   tau(  19) = (   6.7854369  -2.0241654   3.0250820  )
        20           C   tau(  20) = (   6.6532311  -1.0931747   2.4760603  )
        21           H   tau(  21) = (   8.7122236  -0.4997007   2.6909160  )
        22           C   tau(  22) = (   7.7303721  -0.2248973   2.3131370  )
        23           C   tau(  23) = (   7.5987287   0.9780448   1.6237447  )
        24           Cl  tau(  24) = (   9.1316675   1.9375107   1.5283760  )

   Crystallographic axes

     site n.     atom                  positions (cryst. coord.)
         1           Cl  tau(   1) = (  1.1793910  0.1485744  0.5333495  )
         2           C   tau(   2) = (  1.0806816  0.3467471  0.5067820  )
         3           C   tau(   3) = (  1.1036128  0.5625697  0.6661001  )
         4           H   tau(   4) = (  1.1777443  0.6322339  0.7845462  )
         5           C   tau(   5) = (  1.0243518  0.6907110  0.6702727  )
         6           H   tau(   6) = (  1.0367240  0.8605991  0.7917384  )
         7           H   tau(   7) = (  0.4410205  0.4124280  0.1954700  )
         8           C   tau(   8) = (  0.4645804  0.2466778  0.3234643  )
         9           H   tau(   9) = (  0.3195794  0.1511519  0.2843396  )
        10           C   tau(  10) = (  0.3960237  0.0984673  0.3688688  )
        11           C   tau(  11) = (  0.4233404 -0.1158696  0.5299240  )
        12           Cl  tau(  12) = (  0.3260054 -0.2797975  0.5109837  )
        13           H   tau(  13) = (  0.9696507  0.1064733  0.2118362  )
        14           C   tau(  14) = (  0.9836714  0.2710492  0.3494627  )
        15           H   tau(  15) = (  0.8304183  0.3406829  0.2218021  )
        16           C   tau(  16) = (  0.9052084  0.4048123  0.3481508  )
        17           C   tau(  17) = (  0.9279079  0.6102639  0.5244220  )
        18           Cl  tau(  18) = (  0.8393451  0.7776361  0.5413202  )
        19           H   tau(  19) = (  0.5457134 -0.3470791  0.8123312  )
        20           C   tau(  20) = (  0.5211390 -0.1874442  0.6649013  )
        21           H   tau(  21) = (  0.6667305 -0.0856826  0.7225970  )
        22           C   tau(  22) = (  0.5894713 -0.0385626  0.6211512  )
        23           C   tau(  23) = (  0.5609417  0.1677032  0.4360274  )
        24           Cl  tau(  24) = (  0.6620722  0.3322206  0.4104178  )

     number of k points=    16
                       cart. coord. in units 2pi/alat
        k(    1) = (   0.0169354   0.0214335   0.0406785), wk =   0.1250000
        k(    2) = (   0.0169354   0.0214335   0.1078115), wk =   0.1250000
        k(    3) = (   0.0169354   0.0214335  -0.0935875), wk =   0.1250000
        k(    4) = (   0.0169354   0.0214335  -0.0264545), wk =   0.1250000
        k(    5) = (   0.0169354   0.0643004   0.0406785), wk =   0.1250000
        k(    6) = (   0.0169354   0.0643004   0.1078115), wk =   0.1250000
        k(    7) = (   0.0169354   0.0643004  -0.0935875), wk =   0.1250000
        k(    8) = (   0.0169354   0.0643004  -0.0264545), wk =   0.1250000
        k(    9) = (  -0.0169354   0.0214335  -0.0406785), wk =   0.1250000
        k(   10) = (  -0.0169354   0.0214335  -0.1078115), wk =   0.1250000
        k(   11) = (  -0.0169354   0.0214335   0.0935875), wk =   0.1250000
        k(   12) = (  -0.0169354   0.0214335   0.0264545), wk =   0.1250000
        k(   13) = (  -0.0169354   0.0643004  -0.0406785), wk =   0.1250000
        k(   14) = (  -0.0169354   0.0643004  -0.1078115), wk =   0.1250000
        k(   15) = (  -0.0169354   0.0643004   0.0935875), wk =   0.1250000
        k(   16) = (  -0.0169354   0.0643004   0.0264545), wk =   0.1250000

                       cryst. coord.
        k(    1) = (   0.2500000   0.1250000   0.1250000), wk =   0.1250000
        k(    2) = (   0.2500000   0.1250000   0.3750000), wk =   0.1250000
        k(    3) = (   0.2500000   0.1250000  -0.3750000), wk =   0.1250000
        k(    4) = (   0.2500000   0.1250000  -0.1250000), wk =   0.1250000
        k(    5) = (   0.2500000   0.3750000   0.1250000), wk =   0.1250000
        k(    6) = (   0.2500000   0.3750000   0.3750000), wk =   0.1250000
        k(    7) = (   0.2500000   0.3750000  -0.3750000), wk =   0.1250000
        k(    8) = (   0.2500000   0.3750000  -0.1250000), wk =   0.1250000
        k(    9) = (  -0.2500000   0.1250000  -0.1250000), wk =   0.1250000
        k(   10) = (  -0.2500000   0.1250000  -0.3750000), wk =   0.1250000
        k(   11) = (  -0.2500000   0.1250000   0.3750000), wk =   0.1250000
        k(   12) = (  -0.2500000   0.1250000   0.1250000), wk =   0.1250000
        k(   13) = (  -0.2500000   0.3750000  -0.1250000), wk =   0.1250000
        k(   14) = (  -0.2500000   0.3750000  -0.3750000), wk =   0.1250000
        k(   15) = (  -0.2500000   0.3750000   0.3750000), wk =   0.1250000
        k(   16) = (  -0.2500000   0.3750000   0.1250000), wk =   0.1250000

     Dense  grid:  1155489 G-vectors     FFT dimensions: ( 288, 120,  80)

     Smooth grid:   292295 G-vectors     FFT dimensions: ( 180,  72,  50)

     Estimated max dynamical RAM per process >     147.21MB

     Estimated total allocated dynamical RAM >    4710.62MB

     Initial potential from superposition of free atoms

     starting charge   83.99939, renormalised to   84.00000
     Starting wfc are   72 randomized atomic wfcs
     Checking if some PAW data can be deallocated... 
       node    0, deallocated PAW data for type:  1
       node    0, deallocated PAW data for type:  3
       node    1, deallocated PAW data for type:  1
       node    1, deallocated PAW data for type:  3
       node    2, deallocated PAW data for type:  2
       node    2, deallocated PAW data for type:  3
       node    3, deallocated PAW data for type:  2
       node    3, deallocated PAW data for type:  3
       node    4, deallocated PAW data for type:  2
       node    4, deallocated PAW data for type:  3
       node    5, deallocated PAW data for type:  2
       node    5, deallocated PAW data for type:  3
       node    6, deallocated PAW data for type:  1
       node    6, deallocated PAW data for type:  2
       node    7, deallocated PAW data for type:  1
       node    7, deallocated PAW data for type:  2
       node    8, deallocated PAW data for type:  2
       node    8, deallocated PAW data for type:  3
       node    9, deallocated PAW data for type:  2
       node    9, deallocated PAW data for type:  3
       node   10, deallocated PAW data for type:  1
       node   10, deallocated PAW data for type:  2
       node   11, deallocated PAW data for type:  1
       node   11, deallocated PAW data for type:  2
       node   12, deallocated PAW data for type:  1
       node   12, deallocated PAW data for type:  2
       node   13, deallocated PAW data for type:  1
       node   13, deallocated PAW data for type:  2
       node   14, deallocated PAW data for type:  2
       node   14, deallocated PAW data for type:  3
       node   15, deallocated PAW data for type:  2
       node   15, deallocated PAW data for type:  3
       node   16, deallocated PAW data for type:  1
       node   16, deallocated PAW data for type:  2
       node   17, deallocated PAW data for type:  2
       node   17, deallocated PAW data for type:  3
       node   18, deallocated PAW data for type:  2
       node   18, deallocated PAW data for type:  3
       node   19, deallocated PAW data for type:  1
       node   19, deallocated PAW data for type:  3
       node   20, deallocated PAW data for type:  1
       node   20, deallocated PAW data for type:  2
       node   21, deallocated PAW data for type:  2
       node   21, deallocated PAW data for type:  3
       node   22, deallocated PAW data for type:  1
       node   22, deallocated PAW data for type:  2
       node   23, deallocated PAW data for type:  2
       node   23, deallocated PAW data for type:  3
       node   24, deallocated PAW data for type:  2
       node   24, deallocated PAW data for type:  3
       node   25, deallocated PAW data for type:  1
       node   25, deallocated PAW data for type:  3
       node   26, deallocated PAW data for type:  1
       node   26, deallocated PAW data for type:  2
       node   27, deallocated PAW data for type:  2
       node   27, deallocated PAW data for type:  3
       node   28, deallocated PAW data for type:  1
       node   28, deallocated PAW data for type:  2
       node   29, deallocated PAW data for type:  2
       node   29, deallocated PAW data for type:  3
       node   30, deallocated PAW data for type:  2
       node   30, deallocated PAW data for type:  3
       node   31, deallocated PAW data for type:  1
       node   31, deallocated PAW data for type:  3

     total cpu time spent up to now is        5.2 secs

     per-process dynamical memory:    20.7 Mb

     Self-consistent Calculation

     iteration #  1     ecut=   100.00 Ry     beta= 0.70
     Davidson diagonalization with overlap
     ethr =  1.00E-04,  avg # of iterations =  5.0

     total cpu time spent up to now is       11.9 secs

     total energy              =    -547.10830639 Ry
     Harris-Foulkes estimate   =    -548.99008830 Ry
     estimated scf accuracy    <       2.75194030 Ry

     iteration #  2     ecut=   100.00 Ry     beta= 0.70
     Davidson diagonalization with overlap
     ethr =  3.28E-03,  avg # of iterations =  3.0

     total cpu time spent up to now is       16.8 secs

     total energy              =    -547.51429162 Ry
     Harris-Foulkes estimate   =    -548.59983304 Ry
     estimated scf accuracy    <       1.95892660 Ry

     iteration #  3     ecut=   100.00 Ry     beta= 0.70
     Davidson diagonalization with overlap
     ethr =  2.33E-03,  avg # of iterations =  2.9

     total cpu time spent up to now is       21.2 secs

     total energy              =    -548.00137055 Ry
     Harris-Foulkes estimate   =    -548.04439947 Ry
     estimated scf accuracy    <       0.08619570 Ry

     iteration #  4     ecut=   100.00 Ry     beta= 0.70
     Davidson diagonalization with overlap
     ethr =  1.03E-04,  avg # of iterations =  4.0

     total cpu time spent up to now is       26.1 secs

     total energy              =    -548.02886535 Ry
     Harris-Foulkes estimate   =    -548.03975476 Ry
     estimated scf accuracy    <       0.02160049 Ry

     iteration #  5     ecut=   100.00 Ry     beta= 0.70
     Davidson diagonalization with overlap
     ethr =  2.57E-05,  avg # of iterations =  3.0

     total cpu time spent up to now is       30.5 secs

     total energy              =    -548.03329652 Ry
     Harris-Foulkes estimate   =    -548.03389495 Ry
     estimated scf accuracy    <       0.00120117 Ry

     iteration #  6     ecut=   100.00 Ry     beta= 0.70
     Davidson diagonalization with overlap
     ethr =  1.43E-06,  avg # of iterations =  4.0

     total cpu time spent up to now is       35.3 secs

     total energy              =    -548.03361600 Ry
     Harris-Foulkes estimate   =    -548.03381949 Ry
     estimated scf accuracy    <       0.00042311 Ry

     iteration #  7     ecut=   100.00 Ry     beta= 0.70
     Davidson diagonalization with overlap
     ethr =  5.04E-07,  avg # of iterations =  4.0

     total cpu time spent up to now is       39.9 secs

     total energy              =    -548.03370861 Ry
     Harris-Foulkes estimate   =    -548.03374537 Ry
     estimated scf accuracy    <       0.00008172 Ry

     iteration #  8     ecut=   100.00 Ry     beta= 0.70
     Davidson diagonalization with overlap
     ethr =  9.73E-08,  avg # of iterations =  4.0

     total cpu time spent up to now is       44.5 secs

     total energy              =    -548.03372442 Ry
     Harris-Foulkes estimate   =    -548.03374019 Ry
     estimated scf accuracy    <       0.00004112 Ry

     iteration #  9     ecut=   100.00 Ry     beta= 0.70
     Davidson diagonalization with overlap
     ethr =  4.89E-08,  avg # of iterations =  4.0

     total cpu time spent up to now is       48.8 secs

     total energy              =    -548.03373226 Ry
     Harris-Foulkes estimate   =    -548.03373381 Ry
     estimated scf accuracy    <       0.00000376 Ry

     iteration # 10     ecut=   100.00 Ry     beta= 0.70
     Davidson diagonalization with overlap
     ethr =  4.48E-09,  avg # of iterations =  4.0

     total cpu time spent up to now is       53.4 secs

     total energy              =    -548.03373314 Ry
     Harris-Foulkes estimate   =    -548.03373328 Ry
     estimated scf accuracy    <       0.00000033 Ry

     iteration # 11     ecut=   100.00 Ry     beta= 0.70
     Davidson diagonalization with overlap
     ethr =  3.98E-10,  avg # of iterations =  4.0

     total cpu time spent up to now is       58.1 secs

     End of self-consistent calculation

          k = 0.0169 0.0214 0.0407 ( 36525 PWs)   bands (ev):

   -16.4191 -16.1593 -15.2879 -15.2321 -13.9102 -13.8765 -12.3680 -12.3410
   -11.2535 -11.2276  -9.0397  -8.9975  -8.2578  -8.1598  -6.4213  -6.3042
    -5.3830  -5.3492  -5.0818  -4.7825  -4.3164  -4.1653  -3.9023  -3.8241
    -3.3502  -3.1970  -2.7322  -2.5783  -2.4366  -2.3044  -2.1785  -2.1375
    -1.2391  -1.1501  -0.9938  -0.9446  -0.8748  -0.7524   0.0491   0.0568
     0.5780   0.7009

     occupation numbers 
     1.0000   1.0000   1.0000   1.0000   1.0000   1.0000   1.0000   1.0000
     1.0000   1.0000   1.0000   1.0000   1.0000   1.0000   1.0000   1.0000
     1.0000   1.0000   1.0000   1.0000   1.0000   1.0000   1.0000   1.0000
     1.0000   1.0000   1.0000   1.0000   1.0000   1.0000   1.0000   1.0000
     1.0000   1.0000   1.0000   1.0000   1.0000   1.0000   1.0000   1.0000
     1.0000   1.0000

          k = 0.0169 0.0214 0.1078 ( 36561 PWs)   bands (ev):

   -16.3549 -16.0874 -15.2292 -15.1882 -13.9012 -13.8526 -12.3390 -12.3027
   -11.2637 -11.2390  -9.0031  -8.9728  -8.1838  -8.1579  -6.3959  -6.3413
    -5.3845  -5.3409  -5.0745  -4.8775  -4.3597  -4.2136  -4.0814  -3.9553
    -3.8305  -3.7033  -2.8351  -2.7622  -2.5961  -2.4325  -2.3717  -2.2646
    -1.3054  -1.1772  -1.1038  -1.0283  -0.8520  -0.7787  -0.3269  -0.2380
     0.6992   0.7582

     occupation numbers 
     1.0000   1.0000   1.0000   1.0000   1.0000   1.0000   1.0000   1.0000
     1.0000   1.0000   1.0000   1.0000   1.0000   1.0000   1.0000   1.0000
     1.0000   1.0000   1.0000   1.0000   1.0000   1.0000   1.0000   1.0000
     1.0000   1.0000   1.0000   1.0000   1.0000   1.0000   1.0000   1.0000
     1.0000   1.0000   1.0000   1.0000   1.0000   1.0000   1.0000   1.0000
     1.0000   1.0000

          k = 0.0169 0.0214-0.0936 ( 36547 PWs)   bands (ev):

   -16.3568 -16.0840 -15.2351 -15.1828 -13.8987 -13.8585 -12.3327 -12.3078
   -11.2578 -11.2421  -9.0256  -8.9441  -8.2260  -8.1160  -6.4231  -6.3230
    -5.3893  -5.3283  -5.1315  -4.8369  -4.3526  -4.2450  -4.0488  -3.9892
    -3.7865  -3.6941  -2.8281  -2.6793  -2.6322  -2.4596  -2.3848  -2.3557
    -1.2051  -1.1955  -1.1172  -1.0396  -0.8685  -0.7644  -0.3044  -0.2466
     0.6882   0.7686

     occupation numbers 
     1.0000   1.0000   1.0000   1.0000   1.0000   1.0000   1.0000   1.0000
     1.0000   1.0000   1.0000   1.0000   1.0000   1.0000   1.0000   1.0000
     1.0000   1.0000   1.0000   1.0000   1.0000   1.0000   1.0000   1.0000
     1.0000   1.0000   1.0000   1.0000   1.0000   1.0000   1.0000   1.0000
     1.0000   1.0000   1.0000   1.0000   1.0000   1.0000   1.0000   1.0000
     1.0000   1.0000

          k = 0.0169 0.0214-0.0265 ( 36551 PWs)   bands (ev):

   -16.4210 -16.1560 -15.2935 -15.2272 -13.9050 -13.8846 -12.3624 -12.3460
   -11.2554 -11.2223  -9.0622  -8.9707  -8.2898  -8.1247  -6.4551  -6.2779
    -5.3922  -5.3342  -5.1418  -4.7282  -4.3535  -4.1883  -3.8787  -3.7351
    -3.3458  -3.2057  -2.8132  -2.5397  -2.4263  -2.3321  -2.2120  -2.1536
    -1.1680  -1.1069  -1.0352  -0.9520  -0.9013  -0.7265   0.0118   0.0908
     0.5780   0.7091

     occupation numbers 
     1.0000   1.0000   1.0000   1.0000   1.0000   1.0000   1.0000   1.0000
     1.0000   1.0000   1.0000   1.0000   1.0000   1.0000   1.0000   1.0000
     1.0000   1.0000   1.0000   1.0000   1.0000   1.0000   1.0000   1.0000
     1.0000   1.0000   1.0000   1.0000   1.0000   1.0000   1.0000   1.0000
     1.0000   1.0000   1.0000   1.0000   1.0000   1.0000   1.0000   1.0000
     1.0000   1.0000

          k = 0.0169 0.0643 0.0407 ( 36518 PWs)   bands (ev):

   -16.4011 -16.1333 -15.2822 -15.2359 -13.9386 -13.9106 -12.4254 -12.3964
   -11.2712 -11.2398  -8.9439  -8.8774  -8.1608  -8.0834  -6.4137  -6.3193
    -5.3387  -5.2745  -5.0558  -4.9552  -4.4805  -4.2131  -4.1743  -3.8608
    -3.3928  -3.2512  -2.6384  -2.5669  -2.4617  -2.2976  -2.1590  -2.0932
    -1.0826  -0.9857  -0.9473  -0.8974  -0.8235  -0.7770   0.0963   0.1095
     0.6359   0.7209

     occupation numbers 
     1.0000   1.0000   1.0000   1.0000   1.0000   1.0000   1.0000   1.0000
     1.0000   1.0000   1.0000   1.0000   1.0000   1.0000   1.0000   1.0000
     1.0000   1.0000   1.0000   1.0000   1.0000   1.0000   1.0000   1.0000
     1.0000   1.0000   1.0000   1.0000   1.0000   1.0000   1.0000   1.0000
     1.0000   1.0000   1.0000   1.0000   1.0000   1.0000   1.0000   1.0000
     1.0000   1.0000

          k = 0.0169 0.0643 0.1078 ( 36558 PWs)   bands (ev):

   -16.3418 -16.0692 -15.2234 -15.1857 -13.9133 -13.8781 -12.3794 -12.3445
   -11.2869 -11.2634  -8.9457  -8.9096  -8.1571  -8.1113  -6.3863  -6.3073
    -5.3479  -5.2982  -4.9777  -4.8964  -4.4552  -4.2487  -4.1390  -3.9539
    -3.9167  -3.8680  -2.7516  -2.7003  -2.5875  -2.4981  -2.3455  -2.2677
    -1.2666  -1.1473  -1.0552  -1.0174  -0.9232  -0.7979  -0.1907  -0.1327
     0.7297   0.7842

     occupation numbers 
     1.0000   1.0000   1.0000   1.0000   1.0000   1.0000   1.0000   1.0000
     1.0000   1.0000   1.0000   1.0000   1.0000   1.0000   1.0000   1.0000
     1.0000   1.0000   1.0000   1.0000   1.0000   1.0000   1.0000   1.0000
     1.0000   1.0000   1.0000   1.0000   1.0000   1.0000   1.0000   1.0000
     1.0000   1.0000   1.0000   1.0000   1.0000   1.0000   1.0000   1.0000
     1.0000   1.0000

          k = 0.0169 0.0643-0.0936 ( 36547 PWs)   bands (ev):

   -16.3437 -16.0660 -15.2260 -15.1836 -13.9115 -13.8833 -12.3728 -12.3488
   -11.2855 -11.2640  -8.9648  -8.8810  -8.1655  -8.1056  -6.3988  -6.3174
    -5.3500  -5.2936  -5.0056  -4.8394  -4.4568  -4.2965  -4.1437  -3.9374
    -3.8806  -3.8546  -2.7888  -2.7022  -2.6377  -2.4854  -2.3159  -2.2801
    -1.2043  -1.1490  -1.0955  -1.0295  -0.8693  -0.8299  -0.1844  -0.1370
     0.7355   0.7873

     occupation numbers 
     1.0000   1.0000   1.0000   1.0000   1.0000   1.0000   1.0000   1.0000
     1.0000   1.0000   1.0000   1.0000   1.0000   1.0000   1.0000   1.0000
     1.0000   1.0000   1.0000   1.0000   1.0000   1.0000   1.0000   1.0000
     1.0000   1.0000   1.0000   1.0000   1.0000   1.0000   1.0000   1.0000
     1.0000   1.0000   1.0000   1.0000   1.0000   1.0000   1.0000   1.0000
     1.0000   1.0000

          k = 0.0169 0.0643-0.0265 ( 36489 PWs)   bands (ev):

   -16.4029 -16.1303 -15.2849 -15.2337 -13.9353 -13.9172 -12.4188 -12.4004
   -11.2729 -11.2379  -8.9605  -8.8516  -8.1593  -8.0851  -6.4386  -6.3237
    -5.3339  -5.2786  -5.0672  -4.9032  -4.4694  -4.2774  -4.1192  -3.8922
    -3.3679  -3.2697  -2.6513  -2.5284  -2.4562  -2.3528  -2.1550  -2.1025
    -1.0643  -0.9991  -0.9388  -0.8867  -0.8376  -0.7546   0.0715   0.1440
     0.6380   0.7192

     occupation numbers 
     1.0000   1.0000   1.0000   1.0000   1.0000   1.0000   1.0000   1.0000
     1.0000   1.0000   1.0000   1.0000   1.0000   1.0000   1.0000   1.0000
     1.0000   1.0000   1.0000   1.0000   1.0000   1.0000   1.0000   1.0000
     1.0000   1.0000   1.0000   1.0000   1.0000   1.0000   1.0000   1.0000
     1.0000   1.0000   1.0000   1.0000   1.0000   1.0000   1.0000   1.0000
     1.0000   1.0000

          k =-0.0169 0.0214-0.0407 ( 36525 PWs)   bands (ev):

   -16.4207 -16.1566 -15.2890 -15.2313 -13.9091 -13.8808 -12.3626 -12.3449
   -11.2552 -11.2238  -9.0634  -8.9674  -8.2623  -8.1584  -6.4276  -6.3043
    -5.3897  -5.3300  -5.1100  -4.7790  -4.3299  -4.1696  -3.9166  -3.7553
    -3.3237  -3.2176  -2.7811  -2.5233  -2.4398  -2.3641  -2.1915  -2.1348
    -1.2120  -1.1527  -0.9938  -0.9213  -0.8811  -0.7518   0.0142   0.0919
     0.5806   0.7044

     occupation numbers 
     1.0000   1.0000   1.0000   1.0000   1.0000   1.0000   1.0000   1.0000
     1.0000   1.0000   1.0000   1.0000   1.0000   1.0000   1.0000   1.0000
     1.0000   1.0000   1.0000   1.0000   1.0000   1.0000   1.0000   1.0000
     1.0000   1.0000   1.0000   1.0000   1.0000   1.0000   1.0000   1.0000
     1.0000   1.0000   1.0000   1.0000   1.0000   1.0000   1.0000   1.0000
     1.0000   1.0000

          k =-0.0169 0.0214-0.1078 ( 36561 PWs)   bands (ev):

   -16.3567 -16.0844 -15.2305 -15.1873 -13.9022 -13.8550 -12.3326 -12.3074
   -11.2640 -11.2367  -9.0265  -8.9418  -8.2014  -8.1440  -6.3950  -6.3516
    -5.3907  -5.3239  -5.0960  -4.8800  -4.3327  -4.2675  -4.0593  -3.9440
    -3.7912  -3.7176  -2.8144  -2.7627  -2.6132  -2.4258  -2.4026  -2.2914
    -1.2951  -1.1848  -1.1015  -1.0081  -0.8302  -0.7906  -0.3169  -0.2413
     0.7011   0.7571

     occupation numbers 
     1.0000   1.0000   1.0000   1.0000   1.0000   1.0000   1.0000   1.0000
     1.0000   1.0000   1.0000   1.0000   1.0000   1.0000   1.0000   1.0000
     1.0000   1.0000   1.0000   1.0000   1.0000   1.0000   1.0000   1.0000
     1.0000   1.0000   1.0000   1.0000   1.0000   1.0000   1.0000   1.0000
     1.0000   1.0000   1.0000   1.0000   1.0000   1.0000   1.0000   1.0000
     1.0000   1.0000

          k =-0.0169 0.0214 0.0936 ( 36547 PWs)   bands (ev):

   -16.3550 -16.0871 -15.2324 -15.1852 -13.8951 -13.8587 -12.3390 -12.3032
   -11.2586 -11.2432  -9.0055  -8.9720  -8.2123  -8.1257  -6.4315  -6.3056
    -5.3873  -5.3339  -5.1204  -4.8258  -4.3680  -4.2142  -4.0908  -3.9569
    -3.7979  -3.7437  -2.7894  -2.7003  -2.6143  -2.4505  -2.4186  -2.2962
    -1.2681  -1.1777  -1.0987  -1.0357  -0.8869  -0.7610  -0.3158  -0.2427
     0.6854   0.7706

     occupation numbers 
     1.0000   1.0000   1.0000   1.0000   1.0000   1.0000   1.0000   1.0000
     1.0000   1.0000   1.0000   1.0000   1.0000   1.0000   1.0000   1.0000
     1.0000   1.0000   1.0000   1.0000   1.0000   1.0000   1.0000   1.0000
     1.0000   1.0000   1.0000   1.0000   1.0000   1.0000   1.0000   1.0000
     1.0000   1.0000   1.0000   1.0000   1.0000   1.0000   1.0000   1.0000
     1.0000   1.0000

          k =-0.0169 0.0214 0.0265 ( 36551 PWs)   bands (ev):

   -16.4193 -16.1588 -15.2915 -15.2288 -13.9043 -13.8821 -12.3691 -12.3409
   -11.2539 -11.2256  -9.0444  -8.9963  -8.2812  -8.1287  -6.4641  -6.2576
    -5.3881  -5.3418  -5.1561  -4.7027  -4.3674  -4.1128  -3.8856  -3.8300
    -3.3511  -3.2118  -2.8072  -2.5043  -2.4215  -2.3070  -2.1906  -2.1706
    -1.1993  -1.1322  -1.0169  -0.9385  -0.9064  -0.7393   0.0460   0.0567
     0.5775   0.7040

     occupation numbers 
     1.0000   1.0000   1.0000   1.0000   1.0000   1.0000   1.0000   1.0000
     1.0000   1.0000   1.0000   1.0000   1.0000   1.0000   1.0000   1.0000
     1.0000   1.0000   1.0000   1.0000   1.0000   1.0000   1.0000   1.0000
     1.0000   1.0000   1.0000   1.0000   1.0000   1.0000   1.0000   1.0000
     1.0000   1.0000   1.0000   1.0000   1.0000   1.0000   1.0000   1.0000
     1.0000   1.0000

          k =-0.0169 0.0643-0.0407 ( 36518 PWs)   bands (ev):

   -16.4029 -16.1304 -15.2842 -15.2344 -13.9361 -13.9162 -12.4204 -12.4001
   -11.2734 -11.2354  -8.9653  -8.8496  -8.1439  -8.1034  -6.4215  -6.3184
    -5.3349  -5.2741  -5.0991  -4.9324  -4.5047  -4.1938  -4.0920  -3.9129
    -3.3613  -3.2748  -2.7068  -2.4983  -2.4415  -2.3615  -2.1470  -2.1093
    -1.0865  -0.9750  -0.9254  -0.8571  -0.8300  -0.8036   0.0652   0.1427
     0.6418   0.7212

     occupation numbers 
     1.0000   1.0000   1.0000   1.0000   1.0000   1.0000   1.0000   1.0000
     1.0000   1.0000   1.0000   1.0000   1.0000   1.0000   1.0000   1.0000
     1.0000   1.0000   1.0000   1.0000   1.0000   1.0000   1.0000   1.0000
     1.0000   1.0000   1.0000   1.0000   1.0000   1.0000   1.0000   1.0000
     1.0000   1.0000   1.0000   1.0000   1.0000   1.0000   1.0000   1.0000
     1.0000   1.0000

          k =-0.0169 0.0643-0.1078 ( 36558 PWs)   bands (ev):

   -16.3437 -16.0660 -15.2253 -15.1843 -13.9122 -13.8825 -12.3732 -12.3489
   -11.2876 -11.2610  -8.9675  -8.8797  -8.1540  -8.1188  -6.3879  -6.3163
    -5.3500  -5.2876  -5.0115  -4.8813  -4.4517  -4.2723  -4.0895  -3.9881
    -3.9136  -3.8357  -2.7592  -2.6904  -2.5641  -2.5162  -2.3701  -2.3014
    -1.2639  -1.1396  -1.0531  -1.0037  -0.9042  -0.8069  -0.1807  -0.1332
     0.7297   0.7838

     occupation numbers 
     1.0000   1.0000   1.0000   1.0000   1.0000   1.0000   1.0000   1.0000
     1.0000   1.0000   1.0000   1.0000   1.0000   1.0000   1.0000   1.0000
     1.0000   1.0000   1.0000   1.0000   1.0000   1.0000   1.0000   1.0000
     1.0000   1.0000   1.0000   1.0000   1.0000   1.0000   1.0000   1.0000
     1.0000   1.0000   1.0000   1.0000   1.0000   1.0000   1.0000   1.0000
     1.0000   1.0000

          k =-0.0169 0.0643 0.0936 ( 36547 PWs)   bands (ev):

   -16.3418 -16.0692 -15.2220 -15.1871 -13.9093 -13.8821 -12.3789 -12.3445
   -11.2859 -11.2653  -8.9466  -8.9076  -8.1547  -8.1119  -6.4078  -6.2981
    -5.3523  -5.2955  -4.9836  -4.8421  -4.4714  -4.2687  -4.1303  -3.9670
    -3.9118  -3.8709  -2.7856  -2.6943  -2.5743  -2.5288  -2.3056  -2.2502
    -1.2514  -1.1497  -1.0865  -1.0219  -0.8864  -0.8241  -0.1911  -0.1370
     0.7295   0.7922

     occupation numbers 
     1.0000   1.0000   1.0000   1.0000   1.0000   1.0000   1.0000   1.0000
     1.0000   1.0000   1.0000   1.0000   1.0000   1.0000   1.0000   1.0000
     1.0000   1.0000   1.0000   1.0000   1.0000   1.0000   1.0000   1.0000
     1.0000   1.0000   1.0000   1.0000   1.0000   1.0000   1.0000   1.0000
     1.0000   1.0000   1.0000   1.0000   1.0000   1.0000   1.0000   1.0000
     1.0000   1.0000

          k =-0.0169 0.0643 0.0265 ( 36489 PWs)   bands (ev):

   -16.4012 -16.1332 -15.2818 -15.2363 -13.9356 -13.9139 -12.4252 -12.3955
   -11.2710 -11.2417  -8.9457  -8.8744  -8.1551  -8.0848  -6.4469  -6.3050
    -5.3409  -5.2702  -5.0679  -4.8978  -4.4941  -4.2231  -4.1003  -3.9676
    -3.3870  -3.2587  -2.6651  -2.4884  -2.4286  -2.3421  -2.1518  -2.1143
    -1.0860  -1.0092  -0.9440  -0.8672  -0.8414  -0.7681   0.0991   0.1123
     0.6391   0.7134

     occupation numbers 
     1.0000   1.0000   1.0000   1.0000   1.0000   1.0000   1.0000   1.0000
     1.0000   1.0000   1.0000   1.0000   1.0000   1.0000   1.0000   1.0000
     1.0000   1.0000   1.0000   1.0000   1.0000   1.0000   1.0000   1.0000
     1.0000   1.0000   1.0000   1.0000   1.0000   1.0000   1.0000   1.0000
     1.0000   1.0000   1.0000   1.0000   1.0000   1.0000   1.0000   1.0000
     1.0000   1.0000

     highest occupied level (ev):     0.7922

!    total energy              =    -548.03373322 Ry
     Harris-Foulkes estimate   =    -548.03373323 Ry
     estimated scf accuracy    <       0.00000002 Ry

     total all-electron energy =     -4615.877221 Ry

     The total energy is the sum of the following terms:

     one-electron contribution =    -152.06128634 Ry
     hartree contribution      =     107.37004831 Ry
     xc contribution           =    -104.27475101 Ry
     ewald contribution        =    -143.28178270 Ry
     one-center paw contrib.   =    -255.78596148 Ry
      -> PAW hartree energy AE =      18.92926482 Ry
      -> PAW hartree energy PS =     -18.82496330 Ry
      -> PAW xc energy AE      =     -55.61189888 Ry
      -> PAW xc energy PS      =      10.06660027 Ry
      -> total E_H with PAW    =     107.47434983 Ry
      -> total E_XC with PAW   =    -149.82004962 Ry

     convergence has been achieved in  11 iterations
 writing file ./scratch/scf-1678.save/charge-density
 writing file ./scratch/scf-1678.save/charge-density
 writing file ./scratch/scf-1678.save/charge-density
 writing file ./scratch/scf-1678.save/charge-density
 writing file ./scratch/scf-1678.save/charge-density
 writing file ./scratch/scf-1678.save/charge-density
 writing file ./scratch/scf-1678.save/charge-density
 writing file ./scratch/scf-1678.save/charge-density
 writing file ./scratch/scf-1678.save/charge-density
 writing file ./scratch/scf-1678.save/charge-density
 writing file ./scratch/scf-1678.save/charge-density
 writing file ./scratch/scf-1678.save/charge-density
 writing file ./scratch/scf-1678.save/charge-density
 writing file ./scratch/scf-1678.save/charge-density
 writing file ./scratch/scf-1678.save/charge-density
 writing file ./scratch/scf-1678.save/charge-density
 writing file ./scratch/scf-1678.save/charge-density
 writing file ./scratch/scf-1678.save/charge-density
 writing file ./scratch/scf-1678.save/charge-density
 writing file ./scratch/scf-1678.save/charge-density
 writing file ./scratch/scf-1678.save/charge-density
 writing file ./scratch/scf-1678.save/charge-density
 writing file ./scratch/scf-1678.save/charge-density
 writing file ./scratch/scf-1678.save/charge-density
 writing file ./scratch/scf-1678.save/charge-density
 writing file ./scratch/scf-1678.save/charge-density
 writing file ./scratch/scf-1678.save/charge-density
 writing file ./scratch/scf-1678.save/charge-density
 writing file ./scratch/scf-1678.save/charge-density
 writing file ./scratch/scf-1678.save/charge-density
 writing file ./scratch/scf-1678.save/charge-density
 writing file ./scratch/scf-1678.save/charge-density

     Forces acting on atoms (cartesian axes, Ry/au):

     atom    1 type  2   force =    -0.04736560    0.04068274   -0.00960855
     atom    2 type  1   force =     0.02872039   -0.02586443    0.01243425
     atom    3 type  1   force =    -0.01612626   -0.00800237   -0.00543668
     atom    4 type  3   force =    -0.00102096   -0.00607116   -0.00039449
     atom    5 type  1   force =     0.01167745    0.01527225    0.01283177
     atom    6 type  3   force =     0.00481709   -0.00070383    0.00277711
     atom    7 type  3   force =     0.00346979   -0.00002430   -0.00046561
     atom    8 type  1   force =     0.01007160   -0.00641760   -0.00582225
     atom    9 type  3   force =     0.00511082    0.00148494   -0.00472206
     atom   10 type  1   force =     0.00785694    0.01676917    0.00111464
     atom   11 type  1   force =     0.01714310    0.02894084   -0.01905210
     atom   12 type  2   force =    -0.02328091   -0.04188357    0.01694655
     atom   13 type  3   force =    -0.00452585   -0.00328242    0.00183345
     atom   14 type  1   force =     0.01734508   -0.02038535   -0.01654237
     atom   15 type  3   force =    -0.00078833    0.00261080   -0.00115778
     atom   16 type  1   force =     0.02058967   -0.04595628   -0.00549141
     atom   17 type  1   force =     0.05975931   -0.00351877    0.00204411
     atom   18 type  2   force =    -0.08068233    0.05868643    0.00449502
     atom   19 type  3   force =    -0.00222551   -0.00205735   -0.00432707
     atom   20 type  1   force =    -0.00723669    0.00759591    0.00396214
     atom   21 type  3   force =    -0.00025119   -0.00392685    0.00302387
     atom   22 type  1   force =     0.01041782   -0.00856278   -0.00657920
     atom   23 type  1   force =     0.03281117    0.01473805    0.02424826
     atom   24 type  2   force =    -0.04628660   -0.01012407   -0.00611160
     The non-local contrib.  to forces
     atom    1 type  2   force =    -0.30207128    0.25944342   -0.02983217
     atom    2 type  1   force =     0.40143521   -0.32930654    0.02326262
     atom    3 type  1   force =    -0.04924541   -0.05820445   -0.04606495
     atom    4 type  3   force =    -0.06536948   -0.03013060   -0.03207586
     atom    5 type  1   force =    -0.02303220   -0.03793905   -0.01202869
     atom    6 type  3   force =     0.00013999   -0.07121659   -0.03251103
     atom    7 type  3   force =     0.01136034   -0.06984586    0.03466595
     atom    8 type  1   force =     0.07711498   -0.05699398    0.00680289
     atom    9 type  3   force =     0.07234077   -0.02256726    0.02276319
     atom   10 type  1   force =     0.07719871   -0.01376300    0.03839035
     atom   11 type  1   force =    -0.38391474   -0.27915047   -0.01726974
     atom   12 type  2   force =     0.33389132    0.20290043    0.04128702
     atom   13 type  3   force =    -0.00072241    0.06895789    0.03730195
     atom   14 type  1   force =     0.06447794    0.02580590    0.01024337
     atom   15 type  3   force =     0.06546036    0.02761479    0.03433923
     atom   16 type  1   force =     0.05877947   -0.02541788    0.03495962
     atom   17 type  1   force =    -0.33979121    0.30313583    0.01980055
     atom   18 type  2   force =     0.30582744   -0.22423822   -0.01212412
     atom   19 type  3   force =    -0.01022065    0.06691602   -0.04020080
     atom   20 type  1   force =    -0.05947254    0.06084800   -0.02642655
     atom   21 type  3   force =    -0.07105727    0.01986431   -0.02742566
     atom   22 type  1   force =    -0.02523251    0.01503100   -0.05270094
     atom   23 type  1   force =     0.42945108    0.30307262   -0.00580963
     atom   24 type  2   force =    -0.34104627   -0.19814458    0.00676355
     The ionic contribution  to forces
     atom    1 type  2   force =     3.66716279   -2.89795710    0.30367901
     atom    2 type  1   force =     2.43852029   -1.71446644   -0.06853730
     atom    3 type  1   force =     4.03594579    2.02820193    1.99404346
     atom    4 type  3   force =     1.88468660    0.85788602    0.97292381
     atom    5 type  1   force =     0.59035253    4.06962454    1.82785449
     atom    6 type  3   force =     0.04883703    2.06856558    1.05828397
     atom    7 type  3   force =    -0.32529402    1.96301738   -1.07192764
     atom    8 type  1   force =    -0.66482605    4.42091255   -1.74025977
     atom    9 type  3   force =    -2.03332782    0.91244314   -0.77908879
     atom   10 type  1   force =    -3.67755352    2.18125528   -1.67540035
     atom   11 type  1   force =    -1.33453145   -1.75166521    0.50427384
     atom   12 type  2   force =    -5.48680810   -4.54546744   -0.48564187
     atom   13 type  3   force =    -0.32481180   -1.99647496   -1.27641489
     atom   14 type  1   force =    -1.38846858   -4.24104622   -2.21035728
     atom   15 type  3   force =    -2.08693904   -1.00838250   -1.18177404
     atom   16 type  1   force =    -4.69825666   -2.54776618   -2.83951228
     atom   17 type  1   force =    -2.48495757    1.18041744   -0.18289300
     atom   18 type  2   force =    -7.41137155    4.86828559   -0.72038576
     atom   19 type  3   force =     0.62102489   -1.90661296    1.30356618
     atom   20 type  1   force =     1.98870618   -4.34179701    2.42898712
     atom   21 type  3   force =     2.35260652   -0.78167939    1.03473038
     atom   22 type  1   force =     5.03300779   -1.94377545    2.41209276
     atom   23 type  1   force =     3.15014521    1.85264282   -0.24447134
     atom   24 type  2   force =     6.10615054    3.27383858    0.63622931
     The local contribution  to forces
     atom    1 type  2   force =    -3.42653596    2.69157626   -0.28490231
     atom    2 type  1   force =    -2.80002578    2.00908003    0.05798569
     atom    3 type  1   force =    -4.00134049   -1.97800941   -1.95316653
     atom    4 type  3   force =    -1.82032689   -0.83382706   -0.94123746
     atom    5 type  1   force =    -0.55567125   -4.01534586   -1.80229186
     atom    6 type  3   force =    -0.04415602   -1.99804188   -1.02299282
     atom    7 type  3   force =     0.31739836   -1.89321922    1.03680131
     atom    8 type  1   force =     0.59859372   -4.36911040    1.72682969
     atom    9 type  3   force =     1.96611825   -0.88839054    0.75160760
     atom   10 type  1   force =     3.60786139   -2.15001524    1.63791840
     atom   11 type  1   force =     1.72633191    2.05266401   -0.50573499
     atom   12 type  2   force =     5.14199705    4.30752354    0.46345947
     atom   13 type  3   force =     0.32100682    1.92424269    1.24095042
     atom   14 type  1   force =     1.34197380    4.19351488    2.18300344
     atom   15 type  3   force =     2.02070277    0.98337686    1.14628088
     atom   16 type  1   force =     4.65907878    2.52527053    2.79793631
     atom   17 type  1   force =     2.87643757   -1.47994648    0.16626785
     atom   18 type  2   force =     7.03376469   -4.59187838    0.73672594
     atom   19 type  3   force =    -0.61303567    1.83763002   -1.26769343
     atom   20 type  1   force =    -1.93715669    4.28734576   -2.39807963
     atom   21 type  3   force =    -2.28179458    0.75789271   -1.00427989
     atom   22 type  1   force =    -4.99615704    1.91976566   -2.36585948
     atom   23 type  1   force =    -3.53542157   -2.13279319    0.27313880
     atom   24 type  2   force =    -5.82719017   -3.09465545   -0.64905480
     The core correction contribution to forces
     atom    1 type  2   force =     0.01416781   -0.01233884    0.00151626
     atom    2 type  1   force =    -0.01117932    0.00879534   -0.00026962
     atom    3 type  1   force =    -0.00140633    0.00001322   -0.00021639
     atom    4 type  3   force =     0.00000000    0.00000000    0.00000000
     atom    5 type  1   force =     0.00004231   -0.00102939   -0.00068450
     atom    6 type  3   force =     0.00000000    0.00000000    0.00000000
     atom    7 type  3   force =     0.00000000    0.00000000    0.00000000
     atom    8 type  1   force =    -0.00086628   -0.00124973    0.00079160
     atom    9 type  3   force =     0.00000000    0.00000000    0.00000000
     atom   10 type  1   force =     0.00035618   -0.00063730    0.00017566
     atom   11 type  1   force =     0.00920471    0.00717306   -0.00037294
     atom   12 type  2   force =    -0.01238545   -0.00680186   -0.00220718
     atom   13 type  3   force =     0.00000000    0.00000000    0.00000000
     atom   14 type  1   force =    -0.00067411    0.00131128    0.00055671
     atom   15 type  3   force =     0.00000000    0.00000000    0.00000000
     atom   16 type  1   force =     0.00098693    0.00190521    0.00110908
     atom   17 type  1   force =     0.00804484   -0.00713744   -0.00115041
     atom   18 type  2   force =    -0.00885952    0.00655803    0.00028251
     atom   19 type  3   force =     0.00000000    0.00000000    0.00000000
     atom   20 type  1   force =     0.00065548    0.00119718   -0.00053103
     atom   21 type  3   force =     0.00000000    0.00000000    0.00000000
     atom   22 type  1   force =    -0.00121773    0.00046897   -0.00014150
     atom   23 type  1   force =    -0.01145677   -0.00814148    0.00134800
     atom   24 type  2   force =     0.01573544    0.00879969   -0.00002291
     The Hubbard contrib.    to forces
     atom    1 type  2   force =     0.00000000    0.00000000    0.00000000
     atom    2 type  1   force =     0.00000000    0.00000000    0.00000000
     atom    3 type  1   force =     0.00000000    0.00000000    0.00000000
     atom    4 type  3   force =     0.00000000    0.00000000    0.00000000
     atom    5 type  1   force =     0.00000000    0.00000000    0.00000000
     atom    6 type  3   force =     0.00000000    0.00000000    0.00000000
     atom    7 type  3   force =     0.00000000    0.00000000    0.00000000
     atom    8 type  1   force =     0.00000000    0.00000000    0.00000000
     atom    9 type  3   force =     0.00000000    0.00000000    0.00000000
     atom   10 type  1   force =     0.00000000    0.00000000    0.00000000
     atom   11 type  1   force =     0.00000000    0.00000000    0.00000000
     atom   12 type  2   force =     0.00000000    0.00000000    0.00000000
     atom   13 type  3   force =     0.00000000    0.00000000    0.00000000
     atom   14 type  1   force =     0.00000000    0.00000000    0.00000000
     atom   15 type  3   force =     0.00000000    0.00000000    0.00000000
     atom   16 type  1   force =     0.00000000    0.00000000    0.00000000
     atom   17 type  1   force =     0.00000000    0.00000000    0.00000000
     atom   18 type  2   force =     0.00000000    0.00000000    0.00000000
     atom   19 type  3   force =     0.00000000    0.00000000    0.00000000
     atom   20 type  1   force =     0.00000000    0.00000000    0.00000000
     atom   21 type  3   force =     0.00000000    0.00000000    0.00000000
     atom   22 type  1   force =     0.00000000    0.00000000    0.00000000
     atom   23 type  1   force =     0.00000000    0.00000000    0.00000000
     atom   24 type  2   force =     0.00000000    0.00000000    0.00000000
     The SCF correction term to forces
     atom    1 type  2   force =    -0.00008834   -0.00003976   -0.00006912
     atom    2 type  1   force =    -0.00002938    0.00003443   -0.00000691
     atom    3 type  1   force =    -0.00007920   -0.00000240   -0.00003204
     atom    4 type  3   force =    -0.00001057    0.00000173   -0.00000474
     atom    5 type  1   force =    -0.00001331   -0.00003674   -0.00001745
     atom    6 type  3   force =    -0.00000330   -0.00000969   -0.00000278
     atom    7 type  3   force =     0.00000573    0.00002465   -0.00000500
     atom    8 type  1   force =     0.00005584    0.00002521    0.00001358
     atom    9 type  3   force =    -0.00001976    0.00000085   -0.00000383
     atom   10 type  1   force =    -0.00000519   -0.00006934    0.00003081
     atom   11 type  1   force =     0.00005330   -0.00007930    0.00005197
     atom   12 type  2   force =     0.00002489   -0.00003700    0.00004934
     atom   13 type  3   force =     0.00000216   -0.00000679   -0.00000381
     atom   14 type  1   force =     0.00003665    0.00003005    0.00001162
     atom   15 type  3   force =    -0.00001179    0.00000289   -0.00000363
     atom   16 type  1   force =     0.00000178    0.00005328    0.00001610
     atom   17 type  1   force =     0.00002632    0.00001313    0.00001935
     atom   18 type  2   force =    -0.00004278   -0.00003934   -0.00000333
     atom   19 type  3   force =     0.00000654    0.00001083    0.00000120
     atom   20 type  1   force =     0.00003151    0.00000323    0.00001246
     atom   21 type  3   force =    -0.00000524   -0.00000324   -0.00000072
     atom   22 type  1   force =     0.00001792   -0.00005171    0.00003018
     atom   23 type  1   force =     0.00009385   -0.00004148    0.00004266
     atom   24 type  2   force =     0.00006448    0.00003894   -0.00002652

     Total force =     0.181623     Total SCF correction =     0.000295

     Writing output data file scf-1678.save
 writing file ./scratch/scf-1678.save/charge-density
 writing file ./scratch/scf-1678.save/charge-density
 writing file ./scratch/scf-1678.save/charge-density
 writing file ./scratch/scf-1678.save/charge-density
 writing file ./scratch/scf-1678.save/charge-density
 writing file ./scratch/scf-1678.save/charge-density
 writing file ./scratch/scf-1678.save/charge-density
 writing file ./scratch/scf-1678.save/charge-density
 writing file ./scratch/scf-1678.save/charge-density
 writing file ./scratch/scf-1678.save/charge-density
 writing file ./scratch/scf-1678.save/charge-density
 writing file ./scratch/scf-1678.save/charge-density
 writing file ./scratch/scf-1678.save/charge-density
 writing file ./scratch/scf-1678.save/charge-density
 writing file ./scratch/scf-1678.save/charge-density
 writing file ./scratch/scf-1678.save/charge-density
 writing file ./scratch/scf-1678.save/charge-density
 writing file ./scratch/scf-1678.save/charge-density
 writing file ./scratch/scf-1678.save/charge-density
 writing file ./scratch/scf-1678.save/charge-density
 writing file ./scratch/scf-1678.save/charge-density
 writing file ./scratch/scf-1678.save/charge-density
 writing file ./scratch/scf-1678.save/charge-density
 writing file ./scratch/scf-1678.save/charge-density
 writing file ./scratch/scf-1678.save/charge-density
 writing file ./scratch/scf-1678.save/charge-density
 writing file ./scratch/scf-1678.save/charge-density
 writing file ./scratch/scf-1678.save/charge-density
 writing file ./scratch/scf-1678.save/charge-density
 writing file ./scratch/scf-1678.save/charge-density
 writing file ./scratch/scf-1678.save/charge-density
 writing file ./scratch/scf-1678.save/charge-density
 
     init_run     :      4.38s CPU      4.59s WALL (       1 calls)
     electrons    :     50.21s CPU     52.99s WALL (       1 calls)
     forces       :      3.27s CPU      3.41s WALL (       1 calls)

     Called by init_run:
     wfcinit      :      1.59s CPU      1.62s WALL (       1 calls)
     wfcinit:atom :      0.02s CPU      0.02s WALL (      16 calls)
     wfcinit:wfcr :      1.48s CPU      1.50s WALL (      16 calls)
     potinit      :      0.90s CPU      0.91s WALL (       1 calls)

     Called by electrons:
     c_bands      :     39.16s CPU     39.43s WALL (      11 calls)
     sum_band     :      6.94s CPU      8.11s WALL (      11 calls)
     v_of_rho     :      0.94s CPU      0.97s WALL (      12 calls)
     v_h          :      0.06s CPU      0.06s WALL (      12 calls)
     v_xc         :      0.95s CPU      0.98s WALL (      13 calls)
     newd         :      1.54s CPU      2.87s WALL (      12 calls)
     PAW_pot      :      1.63s CPU      1.70s WALL (      12 calls)
     mix_rho      :      0.14s CPU      0.14s WALL (      11 calls)

     Called by c_bands:
     init_us_2    :      0.90s CPU      0.87s WALL (     384 calls)
     cegterg      :     36.88s CPU     37.06s WALL (     176 calls)

     Called by sum_band:
     sum_band:bec :      0.02s CPU      0.02s WALL (     176 calls)
     addusdens    :      1.52s CPU      2.65s WALL (      11 calls)

     Called by *egterg:
     h_psi        :     27.49s CPU     27.72s WALL (     863 calls)
     s_psi        :      2.08s CPU      1.98s WALL (     863 calls)
     g_psi        :      0.19s CPU      0.16s WALL (     671 calls)
     cdiaghg      :      3.33s CPU      3.40s WALL (     847 calls)
     cegterg:over :      1.75s CPU      1.69s WALL (     671 calls)
     cegterg:upda :      1.17s CPU      1.25s WALL (     671 calls)
     cegterg:last :      0.48s CPU      0.43s WALL (     192 calls)

     Called by h_psi:
     h_psi:pot    :     27.26s CPU     27.47s WALL (     863 calls)
     h_psi:calbec :      2.29s CPU      2.27s WALL (     863 calls)
     vloc_psi     :     23.14s CPU     23.25s WALL (     863 calls)
     add_vuspsi   :      1.83s CPU      1.94s WALL (     863 calls)

     General routines
     calbec       :      3.04s CPU      3.01s WALL (    1103 calls)
     fft          :      0.70s CPU      0.77s WALL (     199 calls)
     ffts         :      0.01s CPU      0.03s WALL (      23 calls)
     fftw         :     22.44s CPU     22.48s WALL (   55604 calls)
     interpolate  :      0.13s CPU      0.15s WALL (      23 calls)
     davcio       :      0.00s CPU      0.01s WALL (      16 calls)
 
     Parallel routines
     fft_scatter  :      8.76s CPU      8.76s WALL (   55826 calls)

     PAW routines
     PAW_pot      :      1.63s CPU      1.70s WALL (      12 calls)
 
     PWSCF        :  0m58.53s CPU     1m 2.12s WALL

 
   This run was terminated on:  15:35:54  22May2017            

=------------------------------------------------------------------------------=
   JOB DONE.
=------------------------------------------------------------------------------=
