
     Program PWSCF v.6.1 starts on 20May2017 at 12:20:15 

     This program is part of the open-source Quantum ESPRESSO suite
     for quantum simulation of materials; please cite
         "P. Giannozzi et al., J. Phys.:Condens. Matter 21 395502 (2009);
          URL http://www.quantum-espresso.org", 
     in publications or presentations arising from this work. More details at
     http://www.quantum-espresso.org/quote

     Parallel version (MPI & OpenMP), running on      32 processor cores
     Number of MPI processes:                32
     Threads/MPI process:                     1
     R & G space division:  proc/nbgrp/npool/nimage =      32
     Waiting for input...
     Reading input from standard input
Warning: card &IONS ignored
Warning: card     ION_TEMPERATURE   = 'INITIAL' ignored
Warning: card     TEMPW             = 586.D0 ignored
Warning: card     TOLP              = 100.D0 ignored
Warning: card     DELTA_T           = 1.D0 ignored
Warning: card     NRAISE            = 1 ignored
Warning: card / ignored
Warning: card &CELL ignored
Warning: card     CELL_DYNAMICS     = 'BFGS' ignored
Warning: card / ignored

     Current dimensions of program PWSCF are:
     Max number of different atomic species (ntypx) = 10
     Max number of k-points (npk) =  40000
     Max angular momentum in pseudopotentials (lmaxx) =  3
               file C.pbe-n-kjpaw_psl.1.0.0.UPF: wavefunction(s)  2S 2P renormalized
               file Cl.pbe-n-kjpaw_psl.1.0.0.UPF: wavefunction(s)  3S 3P renormalized
               file H.pbe-kjpaw_psl.1.0.0.UPF: wavefunction(s)  1S renormalized

     Subspace diagonalization in iterative solution of the eigenvalue problem:
     a serial algorithm will be used

 
     Parallelization info
     --------------------
     sticks:   dense  smooth     PW     G-vecs:    dense   smooth      PW
     Min         764     305     83                36108     9133    1292
     Max         765     306     84                36110     9135    1293
     Sum       24467    9791   2657              1155489   292295   41363
 


     bravais-lattice index     =            0
     lattice parameter (alat)  =       1.8897  a.u.
     unit-cell volume          =    2163.5316 (a.u.)^3
     number of atoms/cell      =           24
     number of atomic types    =            3
     number of electrons       =        84.00
     number of Kohn-Sham states=           42
     kinetic-energy cutoff     =     100.0000  Ry
     charge density cutoff     =    1000.0000  Ry
     convergence threshold     =      1.0E-07
     mixing beta               =       0.7000
     number of iterations used =            8  plain     mixing
     Exchange-correlation      =  SLA  PW   PBX  PBC ( 1  4  3  4 0 0)

     celldm(1)=   1.889726  celldm(2)=   0.000000  celldm(3)=   0.000000
     celldm(4)=   0.000000  celldm(5)=   0.000000  celldm(6)=   0.000000

     crystal axes: (cart. coord. in units of alat)
               a(1) = (  14.762000   0.000000   0.000000 )  
               a(2) = (   0.000000   5.832000   0.000000 )  
               a(3) = (  -1.563876   0.000000   3.723951 )  

     reciprocal axes: (cart. coord. in units 2 pi/alat)
               b(1) = (  0.067741  0.000000  0.028448 )  
               b(2) = (  0.000000  0.171468  0.000000 )  
               b(3) = (  0.000000  0.000000  0.268532 )  


     PseudoPot. # 1 for  C read from file:
     /global/cscratch1/sd/almno10/.data/PSEUDOPOTENTIALS/C.pbe-n-kjpaw_psl.1.0.0.UPF
     MD5 check sum: 2ba8448e293caca687844dde9a1b88a8
     Pseudo is Projector augmented-wave + core cor, Zval =  4.0
     Generated using "atomic" code by A. Dal Corso  v.5.3.0 svn rev. 11974
     Shape of augmentation charge: PSQ
     Using radial grid of 1073 points,  4 beta functions with: 
                l(1) =   0
                l(2) =   0
                l(3) =   1
                l(4) =   1
     Q(r) pseudized with 0 coefficients 


     PseudoPot. # 2 for Cl read from file:
     /global/cscratch1/sd/almno10/.data/PSEUDOPOTENTIALS/Cl.pbe-n-kjpaw_psl.1.0.0.UPF
     MD5 check sum: dca63699d6b897c5771335df08a09219
     Pseudo is Projector augmented-wave + core cor, Zval =  7.0
     Generated using "atomic" code by A. Dal Corso  v.5.3.0 svn rev. 11974
     Shape of augmentation charge: PSQ
     Using radial grid of 1157 points,  6 beta functions with: 
                l(1) =   0
                l(2) =   0
                l(3) =   1
                l(4) =   1
                l(5) =   2
                l(6) =   2
     Q(r) pseudized with 0 coefficients 


     PseudoPot. # 3 for  H read from file:
     /global/cscratch1/sd/almno10/.data/PSEUDOPOTENTIALS/H.pbe-kjpaw_psl.1.0.0.UPF
     MD5 check sum: bc0feb48a24907a0b97fa6ee2d589a29
     Pseudo is Projector augmented-wave, Zval =  1.0
     Generated using "atomic" code by A. Dal Corso  v.5.3.0 svn rev. 11974
     Shape of augmentation charge: PSQ
     Using radial grid of  929 points,  2 beta functions with: 
                l(1) =   0
                l(2) =   0
     Q(r) pseudized with 0 coefficients 


     atomic species   valence    mass     pseudopotential
        C              4.00    12.01100      C( 1.00)
        Cl             7.00    35.45270     Cl( 1.00)
        H              1.00     1.00790      H( 1.00)

     No symmetry found


                                    s                        frac. trans.

      isym =  1     identity                                     

 cryst.   s( 1) = (     1          0          0      )
                  (     0          1          0      )
                  (     0          0          1      )

 cart.    s( 1) = (  1.0000000  0.0000000 -0.0000000 )
                  (  0.0000000  1.0000000  0.0000000 )
                  (  0.0000000  0.0000000  1.0000000 )


   Cartesian axes

     site n.     atom                  positions (alat units)
         1           Cl  tau(   1) = (  16.4034385   0.9199472   1.4609044  )
         2           C   tau(   2) = (  14.8971675   1.9143789   1.6613656  )
         3           C   tau(   3) = (  15.0637005   3.0806977   2.4073728  )
         4           H   tau(   4) = (  16.0422772   3.4057446   2.7582317  )
         5           C   tau(   5) = (  13.9726446   3.9455703   2.4846099  )
         6           H   tau(   6) = (  14.0505806   4.8668560   3.0599856  )
         7           H   tau(   7) = (   6.7718142   2.1710017   0.4157002  )
         8           C   tau(   8) = (   6.7677931   1.2975326   1.0649081  )
         9           H   tau(   9) = (   4.8023015   0.6622782   0.4463439  )
        10           C   tau(  10) = (   5.6579469   0.4531418   1.0863331  )
        11           C   tau(  11) = (   5.6441739  -0.6731148   1.9086109  )
        12           Cl  tau(  12) = (   4.2416188  -1.6832448   1.6565673  )
        13           H   tau(  13) = (  13.5459748   0.6096495   0.6208873  )
        14           C   tau(  14) = (  13.6517975   1.5577042   1.1434698  )
        15           H   tau(  15) = (  11.5627234   2.0607978   0.9728703  )
        16           C   tau(  16) = (  12.5268099   2.3468191   1.3860661  )
        17           C   tau(  17) = (  12.7101518   3.5461062   2.0463725  )
        18           Cl  tau(  18) = (  11.3954903   4.5538177   2.2444926  )
        19           H   tau(  19) = (   6.7130220  -1.8394662   3.4023047  )
        20           C   tau(  20) = (   6.7237404  -0.9771575   2.7380687  )
        21           H   tau(  21) = (   8.6766988  -0.3257875   3.3725772  )
        22           C   tau(  22) = (   7.8211328  -0.1187326   2.7331545  )
        23           C   tau(  23) = (   7.8457714   0.9931389   1.8935913  )
        24           Cl  tau(  24) = (   9.1870160   2.0869984   2.0103675  )

   Crystallographic axes

     site n.     atom                  positions (cryst. coord.)
         1           Cl  tau(   1) = (  1.1527534  0.1577413  0.3922995  )
         2           C   tau(   2) = (  1.0564191  0.3282543  0.4461298  )
         3           C   tau(   3) = (  1.0889228  0.5282403  0.6464565  )
         4           H   tau(   4) = (  1.1651943  0.5839754  0.7406734  )
         5           C   tau(   5) = (  1.0172103  0.6765381  0.6671972  )
         6           H   tau(   6) = (  1.0388581  0.8345089  0.8217039  )
         7           H   tau(   7) = (  0.4705587  0.3722568  0.1116288  )
         8           C   tau(   8) = (  0.4887550  0.2224850  0.2859619  )
         9           H   tau(   9) = (  0.3380127  0.1135594  0.1198576  )
        10           C   tau(  10) = (  0.4141819  0.0776992  0.2917152  )
        11           C   tau(  11) = (  0.4366411 -0.1154175  0.5125231  )
        12           Cl  tau(  12) = (  0.3344598 -0.2886222  0.4448413  )
        13           H   tau(  13) = (  0.9352877  0.1045352  0.1667281  )
        14           C   tau(  14) = (  0.9573227  0.2670961  0.3070582  )
        15           H   tau(  15) = (  0.8109525  0.3533604  0.2612468  )
        16           C   tau(  16) = (  0.8880158  0.4024038  0.3722031  )
        17           C   tau(  17) = (  0.9192201  0.6080429  0.5495164  )
        18           Cl  tau(  18) = (  0.8357991  0.7808329  0.6027180  )
        19           H   tau(  19) = (  0.5515392 -0.3154092  0.9136276  )
        20           C   tau(  20) = (  0.5333691 -0.1675510  0.7352590  )
        21           H   tau(  21) = (  0.6837159 -0.0558620  0.9056448  )
        22           C   tau(  22) = (  0.6075683 -0.0203588  0.7339394  )
        23           C   tau(  23) = (  0.5853534  0.1702913  0.5084898  )
        24           Cl  tau(  24) = (  0.6795333  0.3578529  0.5398479  )

     number of k points=    16
                       cart. coord. in units 2pi/alat
        k(    1) = (   0.0169354   0.0214335   0.0406785), wk =   0.1250000
        k(    2) = (   0.0169354   0.0214335   0.1078115), wk =   0.1250000
        k(    3) = (   0.0169354   0.0214335  -0.0935875), wk =   0.1250000
        k(    4) = (   0.0169354   0.0214335  -0.0264545), wk =   0.1250000
        k(    5) = (   0.0169354   0.0643004   0.0406785), wk =   0.1250000
        k(    6) = (   0.0169354   0.0643004   0.1078115), wk =   0.1250000
        k(    7) = (   0.0169354   0.0643004  -0.0935875), wk =   0.1250000
        k(    8) = (   0.0169354   0.0643004  -0.0264545), wk =   0.1250000
        k(    9) = (  -0.0169354   0.0214335  -0.0406785), wk =   0.1250000
        k(   10) = (  -0.0169354   0.0214335  -0.1078115), wk =   0.1250000
        k(   11) = (  -0.0169354   0.0214335   0.0935875), wk =   0.1250000
        k(   12) = (  -0.0169354   0.0214335   0.0264545), wk =   0.1250000
        k(   13) = (  -0.0169354   0.0643004  -0.0406785), wk =   0.1250000
        k(   14) = (  -0.0169354   0.0643004  -0.1078115), wk =   0.1250000
        k(   15) = (  -0.0169354   0.0643004   0.0935875), wk =   0.1250000
        k(   16) = (  -0.0169354   0.0643004   0.0264545), wk =   0.1250000

                       cryst. coord.
        k(    1) = (   0.2500000   0.1250000   0.1250000), wk =   0.1250000
        k(    2) = (   0.2500000   0.1250000   0.3750000), wk =   0.1250000
        k(    3) = (   0.2500000   0.1250000  -0.3750000), wk =   0.1250000
        k(    4) = (   0.2500000   0.1250000  -0.1250000), wk =   0.1250000
        k(    5) = (   0.2500000   0.3750000   0.1250000), wk =   0.1250000
        k(    6) = (   0.2500000   0.3750000   0.3750000), wk =   0.1250000
        k(    7) = (   0.2500000   0.3750000  -0.3750000), wk =   0.1250000
        k(    8) = (   0.2500000   0.3750000  -0.1250000), wk =   0.1250000
        k(    9) = (  -0.2500000   0.1250000  -0.1250000), wk =   0.1250000
        k(   10) = (  -0.2500000   0.1250000  -0.3750000), wk =   0.1250000
        k(   11) = (  -0.2500000   0.1250000   0.3750000), wk =   0.1250000
        k(   12) = (  -0.2500000   0.1250000   0.1250000), wk =   0.1250000
        k(   13) = (  -0.2500000   0.3750000  -0.1250000), wk =   0.1250000
        k(   14) = (  -0.2500000   0.3750000  -0.3750000), wk =   0.1250000
        k(   15) = (  -0.2500000   0.3750000   0.3750000), wk =   0.1250000
        k(   16) = (  -0.2500000   0.3750000   0.1250000), wk =   0.1250000

     Dense  grid:  1155489 G-vectors     FFT dimensions: ( 288, 120,  80)

     Smooth grid:   292295 G-vectors     FFT dimensions: ( 180,  72,  50)

     Estimated max dynamical RAM per process >     147.21MB

     Estimated total allocated dynamical RAM >    4710.62MB

     Initial potential from superposition of free atoms

     starting charge   83.99939, renormalised to   84.00000
     Starting wfc are   72 randomized atomic wfcs
     Checking if some PAW data can be deallocated... 
       node    0, deallocated PAW data for type:  1
       node    0, deallocated PAW data for type:  3
       node    1, deallocated PAW data for type:  1
       node    1, deallocated PAW data for type:  3
       node    2, deallocated PAW data for type:  2
       node    2, deallocated PAW data for type:  3
       node    3, deallocated PAW data for type:  2
       node    3, deallocated PAW data for type:  3
       node    4, deallocated PAW data for type:  2
       node    4, deallocated PAW data for type:  3
       node    5, deallocated PAW data for type:  2
       node    5, deallocated PAW data for type:  3
       node    6, deallocated PAW data for type:  1
       node    6, deallocated PAW data for type:  2
       node    7, deallocated PAW data for type:  1
       node    7, deallocated PAW data for type:  2
       node    8, deallocated PAW data for type:  2
       node    8, deallocated PAW data for type:  3
       node    9, deallocated PAW data for type:  2
       node    9, deallocated PAW data for type:  3
       node   10, deallocated PAW data for type:  1
       node   10, deallocated PAW data for type:  2
       node   11, deallocated PAW data for type:  1
       node   11, deallocated PAW data for type:  2
       node   12, deallocated PAW data for type:  1
       node   12, deallocated PAW data for type:  2
       node   13, deallocated PAW data for type:  1
       node   13, deallocated PAW data for type:  2
       node   14, deallocated PAW data for type:  2
       node   14, deallocated PAW data for type:  3
       node   15, deallocated PAW data for type:  2
       node   15, deallocated PAW data for type:  3
       node   16, deallocated PAW data for type:  1
       node   16, deallocated PAW data for type:  2
       node   17, deallocated PAW data for type:  2
       node   17, deallocated PAW data for type:  3
       node   18, deallocated PAW data for type:  2
       node   18, deallocated PAW data for type:  3
       node   19, deallocated PAW data for type:  1
       node   19, deallocated PAW data for type:  3
       node   20, deallocated PAW data for type:  1
       node   20, deallocated PAW data for type:  2
       node   21, deallocated PAW data for type:  2
       node   21, deallocated PAW data for type:  3
       node   22, deallocated PAW data for type:  1
       node   22, deallocated PAW data for type:  2
       node   23, deallocated PAW data for type:  2
       node   23, deallocated PAW data for type:  3
       node   24, deallocated PAW data for type:  2
       node   24, deallocated PAW data for type:  3
       node   25, deallocated PAW data for type:  1
       node   25, deallocated PAW data for type:  3
       node   26, deallocated PAW data for type:  1
       node   26, deallocated PAW data for type:  2
       node   27, deallocated PAW data for type:  2
       node   27, deallocated PAW data for type:  3
       node   28, deallocated PAW data for type:  1
       node   28, deallocated PAW data for type:  2
       node   29, deallocated PAW data for type:  2
       node   29, deallocated PAW data for type:  3
       node   30, deallocated PAW data for type:  2
       node   30, deallocated PAW data for type:  3
       node   31, deallocated PAW data for type:  1
       node   31, deallocated PAW data for type:  3

     total cpu time spent up to now is        5.2 secs

     per-process dynamical memory:    20.7 Mb

     Self-consistent Calculation

     iteration #  1     ecut=   100.00 Ry     beta= 0.70
     Davidson diagonalization with overlap
     ethr =  1.00E-04,  avg # of iterations =  5.0

     total cpu time spent up to now is       12.0 secs

     total energy              =    -547.11532447 Ry
     Harris-Foulkes estimate   =    -548.99914683 Ry
     estimated scf accuracy    <       2.75300121 Ry

     iteration #  2     ecut=   100.00 Ry     beta= 0.70
     Davidson diagonalization with overlap
     ethr =  3.28E-03,  avg # of iterations =  3.0

     total cpu time spent up to now is       16.9 secs

     total energy              =    -547.52076873 Ry
     Harris-Foulkes estimate   =    -548.61048364 Ry
     estimated scf accuracy    <       1.96801797 Ry

     iteration #  3     ecut=   100.00 Ry     beta= 0.70
     Davidson diagonalization with overlap
     ethr =  2.34E-03,  avg # of iterations =  2.9

     total cpu time spent up to now is       21.2 secs

     total energy              =    -548.00971043 Ry
     Harris-Foulkes estimate   =    -548.05263915 Ry
     estimated scf accuracy    <       0.08583960 Ry

     iteration #  4     ecut=   100.00 Ry     beta= 0.70
     Davidson diagonalization with overlap
     ethr =  1.02E-04,  avg # of iterations =  4.0

     total cpu time spent up to now is       26.0 secs

     total energy              =    -548.03730194 Ry
     Harris-Foulkes estimate   =    -548.04855529 Ry
     estimated scf accuracy    <       0.02221968 Ry

     iteration #  5     ecut=   100.00 Ry     beta= 0.70
     Davidson diagonalization with overlap
     ethr =  2.65E-05,  avg # of iterations =  3.0

     total cpu time spent up to now is       30.4 secs

     total energy              =    -548.04169314 Ry
     Harris-Foulkes estimate   =    -548.04262046 Ry
     estimated scf accuracy    <       0.00170346 Ry

     iteration #  6     ecut=   100.00 Ry     beta= 0.70
     Davidson diagonalization with overlap
     ethr =  2.03E-06,  avg # of iterations =  4.0

     total cpu time spent up to now is       35.3 secs

     total energy              =    -548.04200720 Ry
     Harris-Foulkes estimate   =    -548.04267121 Ry
     estimated scf accuracy    <       0.00169458 Ry

     iteration #  7     ecut=   100.00 Ry     beta= 0.70
     Davidson diagonalization with overlap
     ethr =  2.02E-06,  avg # of iterations =  4.0

     total cpu time spent up to now is       39.5 secs

     total energy              =    -548.04234023 Ry
     Harris-Foulkes estimate   =    -548.04238438 Ry
     estimated scf accuracy    <       0.00011781 Ry

     iteration #  8     ecut=   100.00 Ry     beta= 0.70
     Davidson diagonalization with overlap
     ethr =  1.40E-07,  avg # of iterations =  4.0

     total cpu time spent up to now is       44.1 secs

     total energy              =    -548.04236516 Ry
     Harris-Foulkes estimate   =    -548.04237401 Ry
     estimated scf accuracy    <       0.00001984 Ry

     iteration #  9     ecut=   100.00 Ry     beta= 0.70
     Davidson diagonalization with overlap
     ethr =  2.36E-08,  avg # of iterations =  4.0

     total cpu time spent up to now is       48.7 secs

     total energy              =    -548.04236958 Ry
     Harris-Foulkes estimate   =    -548.04237041 Ry
     estimated scf accuracy    <       0.00000186 Ry

     iteration # 10     ecut=   100.00 Ry     beta= 0.70
     Davidson diagonalization with overlap
     ethr =  2.22E-09,  avg # of iterations =  4.0

     total cpu time spent up to now is       53.4 secs

     total energy              =    -548.04237005 Ry
     Harris-Foulkes estimate   =    -548.04237025 Ry
     estimated scf accuracy    <       0.00000043 Ry

     iteration # 11     ecut=   100.00 Ry     beta= 0.70
     Davidson diagonalization with overlap
     ethr =  5.13E-10,  avg # of iterations =  4.0

     total cpu time spent up to now is       58.0 secs

     End of self-consistent calculation

          k = 0.0169 0.0214 0.0407 ( 36525 PWs)   bands (ev):

   -16.3060 -16.1305 -15.4596 -15.2172 -13.9996 -13.8264 -12.3777 -12.2676
   -11.2895 -11.1511  -9.0383  -8.9142  -8.2605  -8.0882  -6.4102  -6.2830
    -5.3925  -5.2715  -5.0697  -4.7980  -4.2261  -4.1544  -3.9765  -3.8912
    -3.2170  -3.2006  -2.7485  -2.6178  -2.4454  -2.3520  -2.2549  -2.0960
    -1.2329  -1.1717  -0.9858  -0.9663  -0.8533  -0.7324  -0.1815   0.1794
     0.5561   0.7277

     occupation numbers 
     1.0000   1.0000   1.0000   1.0000   1.0000   1.0000   1.0000   1.0000
     1.0000   1.0000   1.0000   1.0000   1.0000   1.0000   1.0000   1.0000
     1.0000   1.0000   1.0000   1.0000   1.0000   1.0000   1.0000   1.0000
     1.0000   1.0000   1.0000   1.0000   1.0000   1.0000   1.0000   1.0000
     1.0000   1.0000   1.0000   1.0000   1.0000   1.0000   1.0000   1.0000
     1.0000   1.0000

          k = 0.0169 0.0214 0.1078 ( 36561 PWs)   bands (ev):

   -16.2209 -16.0455 -15.4155 -15.1550 -13.9623 -13.8289 -12.4052 -12.2333
   -11.2747 -11.1836  -9.0098  -8.8866  -8.2562  -8.0493  -6.4011  -6.3420
    -5.3896  -5.2957  -5.0933  -4.9135  -4.3370  -4.2079  -4.0831  -4.0073
    -3.8001  -3.7390  -2.8381  -2.7589  -2.6298  -2.4430  -2.4057  -2.2876
    -1.3444  -1.2376  -1.0602  -0.9682  -0.8388  -0.7171  -0.1942  -0.1504
     0.6282   0.9200

     occupation numbers 
     1.0000   1.0000   1.0000   1.0000   1.0000   1.0000   1.0000   1.0000
     1.0000   1.0000   1.0000   1.0000   1.0000   1.0000   1.0000   1.0000
     1.0000   1.0000   1.0000   1.0000   1.0000   1.0000   1.0000   1.0000
     1.0000   1.0000   1.0000   1.0000   1.0000   1.0000   1.0000   1.0000
     1.0000   1.0000   1.0000   1.0000   1.0000   1.0000   1.0000   1.0000
     1.0000   1.0000

          k = 0.0169 0.0214-0.0936 ( 36547 PWs)   bands (ev):

   -16.2246 -16.0416 -15.4188 -15.1514 -13.9648 -13.8217 -12.4141 -12.2263
   -11.2706 -11.1996  -8.9747  -8.9153  -8.2365  -8.0831  -6.3930  -6.2931
    -5.3816  -5.2934  -5.1712  -4.8444  -4.3565  -4.2437  -4.1130  -4.0236
    -3.8100  -3.7118  -2.7661  -2.6897  -2.6431  -2.4779  -2.4551  -2.2743
    -1.2965  -1.1635  -1.0763  -0.9863  -0.9032  -0.7458  -0.2452  -0.1365
     0.6218   0.9232

     occupation numbers 
     1.0000   1.0000   1.0000   1.0000   1.0000   1.0000   1.0000   1.0000
     1.0000   1.0000   1.0000   1.0000   1.0000   1.0000   1.0000   1.0000
     1.0000   1.0000   1.0000   1.0000   1.0000   1.0000   1.0000   1.0000
     1.0000   1.0000   1.0000   1.0000   1.0000   1.0000   1.0000   1.0000
     1.0000   1.0000   1.0000   1.0000   1.0000   1.0000   1.0000   1.0000
     1.0000   1.0000

          k = 0.0169 0.0214-0.0265 ( 36551 PWs)   bands (ev):

   -16.3096 -16.1267 -15.4630 -15.2140 -14.0025 -13.8182 -12.3870 -12.2620
   -11.2869 -11.1635  -9.0052  -8.9414  -8.2689  -8.0875  -6.4289  -6.2066
    -5.3825  -5.2801  -5.1577  -4.7222  -4.3093  -4.1864  -3.9824  -3.7947
    -3.2562  -3.1839  -2.8052  -2.5492  -2.4302  -2.3549  -2.2119  -2.1196
    -1.2035  -1.1080  -1.0427  -0.9743  -0.8767  -0.7579  -0.1780   0.1221
     0.5731   0.7179

     occupation numbers 
     1.0000   1.0000   1.0000   1.0000   1.0000   1.0000   1.0000   1.0000
     1.0000   1.0000   1.0000   1.0000   1.0000   1.0000   1.0000   1.0000
     1.0000   1.0000   1.0000   1.0000   1.0000   1.0000   1.0000   1.0000
     1.0000   1.0000   1.0000   1.0000   1.0000   1.0000   1.0000   1.0000
     1.0000   1.0000   1.0000   1.0000   1.0000   1.0000   1.0000   1.0000
     1.0000   1.0000

          k = 0.0169 0.0643 0.0407 ( 36518 PWs)   bands (ev):

   -16.2832 -16.1099 -15.4664 -15.2204 -14.0265 -13.8570 -12.4066 -12.3121
   -11.2942 -11.1510  -8.9722  -8.8356  -8.1939  -8.0061  -6.4107  -6.3454
    -5.3572  -5.2553  -5.0733  -4.9152  -4.3708  -4.1890  -4.0830  -3.9200
    -3.2987  -3.2653  -2.7052  -2.5797  -2.4665  -2.3471  -2.2094  -2.1193
    -1.0849  -1.0226  -0.8797  -0.8626  -0.8256  -0.7235  -0.1742   0.2266
     0.6194   0.7591

     occupation numbers 
     1.0000   1.0000   1.0000   1.0000   1.0000   1.0000   1.0000   1.0000
     1.0000   1.0000   1.0000   1.0000   1.0000   1.0000   1.0000   1.0000
     1.0000   1.0000   1.0000   1.0000   1.0000   1.0000   1.0000   1.0000
     1.0000   1.0000   1.0000   1.0000   1.0000   1.0000   1.0000   1.0000
     1.0000   1.0000   1.0000   1.0000   1.0000   1.0000   1.0000   1.0000
     1.0000   1.0000

          k = 0.0169 0.0643 0.1078 ( 36558 PWs)   bands (ev):

   -16.2089 -16.0318 -15.4179 -15.1513 -13.9775 -13.8412 -12.4110 -12.2577
   -11.2840 -11.2132  -9.0139  -8.8575  -8.2451  -8.0488  -6.4105  -6.3120
    -5.3845  -5.2659  -4.9955  -4.8430  -4.3011  -4.2096  -4.0722  -4.0010
    -3.9617  -3.8832  -2.8212  -2.6780  -2.5974  -2.5014  -2.4117  -2.3241
    -1.2720  -1.1932  -1.0180  -0.9688  -0.9280  -0.7676  -0.0350  -0.0121
     0.6321   0.9393

     occupation numbers 
     1.0000   1.0000   1.0000   1.0000   1.0000   1.0000   1.0000   1.0000
     1.0000   1.0000   1.0000   1.0000   1.0000   1.0000   1.0000   1.0000
     1.0000   1.0000   1.0000   1.0000   1.0000   1.0000   1.0000   1.0000
     1.0000   1.0000   1.0000   1.0000   1.0000   1.0000   1.0000   1.0000
     1.0000   1.0000   1.0000   1.0000   1.0000   1.0000   1.0000   1.0000
     1.0000   1.0000

          k = 0.0169 0.0643-0.0936 ( 36547 PWs)   bands (ev):

   -16.2125 -16.0282 -15.4204 -15.1483 -13.9815 -13.8323 -12.4198 -12.2506
   -11.2829 -11.2267  -8.9784  -8.8839  -8.2227  -8.0877  -6.4098  -6.2650
    -5.3767  -5.2719  -5.0313  -4.7752  -4.3094  -4.2831  -4.1639  -3.9737
    -3.9426  -3.8416  -2.7721  -2.6929  -2.6712  -2.5310  -2.3989  -2.1914
    -1.2442  -1.1369  -1.0914  -1.0035  -0.9079  -0.8121  -0.0776  -0.0104
     0.6317   0.9425

     occupation numbers 
     1.0000   1.0000   1.0000   1.0000   1.0000   1.0000   1.0000   1.0000
     1.0000   1.0000   1.0000   1.0000   1.0000   1.0000   1.0000   1.0000
     1.0000   1.0000   1.0000   1.0000   1.0000   1.0000   1.0000   1.0000
     1.0000   1.0000   1.0000   1.0000   1.0000   1.0000   1.0000   1.0000
     1.0000   1.0000   1.0000   1.0000   1.0000   1.0000   1.0000   1.0000
     1.0000   1.0000

          k = 0.0169 0.0643-0.0265 ( 36489 PWs)   bands (ev):

   -16.2866 -16.1067 -15.4686 -15.2178 -14.0304 -13.8487 -12.4151 -12.3045
   -11.2942 -11.1648  -8.9396  -8.8556  -8.1719  -8.0442  -6.4214  -6.3021
    -5.3553  -5.2406  -5.1064  -4.8457  -4.3815  -4.2478  -4.1081  -3.9513
    -3.3270  -3.2378  -2.6656  -2.5065  -2.4551  -2.3766  -2.2078  -2.1168
    -1.0818  -0.9671  -0.9246  -0.8693  -0.8437  -0.7380  -0.1762   0.1725
     0.6318   0.7495

     occupation numbers 
     1.0000   1.0000   1.0000   1.0000   1.0000   1.0000   1.0000   1.0000
     1.0000   1.0000   1.0000   1.0000   1.0000   1.0000   1.0000   1.0000
     1.0000   1.0000   1.0000   1.0000   1.0000   1.0000   1.0000   1.0000
     1.0000   1.0000   1.0000   1.0000   1.0000   1.0000   1.0000   1.0000
     1.0000   1.0000   1.0000   1.0000   1.0000   1.0000   1.0000   1.0000
     1.0000   1.0000

          k =-0.0169 0.0214-0.0407 ( 36525 PWs)   bands (ev):

   -16.3092 -16.1274 -15.4622 -15.2142 -14.0038 -13.8171 -12.3866 -12.2619
   -11.2869 -11.1643  -9.0030  -8.9424  -8.2477  -8.1151  -6.3992  -6.2313
    -5.3775  -5.2807  -5.1284  -4.7764  -4.2883  -4.1478  -4.0389  -3.7988
    -3.2572  -3.1733  -2.7739  -2.5543  -2.4582  -2.3282  -2.2162  -2.1114
    -1.2349  -1.1437  -1.0105  -0.9597  -0.8582  -0.7706  -0.1789   0.1207
     0.5634   0.7272

     occupation numbers 
     1.0000   1.0000   1.0000   1.0000   1.0000   1.0000   1.0000   1.0000
     1.0000   1.0000   1.0000   1.0000   1.0000   1.0000   1.0000   1.0000
     1.0000   1.0000   1.0000   1.0000   1.0000   1.0000   1.0000   1.0000
     1.0000   1.0000   1.0000   1.0000   1.0000   1.0000   1.0000   1.0000
     1.0000   1.0000   1.0000   1.0000   1.0000   1.0000   1.0000   1.0000
     1.0000   1.0000

          k =-0.0169 0.0214-0.1078 ( 36561 PWs)   bands (ev):

   -16.2243 -16.0422 -15.4179 -15.1520 -13.9671 -13.8193 -12.4141 -12.2259
   -11.2748 -11.1963  -8.9757  -8.9130  -8.2282  -8.0935  -6.3826  -6.3039
    -5.3809  -5.2993  -5.1333  -4.8886  -4.3728  -4.2155  -4.1233  -3.9854
    -3.8234  -3.7085  -2.8482  -2.7621  -2.5932  -2.4382  -2.4125  -2.2355
    -1.3373  -1.1959  -1.0488  -0.9788  -0.8944  -0.7483  -0.2482  -0.1368
     0.6226   0.9241

     occupation numbers 
     1.0000   1.0000   1.0000   1.0000   1.0000   1.0000   1.0000   1.0000
     1.0000   1.0000   1.0000   1.0000   1.0000   1.0000   1.0000   1.0000
     1.0000   1.0000   1.0000   1.0000   1.0000   1.0000   1.0000   1.0000
     1.0000   1.0000   1.0000   1.0000   1.0000   1.0000   1.0000   1.0000
     1.0000   1.0000   1.0000   1.0000   1.0000   1.0000   1.0000   1.0000
     1.0000   1.0000

          k =-0.0169 0.0214 0.0936 ( 36547 PWs)   bands (ev):

   -16.2211 -16.0450 -15.4165 -15.1542 -13.9609 -13.8305 -12.4052 -12.2334
   -11.2728 -11.1851  -9.0096  -8.8881  -8.2580  -8.0453  -6.4101  -6.3339
    -5.3887  -5.2974  -5.1293  -4.8632  -4.2973  -4.2640  -4.0937  -4.0104
    -3.7806  -3.7473  -2.8129  -2.7178  -2.6507  -2.4675  -2.4385  -2.2887
    -1.3021  -1.2172  -1.0851  -0.9885  -0.8382  -0.7233  -0.1845  -0.1547
     0.6294   0.9196

     occupation numbers 
     1.0000   1.0000   1.0000   1.0000   1.0000   1.0000   1.0000   1.0000
     1.0000   1.0000   1.0000   1.0000   1.0000   1.0000   1.0000   1.0000
     1.0000   1.0000   1.0000   1.0000   1.0000   1.0000   1.0000   1.0000
     1.0000   1.0000   1.0000   1.0000   1.0000   1.0000   1.0000   1.0000
     1.0000   1.0000   1.0000   1.0000   1.0000   1.0000   1.0000   1.0000
     1.0000   1.0000

          k =-0.0169 0.0214 0.0265 ( 36551 PWs)   bands (ev):

   -16.3067 -16.1292 -15.4617 -15.2158 -13.9985 -13.8273 -12.3775 -12.2695
   -11.2871 -11.1507  -9.0379  -8.9206  -8.2783  -8.0601  -6.4420  -6.2412
    -5.3927  -5.2713  -5.1743  -4.7000  -4.3042  -4.0826  -3.9660  -3.8528
    -3.2460  -3.2007  -2.8330  -2.5541  -2.4155  -2.3809  -2.2701  -2.1049
    -1.1926  -1.1350  -1.0202  -0.9778  -0.8837  -0.7102  -0.1838   0.1772
     0.5666   0.7216

     occupation numbers 
     1.0000   1.0000   1.0000   1.0000   1.0000   1.0000   1.0000   1.0000
     1.0000   1.0000   1.0000   1.0000   1.0000   1.0000   1.0000   1.0000
     1.0000   1.0000   1.0000   1.0000   1.0000   1.0000   1.0000   1.0000
     1.0000   1.0000   1.0000   1.0000   1.0000   1.0000   1.0000   1.0000
     1.0000   1.0000   1.0000   1.0000   1.0000   1.0000   1.0000   1.0000
     1.0000   1.0000

          k =-0.0169 0.0643-0.0407 ( 36518 PWs)   bands (ev):

   -16.2866 -16.1065 -15.4692 -15.2173 -14.0306 -13.8481 -12.4152 -12.3064
   -11.2915 -11.1643  -8.9381  -8.8625  -8.1710  -8.0462  -6.3993  -6.2921
    -5.3535  -5.2394  -5.1577  -4.8779  -4.4386  -4.1624  -4.0892  -3.9032
    -3.3346  -3.2361  -2.7411  -2.5308  -2.4262  -2.3286  -2.2305  -2.1094
    -1.0692  -0.9622  -0.9410  -0.8721  -0.8237  -0.7530  -0.1765   0.1674
     0.6235   0.7619

     occupation numbers 
     1.0000   1.0000   1.0000   1.0000   1.0000   1.0000   1.0000   1.0000
     1.0000   1.0000   1.0000   1.0000   1.0000   1.0000   1.0000   1.0000
     1.0000   1.0000   1.0000   1.0000   1.0000   1.0000   1.0000   1.0000
     1.0000   1.0000   1.0000   1.0000   1.0000   1.0000   1.0000   1.0000
     1.0000   1.0000   1.0000   1.0000   1.0000   1.0000   1.0000   1.0000
     1.0000   1.0000

          k =-0.0169 0.0643-0.1078 ( 36558 PWs)   bands (ev):

   -16.2125 -16.0283 -15.4204 -15.1481 -13.9824 -13.8314 -12.4199 -12.2506
   -11.2841 -11.2252  -8.9790  -8.8846  -8.2185  -8.0925  -6.4006  -6.2671
    -5.3725  -5.2695  -5.0318  -4.8179  -4.3141  -4.2449  -4.1352  -3.9807
    -3.9660  -3.8491  -2.8052  -2.6954  -2.5627  -2.5113  -2.4594  -2.2165
    -1.2787  -1.1365  -1.0705  -0.9809  -0.9211  -0.8057  -0.0783  -0.0092
     0.6278   0.9429

     occupation numbers 
     1.0000   1.0000   1.0000   1.0000   1.0000   1.0000   1.0000   1.0000
     1.0000   1.0000   1.0000   1.0000   1.0000   1.0000   1.0000   1.0000
     1.0000   1.0000   1.0000   1.0000   1.0000   1.0000   1.0000   1.0000
     1.0000   1.0000   1.0000   1.0000   1.0000   1.0000   1.0000   1.0000
     1.0000   1.0000   1.0000   1.0000   1.0000   1.0000   1.0000   1.0000
     1.0000   1.0000

          k =-0.0169 0.0643 0.0936 ( 36547 PWs)   bands (ev):

   -16.2089 -16.0318 -15.4179 -15.1512 -13.9776 -13.8412 -12.4109 -12.2572
   -11.2850 -11.2130  -9.0136  -8.8563  -8.2449  -8.0486  -6.4144  -6.3170
    -5.3865  -5.2745  -4.9796  -4.8110  -4.3218  -4.2361  -4.0837  -3.9787
    -3.9486  -3.8760  -2.8367  -2.7209  -2.6466  -2.5028  -2.3682  -2.2626
    -1.2400  -1.1918  -1.0454  -0.9733  -0.9331  -0.7795  -0.0367  -0.0116
     0.6364   0.9413

     occupation numbers 
     1.0000   1.0000   1.0000   1.0000   1.0000   1.0000   1.0000   1.0000
     1.0000   1.0000   1.0000   1.0000   1.0000   1.0000   1.0000   1.0000
     1.0000   1.0000   1.0000   1.0000   1.0000   1.0000   1.0000   1.0000
     1.0000   1.0000   1.0000   1.0000   1.0000   1.0000   1.0000   1.0000
     1.0000   1.0000   1.0000   1.0000   1.0000   1.0000   1.0000   1.0000
     1.0000   1.0000

          k =-0.0169 0.0643 0.0265 ( 36489 PWs)   bands (ev):

   -16.2834 -16.1095 -15.4670 -15.2199 -14.0264 -13.8574 -12.4059 -12.3120
   -11.2945 -11.1519  -8.9709  -8.8370  -8.1944  -7.9998  -6.4393  -6.3341
    -5.3566  -5.2565  -5.0835  -4.8577  -4.3813  -4.1800  -4.0923  -3.9547
    -3.3045  -3.2659  -2.7293  -2.4919  -2.4595  -2.3715  -2.2380  -2.1203
    -1.0914  -0.9931  -0.9176  -0.8822  -0.8122  -0.6997  -0.1754   0.2268
     0.6228   0.7557

     occupation numbers 
     1.0000   1.0000   1.0000   1.0000   1.0000   1.0000   1.0000   1.0000
     1.0000   1.0000   1.0000   1.0000   1.0000   1.0000   1.0000   1.0000
     1.0000   1.0000   1.0000   1.0000   1.0000   1.0000   1.0000   1.0000
     1.0000   1.0000   1.0000   1.0000   1.0000   1.0000   1.0000   1.0000
     1.0000   1.0000   1.0000   1.0000   1.0000   1.0000   1.0000   1.0000
     1.0000   1.0000

     highest occupied level (ev):     0.9429

!    total energy              =    -548.04237014 Ry
     Harris-Foulkes estimate   =    -548.04237018 Ry
     estimated scf accuracy    <       0.00000005 Ry

     total all-electron energy =     -4615.885858 Ry

     The total energy is the sum of the following terms:

     one-electron contribution =    -157.79671283 Ry
     hartree contribution      =     110.25907923 Ry
     xc contribution           =    -104.27779158 Ry
     ewald contribution        =    -140.44212081 Ry
     one-center paw contrib.   =    -255.78482416 Ry
      -> PAW hartree energy AE =      18.95558562 Ry
      -> PAW hartree energy PS =     -18.85129594 Ry
      -> PAW xc energy AE      =     -55.61659623 Ry
      -> PAW xc energy PS      =      10.07145720 Ry
      -> total E_H with PAW    =     110.36336891 Ry
      -> total E_XC with PAW   =    -149.82293062 Ry

     convergence has been achieved in  11 iterations
 writing file ./scratch/scf-337.save/charge-density
 writing file ./scratch/scf-337.save/charge-density
 writing file ./scratch/scf-337.save/charge-density
 writing file ./scratch/scf-337.save/charge-density
 writing file ./scratch/scf-337.save/charge-density
 writing file ./scratch/scf-337.save/charge-density
 writing file ./scratch/scf-337.save/charge-density
 writing file ./scratch/scf-337.save/charge-density
 writing file ./scratch/scf-337.save/charge-density
 writing file ./scratch/scf-337.save/charge-density
 writing file ./scratch/scf-337.save/charge-density
 writing file ./scratch/scf-337.save/charge-density
 writing file ./scratch/scf-337.save/charge-density
 writing file ./scratch/scf-337.save/charge-density
 writing file ./scratch/scf-337.save/charge-density
 writing file ./scratch/scf-337.save/charge-density
 writing file ./scratch/scf-337.save/charge-density
 writing file ./scratch/scf-337.save/charge-density
 writing file ./scratch/scf-337.save/charge-density
 writing file ./scratch/scf-337.save/charge-density
 writing file ./scratch/scf-337.save/charge-density
 writing file ./scratch/scf-337.save/charge-density
 writing file ./scratch/scf-337.save/charge-density
 writing file ./scratch/scf-337.save/charge-density
 writing file ./scratch/scf-337.save/charge-density
 writing file ./scratch/scf-337.save/charge-density
 writing file ./scratch/scf-337.save/charge-density
 writing file ./scratch/scf-337.save/charge-density
 writing file ./scratch/scf-337.save/charge-density
 writing file ./scratch/scf-337.save/charge-density
 writing file ./scratch/scf-337.save/charge-density
 writing file ./scratch/scf-337.save/charge-density

     Forces acting on atoms (cartesian axes, Ry/au):

     atom    1 type  2   force =    -0.04763200    0.01347060    0.00035886
     atom    2 type  1   force =     0.03666874   -0.00768453    0.01283361
     atom    3 type  1   force =    -0.00804870    0.01751308   -0.03618525
     atom    4 type  3   force =    -0.00199257   -0.00534722    0.00524295
     atom    5 type  1   force =    -0.00248399   -0.00408910    0.04037680
     atom    6 type  3   force =     0.00546375    0.00470109   -0.00521753
     atom    7 type  3   force =     0.00115600    0.00066213    0.00093024
     atom    8 type  1   force =    -0.00773295   -0.00343514    0.00528128
     atom    9 type  3   force =     0.00085347    0.00040577   -0.00120791
     atom   10 type  1   force =     0.01131987    0.01248670   -0.00345694
     atom   11 type  1   force =    -0.00486710    0.00628040   -0.02713499
     atom   12 type  2   force =     0.00387159   -0.01475420    0.02237946
     atom   13 type  3   force =    -0.00067487    0.00077101   -0.00592970
     atom   14 type  1   force =     0.01572115   -0.03106412    0.00727987
     atom   15 type  3   force =     0.00171429   -0.00097827    0.00452862
     atom   16 type  1   force =     0.02513100   -0.01397796   -0.01987035
     atom   17 type  1   force =     0.04809481   -0.02297022   -0.01278743
     atom   18 type  2   force =    -0.05946328    0.05348741    0.01126658
     atom   19 type  3   force =     0.00036288   -0.00180734   -0.00244100
     atom   20 type  1   force =    -0.01182016   -0.00448274   -0.00180524
     atom   21 type  3   force =    -0.00109589   -0.00115027    0.00355493
     atom   22 type  1   force =     0.00529052   -0.00396196   -0.00244286
     atom   23 type  1   force =    -0.00996537    0.00360605    0.01126321
     atom   24 type  2   force =     0.00012881    0.00231882   -0.00681720
     The non-local contrib.  to forces
     atom    1 type  2   force =    -0.33706252    0.20248147    0.03736959
     atom    2 type  1   force =     0.41895925   -0.31153535   -0.05395021
     atom    3 type  1   force =    -0.04020680   -0.00756315   -0.07890415
     atom    4 type  3   force =    -0.07055720   -0.02403334   -0.02497295
     atom    5 type  1   force =    -0.05494299   -0.06255415    0.02036324
     atom    6 type  3   force =    -0.00587114   -0.06606767   -0.04209579
     atom    7 type  3   force =     0.00049519   -0.06271205    0.04709574
     atom    8 type  1   force =     0.03549934   -0.03322556    0.03915311
     atom    9 type  3   force =     0.06195137   -0.01528471    0.04645068
     atom   10 type  1   force =     0.04457778   -0.01043731    0.04666845
     atom   11 type  1   force =    -0.38655426   -0.29955809   -0.06234015
     atom   12 type  2   force =     0.32323728    0.21623698    0.08510457
     atom   13 type  3   force =     0.00770204    0.06867068    0.03758148
     atom   14 type  1   force =     0.07498334    0.01104398    0.05345644
     atom   15 type  3   force =     0.06998365    0.02099427    0.03070124
     atom   16 type  1   force =     0.08784130    0.01516798    0.00716832
     atom   17 type  1   force =    -0.35338514    0.30057338    0.04560282
     atom   18 type  2   force =     0.30466151   -0.22614006   -0.04425191
     atom   19 type  3   force =     0.00024502    0.06181597   -0.04823319
     atom   20 type  1   force =    -0.05638428    0.03755948   -0.04336907
     atom   21 type  3   force =    -0.06168931    0.01525621   -0.04625094
     atom   22 type  1   force =    -0.02150243    0.01752102   -0.05442295
     atom   23 type  1   force =     0.37022070    0.30658460    0.04020159
     atom   24 type  2   force =    -0.30524081   -0.25905280   -0.03849430
     The ionic contribution  to forces
     atom    1 type  2   force =     7.08796734   -3.45305450    0.88531193
     atom    2 type  1   force =     3.57654300   -2.07453135    0.28052474
     atom    3 type  1   force =     5.64366771    1.67013468    3.05830852
     atom    4 type  3   force =     2.45733148    0.81886505    0.97580479
     atom    5 type  1   force =     2.70744475    4.39314793    2.10097410
     atom    6 type  3   force =     0.70182140    1.95135316    1.36613121
     atom    7 type  3   force =    -0.47430892    1.94002401   -1.53327559
     atom    8 type  1   force =    -1.84230599    4.13105908   -3.11025187
     atom    9 type  3   force =    -2.10767510    0.73009282   -1.53091322
     atom   10 type  1   force =    -4.84132538    1.93244540   -3.19930802
     atom   11 type  1   force =    -3.14446648   -1.85807423   -0.24545150
     atom   12 type  2   force =    -6.58944190   -4.46206816   -1.51428842
     atom   13 type  3   force =    -0.21955415   -1.97870132   -1.07673204
     atom   14 type  1   force =    -0.27816497   -4.06171740   -2.05497167
     atom   15 type  3   force =    -1.95719581   -0.79744325   -0.92351298
     atom   16 type  1   force =    -3.75531104   -2.31339792   -1.52201753
     atom   17 type  1   force =    -1.04212849    1.51165363    0.39234552
     atom   18 type  2   force =    -5.65097000    4.97514448    0.22057642
     atom   19 type  3   force =    -0.07064256   -1.89613552    1.30942207
     atom   20 type  1   force =    -0.12704189   -4.19815368    2.21792813
     atom   21 type  3   force =     1.79319036   -0.61199645    1.37750108
     atom   22 type  1   force =     3.15363658   -1.68638919    2.60107843
     atom   23 type  1   force =     1.47415893    1.47729480   -0.26098884
     atom   24 type  2   force =     3.50477112    3.86044795    0.18580476
     The local contribution  to forces
     atom    1 type  2   force =    -6.81410185    3.27310163   -0.92067536
     atom    2 type  1   force =    -3.94777059    2.36976017   -0.21570984
     atom    3 type  1   force =    -5.61026379   -1.64485687   -3.01509894
     atom    4 type  3   force =    -2.38875227   -0.80017655   -0.94558461
     atom    5 type  1   force =    -2.65530269   -4.33359487   -2.08049507
     atom    6 type  3   force =    -0.69049778   -1.88057958   -1.32925525
     atom    7 type  3   force =     0.47494848   -1.87663707    1.48709494
     atom    8 type  1   force =     1.79939105   -4.10001035    3.07543603
     atom    9 type  3   force =     2.04658251   -0.71441603    1.48326361
     atom   10 type  1   force =     4.80705565   -1.90907139    3.14868396
     atom   11 type  1   force =     3.51610339    2.15605905    0.27994517
     atom   12 type  2   force =     6.28333247    4.23962586    1.45566913
     atom   13 type  3   force =     0.21117497    1.91081526    1.03322704
     atom   14 type  1   force =     0.21972228    4.01841253    2.00825384
     atom   15 type  3   force =     1.88895937    0.77547797    0.89735392
     atom   16 type  1   force =     3.69198033    2.28311260    1.49452702
     atom   17 type  1   force =     1.43532113   -1.82803755   -0.44910857
     atom   18 type  2   force =     5.29684339   -4.70255624   -0.16631339
     atom   19 type  3   force =     0.07075003    1.83251866   -1.26364033
     atom   20 type  1   force =     0.17064425    4.15477510   -2.17582497
     atom   21 type  3   force =    -1.73257913    0.59557446   -1.32768182
     atom   22 type  1   force =    -3.12573353    1.66446865   -2.54854424
     atom   23 type  1   force =    -1.84465434   -1.77269917    0.23251014
     atom   24 type  2   force =    -3.21129308   -3.60921545   -0.15584231
     The core correction contribution to forces
     atom    1 type  2   force =     0.01565900   -0.00906517   -0.00158862
     atom    2 type  1   force =    -0.01113353    0.00860118    0.00194213
     atom    3 type  1   force =    -0.00125824   -0.00020960   -0.00050108
     atom    4 type  3   force =     0.00000000    0.00000000    0.00000000
     atom    5 type  1   force =     0.00020917   -0.00108367   -0.00049370
     atom    6 type  3   force =     0.00000000    0.00000000    0.00000000
     atom    7 type  3   force =     0.00000000    0.00000000    0.00000000
     atom    8 type  1   force =    -0.00051185   -0.00125870    0.00084665
     atom    9 type  3   force =     0.00000000    0.00000000    0.00000000
     atom   10 type  1   force =     0.00088155   -0.00053815    0.00048075
     atom   11 type  1   force =     0.00996378    0.00785125    0.00066401
     atom   12 type  2   force =    -0.01319354   -0.00840372   -0.00412606
     atom   13 type  3   force =     0.00000000    0.00000000    0.00000000
     atom   14 type  1   force =    -0.00089882    0.00122194    0.00053272
     atom   15 type  3   force =     0.00000000    0.00000000    0.00000000
     atom   16 type  1   force =     0.00066101    0.00114410    0.00047001
     atom   17 type  1   force =     0.00826601   -0.00719191   -0.00163946
     atom   18 type  2   force =    -0.00977392    0.00697143    0.00130907
     atom   19 type  3   force =     0.00000000    0.00000000    0.00000000
     atom   20 type  1   force =     0.00084344    0.00126562   -0.00058044
     atom   21 type  3   force =     0.00000000    0.00000000    0.00000000
     atom   22 type  1   force =    -0.00112396    0.00029085   -0.00049361
     atom   23 type  1   force =    -0.00970569   -0.00756791   -0.00046856
     atom   24 type  2   force =     0.01209782    0.01030431    0.00177243
     The Hubbard contrib.    to forces
     atom    1 type  2   force =     0.00000000    0.00000000    0.00000000
     atom    2 type  1   force =     0.00000000    0.00000000    0.00000000
     atom    3 type  1   force =     0.00000000    0.00000000    0.00000000
     atom    4 type  3   force =     0.00000000    0.00000000    0.00000000
     atom    5 type  1   force =     0.00000000    0.00000000    0.00000000
     atom    6 type  3   force =     0.00000000    0.00000000    0.00000000
     atom    7 type  3   force =     0.00000000    0.00000000    0.00000000
     atom    8 type  1   force =     0.00000000    0.00000000    0.00000000
     atom    9 type  3   force =     0.00000000    0.00000000    0.00000000
     atom   10 type  1   force =     0.00000000    0.00000000    0.00000000
     atom   11 type  1   force =     0.00000000    0.00000000    0.00000000
     atom   12 type  2   force =     0.00000000    0.00000000    0.00000000
     atom   13 type  3   force =     0.00000000    0.00000000    0.00000000
     atom   14 type  1   force =     0.00000000    0.00000000    0.00000000
     atom   15 type  3   force =     0.00000000    0.00000000    0.00000000
     atom   16 type  1   force =     0.00000000    0.00000000    0.00000000
     atom   17 type  1   force =     0.00000000    0.00000000    0.00000000
     atom   18 type  2   force =     0.00000000    0.00000000    0.00000000
     atom   19 type  3   force =     0.00000000    0.00000000    0.00000000
     atom   20 type  1   force =     0.00000000    0.00000000    0.00000000
     atom   21 type  3   force =     0.00000000    0.00000000    0.00000000
     atom   22 type  1   force =     0.00000000    0.00000000    0.00000000
     atom   23 type  1   force =     0.00000000    0.00000000    0.00000000
     atom   24 type  2   force =     0.00000000    0.00000000    0.00000000
     The SCF correction term to forces
     atom    1 type  2   force =    -0.00009245    0.00000717   -0.00005827
     atom    2 type  1   force =     0.00007210    0.00002081    0.00002719
     atom    3 type  1   force =     0.00001391    0.00000801    0.00001080
     atom    4 type  3   force =    -0.00001307   -0.00000238   -0.00000388
     atom    5 type  1   force =     0.00010927   -0.00000435    0.00002863
     atom    6 type  3   force =     0.00001278   -0.00000483    0.00000269
     atom    7 type  3   force =     0.00002275   -0.00001277    0.00001554
     atom    8 type  1   force =     0.00019601    0.00000039    0.00009775
     atom    9 type  3   force =    -0.00000380    0.00001369   -0.00000859
     atom   10 type  1   force =     0.00013178    0.00008814    0.00001833
     atom   11 type  1   force =     0.00008797    0.00000242    0.00004786
     atom   12 type  2   force =    -0.00006120   -0.00014516    0.00002064
     atom   13 type  3   force =     0.00000379   -0.00001361   -0.00000577
     atom   14 type  1   force =     0.00008083   -0.00002518    0.00000895
     atom   15 type  3   force =    -0.00003141   -0.00000727   -0.00001316
     atom   16 type  1   force =    -0.00003909   -0.00000472   -0.00001776
     atom   17 type  1   force =     0.00002280    0.00003222    0.00001266
     atom   18 type  2   force =    -0.00022275    0.00006780   -0.00005321
     atom   19 type  3   force =     0.00001189   -0.00000645    0.00001086
     atom   20 type  1   force =     0.00011984    0.00007073    0.00004150
     atom   21 type  3   force =    -0.00001630    0.00001552   -0.00001299
     atom   22 type  1   force =     0.00001538    0.00014671   -0.00006009
     atom   23 type  1   force =     0.00001654   -0.00000627    0.00000928
     atom   24 type  2   force =    -0.00020474   -0.00016518   -0.00005737

     Total force =     0.148423     Total SCF correction =     0.000576

     Writing output data file scf-337.save
 writing file ./scratch/scf-337.save/charge-density
 writing file ./scratch/scf-337.save/charge-density
 writing file ./scratch/scf-337.save/charge-density
 writing file ./scratch/scf-337.save/charge-density
 writing file ./scratch/scf-337.save/charge-density
 writing file ./scratch/scf-337.save/charge-density
 writing file ./scratch/scf-337.save/charge-density
 writing file ./scratch/scf-337.save/charge-density
 writing file ./scratch/scf-337.save/charge-density
 writing file ./scratch/scf-337.save/charge-density
 writing file ./scratch/scf-337.save/charge-density
 writing file ./scratch/scf-337.save/charge-density
 writing file ./scratch/scf-337.save/charge-density
 writing file ./scratch/scf-337.save/charge-density
 writing file ./scratch/scf-337.save/charge-density
 writing file ./scratch/scf-337.save/charge-density
 writing file ./scratch/scf-337.save/charge-density
 writing file ./scratch/scf-337.save/charge-density
 writing file ./scratch/scf-337.save/charge-density
 writing file ./scratch/scf-337.save/charge-density
 writing file ./scratch/scf-337.save/charge-density
 writing file ./scratch/scf-337.save/charge-density
 writing file ./scratch/scf-337.save/charge-density
 writing file ./scratch/scf-337.save/charge-density
 writing file ./scratch/scf-337.save/charge-density
 writing file ./scratch/scf-337.save/charge-density
 writing file ./scratch/scf-337.save/charge-density
 writing file ./scratch/scf-337.save/charge-density
 writing file ./scratch/scf-337.save/charge-density
 writing file ./scratch/scf-337.save/charge-density
 writing file ./scratch/scf-337.save/charge-density
 writing file ./scratch/scf-337.save/charge-density
 
     init_run     :      4.38s CPU      4.61s WALL (       1 calls)
     electrons    :     50.00s CPU     52.93s WALL (       1 calls)
     forces       :      2.29s CPU      2.46s WALL (       1 calls)

     Called by init_run:
     wfcinit      :      1.60s CPU      1.63s WALL (       1 calls)
     wfcinit:atom :      0.02s CPU      0.02s WALL (      16 calls)
     wfcinit:wfcr :      1.49s CPU      1.50s WALL (      16 calls)
     potinit      :      0.88s CPU      0.91s WALL (       1 calls)

     Called by electrons:
     c_bands      :     39.08s CPU     39.38s WALL (      11 calls)
     sum_band     :      6.85s CPU      8.10s WALL (      11 calls)
     v_of_rho     :      0.90s CPU      0.96s WALL (      12 calls)
     v_h          :      0.04s CPU      0.06s WALL (      12 calls)
     v_xc         :      0.93s CPU      0.98s WALL (      13 calls)
     newd         :      1.48s CPU      2.86s WALL (      12 calls)
     PAW_pot      :      1.64s CPU      1.69s WALL (      12 calls)
     mix_rho      :      0.15s CPU      0.14s WALL (      11 calls)

     Called by c_bands:
     init_us_2    :      0.80s CPU      0.86s WALL (     384 calls)
     cegterg      :     36.77s CPU     37.00s WALL (     176 calls)

     Called by sum_band:
     sum_band:bec :      0.02s CPU      0.02s WALL (     176 calls)
     addusdens    :      1.47s CPU      2.69s WALL (      11 calls)

     Called by *egterg:
     h_psi        :     27.44s CPU     27.63s WALL (     863 calls)
     s_psi        :      2.15s CPU      2.00s WALL (     863 calls)
     g_psi        :      0.18s CPU      0.16s WALL (     671 calls)
     cdiaghg      :      3.46s CPU      3.43s WALL (     847 calls)
     cegterg:over :      1.64s CPU      1.68s WALL (     671 calls)
     cegterg:upda :      1.19s CPU      1.26s WALL (     671 calls)
     cegterg:last :      0.43s CPU      0.44s WALL (     192 calls)

     Called by h_psi:
     h_psi:pot    :     27.21s CPU     27.37s WALL (     863 calls)
     h_psi:calbec :      2.37s CPU      2.26s WALL (     863 calls)
     vloc_psi     :     22.83s CPU     23.14s WALL (     863 calls)
     add_vuspsi   :      2.00s CPU      1.96s WALL (     863 calls)

     General routines
     calbec       :      3.14s CPU      3.01s WALL (    1103 calls)
     fft          :      0.70s CPU      0.77s WALL (     199 calls)
     ffts         :      0.03s CPU      0.03s WALL (      23 calls)
     fftw         :     20.82s CPU     21.12s WALL (   55686 calls)
     interpolate  :      0.14s CPU      0.15s WALL (      23 calls)
     davcio       :      0.00s CPU      0.01s WALL (      16 calls)
 
     Parallel routines
     fft_scatter  :      7.04s CPU      7.28s WALL (   55908 calls)

     PAW routines
     PAW_pot      :      1.64s CPU      1.69s WALL (      12 calls)
 
     PWSCF        :  0m57.35s CPU     1m 1.08s WALL

 
   This run was terminated on:  12:21:16  20May2017            

=------------------------------------------------------------------------------=
   JOB DONE.
=------------------------------------------------------------------------------=
