
     Program PWSCF v.6.1 starts on 20May2017 at 16:53:30 

     This program is part of the open-source Quantum ESPRESSO suite
     for quantum simulation of materials; please cite
         "P. Giannozzi et al., J. Phys.:Condens. Matter 21 395502 (2009);
          URL http://www.quantum-espresso.org", 
     in publications or presentations arising from this work. More details at
     http://www.quantum-espresso.org/quote

     Parallel version (MPI & OpenMP), running on      32 processor cores
     Number of MPI processes:                32
     Threads/MPI process:                     1
     R & G space division:  proc/nbgrp/npool/nimage =      32
     Waiting for input...
     Reading input from standard input
Warning: card &IONS ignored
Warning: card     ION_TEMPERATURE   = 'INITIAL' ignored
Warning: card     TEMPW             = 586.D0 ignored
Warning: card     TOLP              = 100.D0 ignored
Warning: card     DELTA_T           = 1.D0 ignored
Warning: card     NRAISE            = 1 ignored
Warning: card / ignored
Warning: card &CELL ignored
Warning: card     CELL_DYNAMICS     = 'BFGS' ignored
Warning: card / ignored

     Current dimensions of program PWSCF are:
     Max number of different atomic species (ntypx) = 10
     Max number of k-points (npk) =  40000
     Max angular momentum in pseudopotentials (lmaxx) =  3
               file C.pbe-n-kjpaw_psl.1.0.0.UPF: wavefunction(s)  2S 2P renormalized
               file Cl.pbe-n-kjpaw_psl.1.0.0.UPF: wavefunction(s)  3S 3P renormalized
               file H.pbe-kjpaw_psl.1.0.0.UPF: wavefunction(s)  1S renormalized

     Subspace diagonalization in iterative solution of the eigenvalue problem:
     a serial algorithm will be used

 
     Parallelization info
     --------------------
     sticks:   dense  smooth     PW     G-vecs:    dense   smooth      PW
     Min         764     305     83                36108     9133    1292
     Max         765     306     84                36110     9135    1293
     Sum       24467    9791   2657              1155489   292295   41363
 


     bravais-lattice index     =            0
     lattice parameter (alat)  =       1.8897  a.u.
     unit-cell volume          =    2163.5316 (a.u.)^3
     number of atoms/cell      =           24
     number of atomic types    =            3
     number of electrons       =        84.00
     number of Kohn-Sham states=           42
     kinetic-energy cutoff     =     100.0000  Ry
     charge density cutoff     =    1000.0000  Ry
     convergence threshold     =      1.0E-07
     mixing beta               =       0.7000
     number of iterations used =            8  plain     mixing
     Exchange-correlation      =  SLA  PW   PBX  PBC ( 1  4  3  4 0 0)

     celldm(1)=   1.889726  celldm(2)=   0.000000  celldm(3)=   0.000000
     celldm(4)=   0.000000  celldm(5)=   0.000000  celldm(6)=   0.000000

     crystal axes: (cart. coord. in units of alat)
               a(1) = (  14.762000   0.000000   0.000000 )  
               a(2) = (   0.000000   5.832000   0.000000 )  
               a(3) = (  -1.563876   0.000000   3.723951 )  

     reciprocal axes: (cart. coord. in units 2 pi/alat)
               b(1) = (  0.067741  0.000000  0.028448 )  
               b(2) = (  0.000000  0.171468  0.000000 )  
               b(3) = (  0.000000  0.000000  0.268532 )  


     PseudoPot. # 1 for  C read from file:
     /global/cscratch1/sd/almno10/.data/PSEUDOPOTENTIALS/C.pbe-n-kjpaw_psl.1.0.0.UPF
     MD5 check sum: 2ba8448e293caca687844dde9a1b88a8
     Pseudo is Projector augmented-wave + core cor, Zval =  4.0
     Generated using "atomic" code by A. Dal Corso  v.5.3.0 svn rev. 11974
     Shape of augmentation charge: PSQ
     Using radial grid of 1073 points,  4 beta functions with: 
                l(1) =   0
                l(2) =   0
                l(3) =   1
                l(4) =   1
     Q(r) pseudized with 0 coefficients 


     PseudoPot. # 2 for Cl read from file:
     /global/cscratch1/sd/almno10/.data/PSEUDOPOTENTIALS/Cl.pbe-n-kjpaw_psl.1.0.0.UPF
     MD5 check sum: dca63699d6b897c5771335df08a09219
     Pseudo is Projector augmented-wave + core cor, Zval =  7.0
     Generated using "atomic" code by A. Dal Corso  v.5.3.0 svn rev. 11974
     Shape of augmentation charge: PSQ
     Using radial grid of 1157 points,  6 beta functions with: 
                l(1) =   0
                l(2) =   0
                l(3) =   1
                l(4) =   1
                l(5) =   2
                l(6) =   2
     Q(r) pseudized with 0 coefficients 


     PseudoPot. # 3 for  H read from file:
     /global/cscratch1/sd/almno10/.data/PSEUDOPOTENTIALS/H.pbe-kjpaw_psl.1.0.0.UPF
     MD5 check sum: bc0feb48a24907a0b97fa6ee2d589a29
     Pseudo is Projector augmented-wave, Zval =  1.0
     Generated using "atomic" code by A. Dal Corso  v.5.3.0 svn rev. 11974
     Shape of augmentation charge: PSQ
     Using radial grid of  929 points,  2 beta functions with: 
                l(1) =   0
                l(2) =   0
     Q(r) pseudized with 0 coefficients 


     atomic species   valence    mass     pseudopotential
        C              4.00    12.01100      C( 1.00)
        Cl             7.00    35.45270     Cl( 1.00)
        H              1.00     1.00790      H( 1.00)

     No symmetry found


                                    s                        frac. trans.

      isym =  1     identity                                     

 cryst.   s( 1) = (     1          0          0      )
                  (     0          1          0      )
                  (     0          0          1      )

 cart.    s( 1) = (  1.0000000  0.0000000 -0.0000000 )
                  (  0.0000000  1.0000000  0.0000000 )
                  (  0.0000000  0.0000000  1.0000000 )


   Cartesian axes

     site n.     atom                  positions (alat units)
         1           Cl  tau(   1) = (  16.5057319   1.5553919   1.5045743  )
         2           C   tau(   2) = (  15.0498528   2.4546536   1.8142699  )
         3           C   tau(   3) = (  15.1699647   3.6517606   2.5202520  )
         4           H   tau(   4) = (  16.1577301   3.9193721   2.8910670  )
         5           C   tau(   5) = (  14.1253427   4.5703252   2.5951421  )
         6           H   tau(   6) = (  14.2532787   5.4917137   3.1601794  )
         7           H   tau(   7) = (   6.4891447   1.5154236   0.1825211  )
         8           C   tau(   8) = (   6.5420913   0.6704066   0.8652529  )
         9           H   tau(   9) = (   4.6100977  -0.1010233   0.2964519  )
        10           C   tau(  10) = (   5.4845668  -0.2372182   0.9307535  )
        11           C   tau(  11) = (   5.5456291  -1.3277991   1.7971443  )
        12           Cl  tau(  12) = (   4.1377144  -2.3483475   1.9442174  )
        13           H   tau(  13) = (  13.6707371   1.0496245   0.8612543  )
        14           C   tau(  14) = (  13.8173563   2.0223978   1.3275881  )
        15           H   tau(  15) = (  11.7456513   2.5900359   1.1437351  )
        16           C   tau(  16) = (  12.7297389   2.8767821   1.5090548  )
        17           C   tau(  17) = (  12.8897701   4.1509475   2.1055971  )
        18           Cl  tau(  18) = (  11.5509570   5.1784896   2.3269831  )
        19           H   tau(  19) = (   6.7311337  -2.4155076   3.2620503  )
        20           C   tau(  20) = (   6.6698644  -1.5611082   2.5891653  )
        21           H   tau(  21) = (   8.6037521  -0.7931887   3.1480315  )
        22           C   tau(  22) = (   7.7156351  -0.6413794   2.5383156  )
        23           C   tau(  23) = (   7.6469208   0.4598015   1.6875589  )
        24           Cl  tau(  24) = (   8.9952262   1.5957465   1.6922728  )

   Crystallographic axes

     site n.     atom                  positions (cryst. coord.)
         1           Cl  tau(   1) = (  1.1609253  0.2666996  0.4040263  )
         2           C   tau(   2) = (  1.0711121  0.4208940  0.4871895  )
         3           C   tau(   3) = (  1.0993325  0.6261592  0.6767682  )
         4           H   tau(   4) = (  1.1767942  0.6720460  0.7763439  )
         5           C   tau(   5) = (  1.0306987  0.7836634  0.6968786  )
         6           H   tau(   6) = (  1.0554395  0.9416519  0.8486092  )
         7           H   tau(   7) = (  0.4447768  0.2598463  0.0490127  )
         8           C   tau(   8) = (  0.4677859  0.1149531  0.2323481  )
         9           H   tau(   9) = (  0.3207284 -0.0173222  0.0796068  )
        10           C   tau(  10) = (  0.3980109 -0.0406753  0.2499371  )
        11           C   tau(  11) = (  0.4267945 -0.2276747  0.4825907  )
        12           Cl  tau(  12) = (  0.3356042 -0.4026659  0.5220845  )
        13           H   tau(  13) = (  0.9505772  0.1799768  0.2312743  )
        14           C   tau(  14) = (  0.9737758  0.3467760  0.3564999  )
        15           H   tau(  15) = (  0.8282051  0.4441077  0.3071294  )
        16           C   tau(  16) = (  0.9052613  0.4932754  0.4052295  )
        17           C   tau(  17) = (  0.9330725  0.7117537  0.5654201  )
        18           Cl  tau(  18) = (  0.8486773  0.8879440  0.6248693  )
        19           H   tau(  19) = (  0.5487762 -0.4141817  0.8759648  )
        20           C   tau(  20) = (  0.5254834 -0.2676797  0.6952737  )
        21           H   tau(  21) = (  0.6723865 -0.1360063  0.8453471  )
        22           C   tau(  22) = (  0.5948789 -0.1099759  0.6816189  )
        23           C   tau(  23) = (  0.5660217  0.0788411  0.4531635  )
        24           Cl  tau(  24) = (  0.6574920  0.2736191  0.4544294  )

     number of k points=    16
                       cart. coord. in units 2pi/alat
        k(    1) = (   0.0169354   0.0214335   0.0406785), wk =   0.1250000
        k(    2) = (   0.0169354   0.0214335   0.1078115), wk =   0.1250000
        k(    3) = (   0.0169354   0.0214335  -0.0935875), wk =   0.1250000
        k(    4) = (   0.0169354   0.0214335  -0.0264545), wk =   0.1250000
        k(    5) = (   0.0169354   0.0643004   0.0406785), wk =   0.1250000
        k(    6) = (   0.0169354   0.0643004   0.1078115), wk =   0.1250000
        k(    7) = (   0.0169354   0.0643004  -0.0935875), wk =   0.1250000
        k(    8) = (   0.0169354   0.0643004  -0.0264545), wk =   0.1250000
        k(    9) = (  -0.0169354   0.0214335  -0.0406785), wk =   0.1250000
        k(   10) = (  -0.0169354   0.0214335  -0.1078115), wk =   0.1250000
        k(   11) = (  -0.0169354   0.0214335   0.0935875), wk =   0.1250000
        k(   12) = (  -0.0169354   0.0214335   0.0264545), wk =   0.1250000
        k(   13) = (  -0.0169354   0.0643004  -0.0406785), wk =   0.1250000
        k(   14) = (  -0.0169354   0.0643004  -0.1078115), wk =   0.1250000
        k(   15) = (  -0.0169354   0.0643004   0.0935875), wk =   0.1250000
        k(   16) = (  -0.0169354   0.0643004   0.0264545), wk =   0.1250000

                       cryst. coord.
        k(    1) = (   0.2500000   0.1250000   0.1250000), wk =   0.1250000
        k(    2) = (   0.2500000   0.1250000   0.3750000), wk =   0.1250000
        k(    3) = (   0.2500000   0.1250000  -0.3750000), wk =   0.1250000
        k(    4) = (   0.2500000   0.1250000  -0.1250000), wk =   0.1250000
        k(    5) = (   0.2500000   0.3750000   0.1250000), wk =   0.1250000
        k(    6) = (   0.2500000   0.3750000   0.3750000), wk =   0.1250000
        k(    7) = (   0.2500000   0.3750000  -0.3750000), wk =   0.1250000
        k(    8) = (   0.2500000   0.3750000  -0.1250000), wk =   0.1250000
        k(    9) = (  -0.2500000   0.1250000  -0.1250000), wk =   0.1250000
        k(   10) = (  -0.2500000   0.1250000  -0.3750000), wk =   0.1250000
        k(   11) = (  -0.2500000   0.1250000   0.3750000), wk =   0.1250000
        k(   12) = (  -0.2500000   0.1250000   0.1250000), wk =   0.1250000
        k(   13) = (  -0.2500000   0.3750000  -0.1250000), wk =   0.1250000
        k(   14) = (  -0.2500000   0.3750000  -0.3750000), wk =   0.1250000
        k(   15) = (  -0.2500000   0.3750000   0.3750000), wk =   0.1250000
        k(   16) = (  -0.2500000   0.3750000   0.1250000), wk =   0.1250000

     Dense  grid:  1155489 G-vectors     FFT dimensions: ( 288, 120,  80)

     Smooth grid:   292295 G-vectors     FFT dimensions: ( 180,  72,  50)

     Estimated max dynamical RAM per process >     147.21MB

     Estimated total allocated dynamical RAM >    4710.62MB

     Initial potential from superposition of free atoms

     starting charge   83.99939, renormalised to   84.00000
     Starting wfc are   72 randomized atomic wfcs
     Checking if some PAW data can be deallocated... 
       node    0, deallocated PAW data for type:  1
       node    0, deallocated PAW data for type:  3
       node    1, deallocated PAW data for type:  1
       node    1, deallocated PAW data for type:  3
       node    2, deallocated PAW data for type:  2
       node    2, deallocated PAW data for type:  3
       node    3, deallocated PAW data for type:  2
       node    3, deallocated PAW data for type:  3
       node    4, deallocated PAW data for type:  2
       node    4, deallocated PAW data for type:  3
       node    5, deallocated PAW data for type:  2
       node    5, deallocated PAW data for type:  3
       node    6, deallocated PAW data for type:  1
       node    6, deallocated PAW data for type:  2
       node    7, deallocated PAW data for type:  1
       node    7, deallocated PAW data for type:  2
       node    8, deallocated PAW data for type:  2
       node    8, deallocated PAW data for type:  3
       node    9, deallocated PAW data for type:  2
       node    9, deallocated PAW data for type:  3
       node   10, deallocated PAW data for type:  1
       node   10, deallocated PAW data for type:  2
       node   11, deallocated PAW data for type:  1
       node   11, deallocated PAW data for type:  2
       node   12, deallocated PAW data for type:  1
       node   12, deallocated PAW data for type:  2
       node   13, deallocated PAW data for type:  1
       node   13, deallocated PAW data for type:  2
       node   14, deallocated PAW data for type:  2
       node   14, deallocated PAW data for type:  3
       node   15, deallocated PAW data for type:  2
       node   15, deallocated PAW data for type:  3
       node   16, deallocated PAW data for type:  1
       node   16, deallocated PAW data for type:  2
       node   17, deallocated PAW data for type:  2
       node   17, deallocated PAW data for type:  3
       node   18, deallocated PAW data for type:  2
       node   18, deallocated PAW data for type:  3
       node   19, deallocated PAW data for type:  1
       node   19, deallocated PAW data for type:  3
       node   20, deallocated PAW data for type:  1
       node   20, deallocated PAW data for type:  2
       node   21, deallocated PAW data for type:  2
       node   21, deallocated PAW data for type:  3
       node   22, deallocated PAW data for type:  1
       node   22, deallocated PAW data for type:  2
       node   23, deallocated PAW data for type:  2
       node   23, deallocated PAW data for type:  3
       node   24, deallocated PAW data for type:  2
       node   24, deallocated PAW data for type:  3
       node   25, deallocated PAW data for type:  1
       node   25, deallocated PAW data for type:  3
       node   26, deallocated PAW data for type:  1
       node   26, deallocated PAW data for type:  2
       node   27, deallocated PAW data for type:  2
       node   27, deallocated PAW data for type:  3
       node   28, deallocated PAW data for type:  1
       node   28, deallocated PAW data for type:  2
       node   29, deallocated PAW data for type:  2
       node   29, deallocated PAW data for type:  3
       node   30, deallocated PAW data for type:  2
       node   30, deallocated PAW data for type:  3
       node   31, deallocated PAW data for type:  1
       node   31, deallocated PAW data for type:  3

     total cpu time spent up to now is        5.2 secs

     per-process dynamical memory:    20.7 Mb

     Self-consistent Calculation

     iteration #  1     ecut=   100.00 Ry     beta= 0.70
     Davidson diagonalization with overlap
     ethr =  1.00E-04,  avg # of iterations =  5.0

     total cpu time spent up to now is       11.8 secs

     total energy              =    -547.12342276 Ry
     Harris-Foulkes estimate   =    -549.00311822 Ry
     estimated scf accuracy    <       2.74402140 Ry

     iteration #  2     ecut=   100.00 Ry     beta= 0.70
     Davidson diagonalization with overlap
     ethr =  3.27E-03,  avg # of iterations =  3.0

     total cpu time spent up to now is       16.6 secs

     total energy              =    -547.52684153 Ry
     Harris-Foulkes estimate   =    -548.62596259 Ry
     estimated scf accuracy    <       1.99059680 Ry

     iteration #  3     ecut=   100.00 Ry     beta= 0.70
     Davidson diagonalization with overlap
     ethr =  2.37E-03,  avg # of iterations =  3.0

     total cpu time spent up to now is       20.9 secs

     total energy              =    -548.01997478 Ry
     Harris-Foulkes estimate   =    -548.06048709 Ry
     estimated scf accuracy    <       0.08167516 Ry

     iteration #  4     ecut=   100.00 Ry     beta= 0.70
     Davidson diagonalization with overlap
     ethr =  9.72E-05,  avg # of iterations =  4.0

     total cpu time spent up to now is       25.6 secs

     total energy              =    -548.04738957 Ry
     Harris-Foulkes estimate   =    -548.05769590 Ry
     estimated scf accuracy    <       0.02033704 Ry

     iteration #  5     ecut=   100.00 Ry     beta= 0.70
     Davidson diagonalization with overlap
     ethr =  2.42E-05,  avg # of iterations =  3.0

     total cpu time spent up to now is       30.0 secs

     total energy              =    -548.05158204 Ry
     Harris-Foulkes estimate   =    -548.05199271 Ry
     estimated scf accuracy    <       0.00087595 Ry

     iteration #  6     ecut=   100.00 Ry     beta= 0.70
     Davidson diagonalization with overlap
     ethr =  1.04E-06,  avg # of iterations =  4.0

     total cpu time spent up to now is       34.8 secs

     total energy              =    -548.05178900 Ry
     Harris-Foulkes estimate   =    -548.05193181 Ry
     estimated scf accuracy    <       0.00027885 Ry

     iteration #  7     ecut=   100.00 Ry     beta= 0.70
     Davidson diagonalization with overlap
     ethr =  3.32E-07,  avg # of iterations =  4.0

     total cpu time spent up to now is       39.2 secs

     total energy              =    -548.05185157 Ry
     Harris-Foulkes estimate   =    -548.05191501 Ry
     estimated scf accuracy    <       0.00017615 Ry

     iteration #  8     ecut=   100.00 Ry     beta= 0.70
     Davidson diagonalization with overlap
     ethr =  2.10E-07,  avg # of iterations =  4.0

     total cpu time spent up to now is       43.4 secs

     total energy              =    -548.05188367 Ry
     Harris-Foulkes estimate   =    -548.05188670 Ry
     estimated scf accuracy    <       0.00000758 Ry

     iteration #  9     ecut=   100.00 Ry     beta= 0.70
     Davidson diagonalization with overlap
     ethr =  9.02E-09,  avg # of iterations =  4.0

     total cpu time spent up to now is       48.0 secs

     total energy              =    -548.05188547 Ry
     Harris-Foulkes estimate   =    -548.05188639 Ry
     estimated scf accuracy    <       0.00000202 Ry

     iteration # 10     ecut=   100.00 Ry     beta= 0.70
     Davidson diagonalization with overlap
     ethr =  2.40E-09,  avg # of iterations =  4.0

     total cpu time spent up to now is       52.5 secs

     total energy              =    -548.05188591 Ry
     Harris-Foulkes estimate   =    -548.05188599 Ry
     estimated scf accuracy    <       0.00000020 Ry

     iteration # 11     ecut=   100.00 Ry     beta= 0.70
     Davidson diagonalization with overlap
     ethr =  2.42E-10,  avg # of iterations =  4.0

     total cpu time spent up to now is       57.1 secs

     End of self-consistent calculation

          k = 0.0169 0.0214 0.0407 ( 36525 PWs)   bands (ev):

   -16.1424 -16.0022 -15.5403 -15.2918 -13.9474 -13.8756 -12.3175 -12.2993
   -11.2386 -11.1024  -8.9459  -8.9364  -8.2128  -8.1299  -6.3424  -6.2352
    -5.3333  -5.2775  -5.0342  -4.7926  -4.2548  -4.1736  -3.9816  -3.8674
    -3.1801  -3.0937  -2.7751  -2.6367  -2.4095  -2.2989  -2.2000  -2.1525
    -1.2350  -1.1272  -1.0668  -0.9957  -0.8795  -0.7921  -0.0636   0.1281
     0.5763   0.7161

     occupation numbers 
     1.0000   1.0000   1.0000   1.0000   1.0000   1.0000   1.0000   1.0000
     1.0000   1.0000   1.0000   1.0000   1.0000   1.0000   1.0000   1.0000
     1.0000   1.0000   1.0000   1.0000   1.0000   1.0000   1.0000   1.0000
     1.0000   1.0000   1.0000   1.0000   1.0000   1.0000   1.0000   1.0000
     1.0000   1.0000   1.0000   1.0000   1.0000   1.0000   1.0000   1.0000
     1.0000   1.0000

          k = 0.0169 0.0214 0.1078 ( 36561 PWs)   bands (ev):

   -16.0446 -15.8975 -15.4871 -15.2439 -13.9604 -13.8660 -12.3166 -12.2760
   -11.2486 -11.1373  -8.9172  -8.8982  -8.1737  -8.1035  -6.4112  -6.3057
    -5.3167  -5.2750  -5.1234  -4.9112  -4.2978  -4.2139  -4.1110  -3.8885
    -3.8059  -3.6904  -2.8634  -2.7162  -2.6046  -2.4440  -2.4076  -2.3550
    -1.2913  -1.1101  -1.0662  -0.9211  -0.8677  -0.8476  -0.2644  -0.1039
     0.7487   0.9692

     occupation numbers 
     1.0000   1.0000   1.0000   1.0000   1.0000   1.0000   1.0000   1.0000
     1.0000   1.0000   1.0000   1.0000   1.0000   1.0000   1.0000   1.0000
     1.0000   1.0000   1.0000   1.0000   1.0000   1.0000   1.0000   1.0000
     1.0000   1.0000   1.0000   1.0000   1.0000   1.0000   1.0000   1.0000
     1.0000   1.0000   1.0000   1.0000   1.0000   1.0000   1.0000   1.0000
     1.0000   1.0000

          k = 0.0169 0.0214-0.0936 ( 36547 PWs)   bands (ev):

   -16.0523 -15.8884 -15.4847 -15.2473 -13.9534 -13.8727 -12.3226 -12.2734
   -11.2382 -11.1480  -8.9388  -8.8736  -8.1776  -8.0968  -6.3867  -6.3164
    -5.3240  -5.2738  -5.1060  -4.9133  -4.3163  -4.1989  -4.1030  -3.9470
    -3.7593  -3.7366  -2.8575  -2.7084  -2.5794  -2.4723  -2.4309  -2.3488
    -1.2259  -1.1602  -1.0039  -0.9512  -0.8924  -0.8290  -0.3213  -0.0629
     0.7520   0.9647

     occupation numbers 
     1.0000   1.0000   1.0000   1.0000   1.0000   1.0000   1.0000   1.0000
     1.0000   1.0000   1.0000   1.0000   1.0000   1.0000   1.0000   1.0000
     1.0000   1.0000   1.0000   1.0000   1.0000   1.0000   1.0000   1.0000
     1.0000   1.0000   1.0000   1.0000   1.0000   1.0000   1.0000   1.0000
     1.0000   1.0000   1.0000   1.0000   1.0000   1.0000   1.0000   1.0000
     1.0000   1.0000

          k = 0.0169 0.0214-0.0265 ( 36551 PWs)   bands (ev):

   -16.1494 -15.9938 -15.5393 -15.2938 -13.9426 -13.8798 -12.3182 -12.3029
   -11.2283 -11.1126  -8.9752  -8.9040  -8.2404  -8.0960  -6.3381  -6.2251
    -5.3427  -5.2688  -5.0657  -4.7616  -4.2568  -4.1828  -4.0014  -3.8420
    -3.1852  -3.1341  -2.8130  -2.6078  -2.3769  -2.2840  -2.2323  -2.1617
    -1.2149  -1.1524  -1.0387  -0.9520  -0.9164  -0.7883  -0.0280   0.0757
     0.6030   0.6955

     occupation numbers 
     1.0000   1.0000   1.0000   1.0000   1.0000   1.0000   1.0000   1.0000
     1.0000   1.0000   1.0000   1.0000   1.0000   1.0000   1.0000   1.0000
     1.0000   1.0000   1.0000   1.0000   1.0000   1.0000   1.0000   1.0000
     1.0000   1.0000   1.0000   1.0000   1.0000   1.0000   1.0000   1.0000
     1.0000   1.0000   1.0000   1.0000   1.0000   1.0000   1.0000   1.0000
     1.0000   1.0000

          k = 0.0169 0.0643 0.0407 ( 36518 PWs)   bands (ev):

   -16.1074 -15.9731 -15.5552 -15.3052 -13.9832 -13.9112 -12.3660 -12.3229
   -11.2336 -11.1085  -8.8755  -8.8205  -8.1273  -8.0548  -6.3815  -6.2800
    -5.2828  -5.2524  -5.1691  -4.9181  -4.3346  -4.2119  -4.0505  -3.9247
    -3.2487  -3.1843  -2.6760  -2.5643  -2.4770  -2.3692  -2.1991  -2.1088
    -1.1082  -1.0153  -0.9253  -0.8876  -0.8466  -0.7262  -0.0637   0.1802
     0.6377   0.7477

     occupation numbers 
     1.0000   1.0000   1.0000   1.0000   1.0000   1.0000   1.0000   1.0000
     1.0000   1.0000   1.0000   1.0000   1.0000   1.0000   1.0000   1.0000
     1.0000   1.0000   1.0000   1.0000   1.0000   1.0000   1.0000   1.0000
     1.0000   1.0000   1.0000   1.0000   1.0000   1.0000   1.0000   1.0000
     1.0000   1.0000   1.0000   1.0000   1.0000   1.0000   1.0000   1.0000
     1.0000   1.0000

          k = 0.0169 0.0643 0.1078 ( 36558 PWs)   bands (ev):

   -16.0252 -15.8830 -15.4901 -15.2464 -13.9703 -13.8824 -12.3217 -12.3121
   -11.2643 -11.1664  -8.9170  -8.8419  -8.1834  -8.1021  -6.3467  -6.2716
    -5.2916  -5.2724  -5.0539  -4.8205  -4.3663  -4.2074  -4.0199  -3.9910
    -3.9075  -3.8599  -2.8012  -2.7145  -2.6106  -2.5193  -2.3809  -2.2823
    -1.2139  -1.1631  -1.0575  -1.0108  -0.9017  -0.8005  -0.0932   0.0478
     0.7378   0.9958

     occupation numbers 
     1.0000   1.0000   1.0000   1.0000   1.0000   1.0000   1.0000   1.0000
     1.0000   1.0000   1.0000   1.0000   1.0000   1.0000   1.0000   1.0000
     1.0000   1.0000   1.0000   1.0000   1.0000   1.0000   1.0000   1.0000
     1.0000   1.0000   1.0000   1.0000   1.0000   1.0000   1.0000   1.0000
     1.0000   1.0000   1.0000   1.0000   1.0000   1.0000   1.0000   1.0000
     1.0000   1.0000

          k = 0.0169 0.0643-0.0936 ( 36547 PWs)   bands (ev):

   -16.0330 -15.8745 -15.4862 -15.2507 -13.9662 -13.8861 -12.3269 -12.3107
   -11.2574 -11.1737  -8.8835  -8.8706  -8.1669  -8.1209  -6.3529  -6.2558
    -5.2874  -5.2722  -4.9643  -4.8567  -4.4037  -4.2092  -4.0968  -3.9740
    -3.9350  -3.8247  -2.8039  -2.7181  -2.6217  -2.5700  -2.3463  -2.2469
    -1.2160  -1.1020  -1.0810  -1.0132  -0.8824  -0.8217  -0.1471   0.0834
     0.7406   0.9933

     occupation numbers 
     1.0000   1.0000   1.0000   1.0000   1.0000   1.0000   1.0000   1.0000
     1.0000   1.0000   1.0000   1.0000   1.0000   1.0000   1.0000   1.0000
     1.0000   1.0000   1.0000   1.0000   1.0000   1.0000   1.0000   1.0000
     1.0000   1.0000   1.0000   1.0000   1.0000   1.0000   1.0000   1.0000
     1.0000   1.0000   1.0000   1.0000   1.0000   1.0000   1.0000   1.0000
     1.0000   1.0000

          k = 0.0169 0.0643-0.0265 ( 36489 PWs)   bands (ev):

   -16.1144 -15.9654 -15.5522 -15.3085 -13.9821 -13.9116 -12.3638 -12.3289
   -11.2254 -11.1178  -8.8604  -8.8292  -8.1307  -8.0520  -6.3854  -6.2712
    -5.2777  -5.2530  -5.0819  -4.9685  -4.3691  -4.1799  -4.1131  -3.9436
    -3.2284  -3.2051  -2.6663  -2.5123  -2.4762  -2.4197  -2.1994  -2.1066
    -1.1377  -0.9892  -0.9401  -0.8755  -0.8207  -0.7239  -0.0298   0.1326
     0.6606   0.7273

     occupation numbers 
     1.0000   1.0000   1.0000   1.0000   1.0000   1.0000   1.0000   1.0000
     1.0000   1.0000   1.0000   1.0000   1.0000   1.0000   1.0000   1.0000
     1.0000   1.0000   1.0000   1.0000   1.0000   1.0000   1.0000   1.0000
     1.0000   1.0000   1.0000   1.0000   1.0000   1.0000   1.0000   1.0000
     1.0000   1.0000   1.0000   1.0000   1.0000   1.0000   1.0000   1.0000
     1.0000   1.0000

          k =-0.0169 0.0214-0.0407 ( 36525 PWs)   bands (ev):

   -16.1483 -15.9960 -15.5364 -15.2957 -13.9415 -13.8808 -12.3156 -12.3054
   -11.2264 -11.1145  -8.9740  -8.9041  -8.2285  -8.1131  -6.2860  -6.2689
    -5.3472  -5.2645  -5.0445  -4.8004  -4.2431  -4.1778  -4.0285  -3.8265
    -3.1767  -3.1364  -2.7936  -2.6248  -2.3860  -2.3098  -2.2161  -2.1366
    -1.2357  -1.1193  -1.0594  -0.9913  -0.8798  -0.7834  -0.0271   0.0761
     0.5766   0.7179

     occupation numbers 
     1.0000   1.0000   1.0000   1.0000   1.0000   1.0000   1.0000   1.0000
     1.0000   1.0000   1.0000   1.0000   1.0000   1.0000   1.0000   1.0000
     1.0000   1.0000   1.0000   1.0000   1.0000   1.0000   1.0000   1.0000
     1.0000   1.0000   1.0000   1.0000   1.0000   1.0000   1.0000   1.0000
     1.0000   1.0000   1.0000   1.0000   1.0000   1.0000   1.0000   1.0000
     1.0000   1.0000

          k =-0.0169 0.0214-0.1078 ( 36561 PWs)   bands (ev):

   -16.0516 -15.8900 -15.4822 -15.2489 -13.9535 -13.8725 -12.3228 -12.2732
   -11.2376 -11.1487  -8.9400  -8.8721  -8.1603  -8.1170  -6.3660  -6.3284
    -5.3296  -5.2722  -5.0838  -4.9445  -4.3213  -4.2156  -4.1244  -3.8814
    -3.7781  -3.7221  -2.8805  -2.7017  -2.6046  -2.4663  -2.4065  -2.3389
    -1.2807  -1.1096  -1.0342  -0.9194  -0.8855  -0.8416  -0.3192  -0.0646
     0.7406   0.9730

     occupation numbers 
     1.0000   1.0000   1.0000   1.0000   1.0000   1.0000   1.0000   1.0000
     1.0000   1.0000   1.0000   1.0000   1.0000   1.0000   1.0000   1.0000
     1.0000   1.0000   1.0000   1.0000   1.0000   1.0000   1.0000   1.0000
     1.0000   1.0000   1.0000   1.0000   1.0000   1.0000   1.0000   1.0000
     1.0000   1.0000   1.0000   1.0000   1.0000   1.0000   1.0000   1.0000
     1.0000   1.0000

          k =-0.0169 0.0214 0.0936 ( 36547 PWs)   bands (ev):

   -16.0458 -15.8949 -15.4905 -15.2417 -13.9587 -13.8679 -12.3164 -12.2766
   -11.2436 -11.1417  -8.9153  -8.9016  -8.1938  -8.0796  -6.4091  -6.3096
    -5.3237  -5.2779  -5.1498  -4.8750  -4.2982  -4.1899  -4.1094  -3.9387
    -3.7751  -3.6909  -2.8535  -2.7161  -2.6207  -2.4506  -2.4012  -2.3646
    -1.2408  -1.1735  -1.0384  -0.9260  -0.8924  -0.8248  -0.2606  -0.1067
     0.7619   0.9571

     occupation numbers 
     1.0000   1.0000   1.0000   1.0000   1.0000   1.0000   1.0000   1.0000
     1.0000   1.0000   1.0000   1.0000   1.0000   1.0000   1.0000   1.0000
     1.0000   1.0000   1.0000   1.0000   1.0000   1.0000   1.0000   1.0000
     1.0000   1.0000   1.0000   1.0000   1.0000   1.0000   1.0000   1.0000
     1.0000   1.0000   1.0000   1.0000   1.0000   1.0000   1.0000   1.0000
     1.0000   1.0000

          k =-0.0169 0.0214 0.0265 ( 36551 PWs)   bands (ev):

   -16.1441 -15.9990 -15.5440 -15.2895 -13.9442 -13.8790 -12.3199 -12.2974
   -11.2339 -11.1061  -8.9551  -8.9301  -8.2430  -8.0920  -6.3378  -6.2420
    -5.3446  -5.2821  -5.0837  -4.7351  -4.2538  -4.1820  -3.9379  -3.8619
    -3.1820  -3.1126  -2.8097  -2.6331  -2.3981  -2.3075  -2.2034  -2.1515
    -1.2073  -1.1343  -1.0815  -0.9893  -0.8613  -0.8090  -0.0650   0.1277
     0.5982   0.6970

     occupation numbers 
     1.0000   1.0000   1.0000   1.0000   1.0000   1.0000   1.0000   1.0000
     1.0000   1.0000   1.0000   1.0000   1.0000   1.0000   1.0000   1.0000
     1.0000   1.0000   1.0000   1.0000   1.0000   1.0000   1.0000   1.0000
     1.0000   1.0000   1.0000   1.0000   1.0000   1.0000   1.0000   1.0000
     1.0000   1.0000   1.0000   1.0000   1.0000   1.0000   1.0000   1.0000
     1.0000   1.0000

          k =-0.0169 0.0643-0.0407 ( 36518 PWs)   bands (ev):

   -16.1139 -15.9664 -15.5505 -15.3099 -13.9775 -13.9160 -12.3638 -12.3299
   -11.2211 -11.1206  -8.8532  -8.8380  -8.1361  -8.0489  -6.3482  -6.2912
    -5.2879  -5.2525  -5.1047  -4.9712  -4.3746  -4.2309  -4.0642  -3.8847
    -3.2278  -3.2125  -2.6846  -2.5448  -2.4756  -2.4228  -2.1808  -2.1025
    -1.1172  -1.0005  -0.9397  -0.8638  -0.8092  -0.7465  -0.0295   0.1296
     0.6337   0.7536

     occupation numbers 
     1.0000   1.0000   1.0000   1.0000   1.0000   1.0000   1.0000   1.0000
     1.0000   1.0000   1.0000   1.0000   1.0000   1.0000   1.0000   1.0000
     1.0000   1.0000   1.0000   1.0000   1.0000   1.0000   1.0000   1.0000
     1.0000   1.0000   1.0000   1.0000   1.0000   1.0000   1.0000   1.0000
     1.0000   1.0000   1.0000   1.0000   1.0000   1.0000   1.0000   1.0000
     1.0000   1.0000

          k =-0.0169 0.0643-0.1078 ( 36558 PWs)   bands (ev):

   -16.0326 -15.8753 -15.4848 -15.2518 -13.9632 -13.8890 -12.3273 -12.3107
   -11.2535 -11.1767  -8.8871  -8.8680  -8.1675  -8.1220  -6.3254  -6.2705
    -5.2921  -5.2686  -4.9838  -4.8676  -4.4083  -4.2142  -4.0657  -3.9740
    -3.9234  -3.8323  -2.8102  -2.7209  -2.5977  -2.5522  -2.3765  -2.2574
    -1.2201  -1.1128  -1.0571  -1.0335  -0.8671  -0.8203  -0.1454   0.0836
     0.7290   1.0009

     occupation numbers 
     1.0000   1.0000   1.0000   1.0000   1.0000   1.0000   1.0000   1.0000
     1.0000   1.0000   1.0000   1.0000   1.0000   1.0000   1.0000   1.0000
     1.0000   1.0000   1.0000   1.0000   1.0000   1.0000   1.0000   1.0000
     1.0000   1.0000   1.0000   1.0000   1.0000   1.0000   1.0000   1.0000
     1.0000   1.0000   1.0000   1.0000   1.0000   1.0000   1.0000   1.0000
     1.0000   1.0000

          k =-0.0169 0.0643 0.0936 ( 36547 PWs)   bands (ev):

   -16.0260 -15.8814 -15.4925 -15.2447 -13.9710 -13.8819 -12.3210 -12.3128
   -11.2615 -11.1694  -8.9168  -8.8426  -8.1917  -8.0911  -6.3431  -6.2808
    -5.2920  -5.2811  -5.0650  -4.7810  -4.3650  -4.2285  -4.0579  -3.9671
    -3.8965  -3.8379  -2.7939  -2.7428  -2.6360  -2.5467  -2.3468  -2.2578
    -1.2116  -1.1315  -1.0631  -1.0349  -0.9084  -0.7985  -0.0917   0.0445
     0.7464   0.9888

     occupation numbers 
     1.0000   1.0000   1.0000   1.0000   1.0000   1.0000   1.0000   1.0000
     1.0000   1.0000   1.0000   1.0000   1.0000   1.0000   1.0000   1.0000
     1.0000   1.0000   1.0000   1.0000   1.0000   1.0000   1.0000   1.0000
     1.0000   1.0000   1.0000   1.0000   1.0000   1.0000   1.0000   1.0000
     1.0000   1.0000   1.0000   1.0000   1.0000   1.0000   1.0000   1.0000
     1.0000   1.0000

          k =-0.0169 0.0643 0.0265 ( 36489 PWs)   bands (ev):

   -16.1084 -15.9712 -15.5576 -15.3036 -13.9833 -13.9114 -12.3669 -12.3217
   -11.2307 -11.1119  -8.8784  -8.8188  -8.1399  -8.0365  -6.3796  -6.2925
    -5.2851  -5.2593  -5.1715  -4.8955  -4.3279  -4.1895  -4.0863  -3.9215
    -3.2492  -3.1842  -2.6894  -2.5328  -2.4897  -2.3751  -2.1863  -2.1199
    -1.1077  -1.0326  -0.9575  -0.8855  -0.8319  -0.6941  -0.0643   0.1804
     0.6514   0.7331

     occupation numbers 
     1.0000   1.0000   1.0000   1.0000   1.0000   1.0000   1.0000   1.0000
     1.0000   1.0000   1.0000   1.0000   1.0000   1.0000   1.0000   1.0000
     1.0000   1.0000   1.0000   1.0000   1.0000   1.0000   1.0000   1.0000
     1.0000   1.0000   1.0000   1.0000   1.0000   1.0000   1.0000   1.0000
     1.0000   1.0000   1.0000   1.0000   1.0000   1.0000   1.0000   1.0000
     1.0000   1.0000

     highest occupied level (ev):     1.0009

!    total energy              =    -548.05188595 Ry
     Harris-Foulkes estimate   =    -548.05188597 Ry
     estimated scf accuracy    <       0.00000003 Ry

     total all-electron energy =     -4615.895374 Ry

     The total energy is the sum of the following terms:

     one-electron contribution =    -155.62148914 Ry
     hartree contribution      =     109.20987868 Ry
     xc contribution           =    -104.25520783 Ry
     ewald contribution        =    -141.60236580 Ry
     one-center paw contrib.   =    -255.78270187 Ry
      -> PAW hartree energy AE =      19.33011239 Ry
      -> PAW hartree energy PS =     -19.22521360 Ry
      -> PAW xc energy AE      =     -55.68664647 Ry
      -> PAW xc energy PS      =      10.13909259 Ry
      -> total E_H with PAW    =     109.31477746 Ry
      -> total E_XC with PAW   =    -149.80276171 Ry

     convergence has been achieved in  11 iterations
 writing file ./scratch/scf-854.save/charge-density
 writing file ./scratch/scf-854.save/charge-density
 writing file ./scratch/scf-854.save/charge-density
 writing file ./scratch/scf-854.save/charge-density
 writing file ./scratch/scf-854.save/charge-density
 writing file ./scratch/scf-854.save/charge-density
 writing file ./scratch/scf-854.save/charge-density
 writing file ./scratch/scf-854.save/charge-density
 writing file ./scratch/scf-854.save/charge-density
 writing file ./scratch/scf-854.save/charge-density
 writing file ./scratch/scf-854.save/charge-density
 writing file ./scratch/scf-854.save/charge-density
 writing file ./scratch/scf-854.save/charge-density
 writing file ./scratch/scf-854.save/charge-density
 writing file ./scratch/scf-854.save/charge-density
 writing file ./scratch/scf-854.save/charge-density
 writing file ./scratch/scf-854.save/charge-density
 writing file ./scratch/scf-854.save/charge-density
 writing file ./scratch/scf-854.save/charge-density
 writing file ./scratch/scf-854.save/charge-density
 writing file ./scratch/scf-854.save/charge-density
 writing file ./scratch/scf-854.save/charge-density
 writing file ./scratch/scf-854.save/charge-density
 writing file ./scratch/scf-854.save/charge-density
 writing file ./scratch/scf-854.save/charge-density
 writing file ./scratch/scf-854.save/charge-density
 writing file ./scratch/scf-854.save/charge-density
 writing file ./scratch/scf-854.save/charge-density
 writing file ./scratch/scf-854.save/charge-density
 writing file ./scratch/scf-854.save/charge-density
 writing file ./scratch/scf-854.save/charge-density
 writing file ./scratch/scf-854.save/charge-density

     Forces acting on atoms (cartesian axes, Ry/au):

     atom    1 type  2   force =    -0.00537522   -0.01888655    0.00736318
     atom    2 type  1   force =    -0.00408544    0.00562416    0.00275030
     atom    3 type  1   force =     0.02686909    0.01594586   -0.02375511
     atom    4 type  3   force =    -0.00107702    0.00183883    0.00448452
     atom    5 type  1   force =    -0.00007671   -0.03702540    0.01739058
     atom    6 type  3   force =    -0.00280938    0.00284113   -0.00614565
     atom    7 type  3   force =     0.00087691    0.00159279    0.00031726
     atom    8 type  1   force =     0.00029610   -0.00184059    0.00312627
     atom    9 type  3   force =    -0.00058737    0.00319537    0.00098193
     atom   10 type  1   force =    -0.00106340    0.00185674   -0.00153396
     atom   11 type  1   force =    -0.00275948    0.00282863    0.00558555
     atom   12 type  2   force =     0.01118753   -0.00101303   -0.00590315
     atom   13 type  3   force =     0.00514088    0.00365753   -0.00444685
     atom   14 type  1   force =    -0.00496828    0.01249748    0.00980751
     atom   15 type  3   force =    -0.00141003   -0.00275899    0.00116494
     atom   16 type  1   force =    -0.00399104    0.02728857    0.00135777
     atom   17 type  1   force =     0.01946787   -0.03726394   -0.00623855
     atom   18 type  2   force =    -0.03423005    0.01768696   -0.00571386
     atom   19 type  3   force =    -0.00203185    0.00103892   -0.00102019
     atom   20 type  1   force =    -0.00282532    0.00661735   -0.00277895
     atom   21 type  3   force =    -0.00016736   -0.00016533    0.00288418
     atom   22 type  1   force =     0.00970757   -0.00477881   -0.00229474
     atom   23 type  1   force =     0.00668998    0.00550754    0.00506350
     atom   24 type  2   force =    -0.01277800   -0.00628522   -0.00244647
     The non-local contrib.  to forces
     atom    1 type  2   force =    -0.34279909    0.17897965    0.08604913
     atom    2 type  1   force =     0.40809355   -0.27916544   -0.06394871
     atom    3 type  1   force =    -0.00673229   -0.02931168   -0.06863802
     atom    4 type  3   force =    -0.07129207   -0.01907601   -0.02670864
     atom    5 type  1   force =    -0.03002298   -0.08087471   -0.01016578
     atom    6 type  3   force =    -0.00976646   -0.06626322   -0.04151860
     atom    7 type  3   force =     0.00436340   -0.06114980    0.04977857
     atom    8 type  1   force =     0.03334885   -0.04055782    0.05666185
     atom    9 type  3   force =     0.06254152   -0.00980176    0.04588728
     atom   10 type  1   force =     0.02651344   -0.02742105    0.03133313
     atom   11 type  1   force =    -0.37824049   -0.28483640    0.03238698
     atom   12 type  2   force =     0.33149288    0.23102816   -0.02755459
     atom   13 type  3   force =     0.01132191    0.07039859    0.03355746
     atom   14 type  1   force =     0.03236780    0.05852760    0.04886844
     atom   15 type  3   force =     0.07059556    0.02082695    0.02660221
     atom   16 type  1   force =     0.03015845    0.08204074    0.01732179
     atom   17 type  1   force =    -0.37430811    0.25392466    0.03485034
     atom   18 type  2   force =     0.30608298   -0.24505536   -0.05696279
     atom   19 type  3   force =    -0.00500289    0.06149985   -0.04869219
     atom   20 type  1   force =    -0.03017675    0.04328699   -0.05309836
     atom   21 type  3   force =    -0.06425097    0.01104075   -0.04413168
     atom   22 type  1   force =    -0.02205902    0.03046203   -0.04996798
     atom   23 type  1   force =     0.38787180    0.33314176    0.00043509
     atom   24 type  2   force =    -0.30418503   -0.25271217   -0.00743581
     The ionic contribution  to forces
     atom    1 type  2   force =     6.11939812   -4.70799745   -0.02840401
     atom    2 type  1   force =     1.97442209   -1.78185561    0.07121800
     atom    3 type  1   force =     4.07973931    1.86418843    2.40091003
     atom    4 type  3   force =     2.14207905    0.86057566    0.90916741
     atom    5 type  1   force =     1.42971449    4.41624709    1.67233746
     atom    6 type  3   force =     0.50694234    1.87440537    1.24582457
     atom    7 type  3   force =    -0.30698024    1.80842742   -1.42335688
     atom    8 type  1   force =    -0.98940546    3.93741447   -2.65546705
     atom    9 type  3   force =    -2.07930967    0.53415826   -1.44232609
     atom   10 type  1   force =    -4.16982150    1.55254517   -2.82070337
     atom   11 type  1   force =    -1.89713897   -1.85365951   -0.31890285
     atom   12 type  2   force =    -4.81417233   -3.67666160   -0.07444800
     atom   13 type  3   force =    -0.58408639   -1.89914362   -1.12296645
     atom   14 type  1   force =    -1.77655156   -4.10068600   -2.40213491
     atom   15 type  3   force =    -2.37604337   -0.73108341   -0.99900374
     atom   16 type  1   force =    -5.13623259   -1.89567214   -2.05408049
     atom   17 type  1   force =    -2.61996207    1.24484365   -0.70447706
     atom   18 type  2   force =    -6.83727069    3.79233146   -0.32719059
     atom   19 type  3   force =     0.48513338   -1.83724680    1.47511925
     atom   20 type  1   force =     1.64263780   -4.03499060    2.76653221
     atom   21 type  3   force =     2.08322965   -0.56238538    1.43867270
     atom   22 type  1   force =     4.52830175   -1.43776194    3.06167616
     atom   23 type  1   force =     2.56685446    1.95293031    0.38926729
     atom   24 type  2   force =     6.02852239    4.68107678    0.94273640
     The local contribution  to forces
     atom    1 type  2   force =    -5.79591422    4.51664208   -0.04649200
     atom    2 type  1   force =    -2.37620359    2.05943218   -0.00618200
     atom    3 type  1   force =    -4.04479344   -1.81901802   -2.35560469
     atom    4 type  3   force =    -2.07186645   -0.83966336   -0.87797487
     atom    5 type  1   force =    -1.39956692   -4.37116196   -1.64447549
     atom    6 type  3   force =    -0.49997369   -1.80529698   -1.21044690
     atom    7 type  3   force =     0.30350776   -1.74569799    1.37391250
     atom    8 type  1   force =     0.95675817   -3.89758034    2.60143251
     atom    9 type  3   force =     2.01617074   -0.52115156    1.39741006
     atom   10 type  1   force =     4.14116624   -1.52313356    2.78705434
     atom   11 type  1   force =     2.26304137    2.13368559    0.29287005
     atom   12 type  2   force =     4.50749977    3.45379296    0.09511335
     atom   13 type  3   force =     0.57790269    1.83240029    1.08496062
     atom   14 type  1   force =     1.73940765    4.05352050    2.36259679
     atom   15 type  3   force =     2.30402433    0.70749271    0.97355938
     atom   16 type  1   force =     5.10086561    1.84184458    2.03809381
     atom   17 type  1   force =     3.00440316   -1.53003156    0.66380913
     atom   18 type  2   force =     6.50768520   -3.53861055    0.37617788
     atom   19 type  3   force =    -0.48215880    1.77678343   -1.42744657
     atom   20 type  1   force =    -1.61542562    3.99713146   -2.71577491
     atom   21 type  3   force =    -2.01916517    0.55118466   -1.39166876
     atom   22 type  1   force =    -4.49536499    1.40262290   -3.01346467
     atom   23 type  1   force =    -2.93798279   -2.27184392   -0.38482054
     atom   24 type  2   force =    -5.75015400   -4.44530152   -0.93819559
     The core correction contribution to forces
     atom    1 type  2   force =     0.01407752   -0.00654305   -0.00375505
     atom    2 type  1   force =    -0.01035209    0.00722537    0.00169842
     atom    3 type  1   force =    -0.00127170    0.00011118   -0.00038052
     atom    4 type  3   force =     0.00000000    0.00000000    0.00000000
     atom    5 type  1   force =    -0.00011331   -0.00121710   -0.00027254
     atom    6 type  3   force =     0.00000000    0.00000000    0.00000000
     atom    7 type  3   force =     0.00000000    0.00000000    0.00000000
     atom    8 type  1   force =    -0.00029667   -0.00106267    0.00053169
     atom    9 type  3   force =     0.00000000    0.00000000    0.00000000
     atom   10 type  1   force =     0.00116125   -0.00006274    0.00079177
     atom   11 type  1   force =     0.00962991    0.00760949   -0.00072545
     atom   12 type  2   force =    -0.01362763   -0.00923492    0.00097704
     atom   13 type  3   force =     0.00000000    0.00000000    0.00000000
     atom   14 type  1   force =    -0.00020676    0.00108768    0.00046288
     atom   15 type  3   force =     0.00000000    0.00000000    0.00000000
     atom   16 type  1   force =     0.00118107   -0.00097094   -0.00000333
     atom   17 type  1   force =     0.00931238   -0.00598088   -0.00042532
     atom   18 type  2   force =    -0.01084531    0.00906334    0.00220858
     atom   19 type  3   force =     0.00000000    0.00000000    0.00000000
     atom   20 type  1   force =     0.00020076    0.00121910   -0.00042527
     atom   21 type  3   force =     0.00000000    0.00000000    0.00000000
     atom   22 type  1   force =    -0.00118190   -0.00006178   -0.00056038
     atom   23 type  1   force =    -0.01010241   -0.00871733    0.00015901
     atom   24 type  2   force =     0.01289044    0.01060782    0.00039587
     The Hubbard contrib.    to forces
     atom    1 type  2   force =     0.00000000    0.00000000    0.00000000
     atom    2 type  1   force =     0.00000000    0.00000000    0.00000000
     atom    3 type  1   force =     0.00000000    0.00000000    0.00000000
     atom    4 type  3   force =     0.00000000    0.00000000    0.00000000
     atom    5 type  1   force =     0.00000000    0.00000000    0.00000000
     atom    6 type  3   force =     0.00000000    0.00000000    0.00000000
     atom    7 type  3   force =     0.00000000    0.00000000    0.00000000
     atom    8 type  1   force =     0.00000000    0.00000000    0.00000000
     atom    9 type  3   force =     0.00000000    0.00000000    0.00000000
     atom   10 type  1   force =     0.00000000    0.00000000    0.00000000
     atom   11 type  1   force =     0.00000000    0.00000000    0.00000000
     atom   12 type  2   force =     0.00000000    0.00000000    0.00000000
     atom   13 type  3   force =     0.00000000    0.00000000    0.00000000
     atom   14 type  1   force =     0.00000000    0.00000000    0.00000000
     atom   15 type  3   force =     0.00000000    0.00000000    0.00000000
     atom   16 type  1   force =     0.00000000    0.00000000    0.00000000
     atom   17 type  1   force =     0.00000000    0.00000000    0.00000000
     atom   18 type  2   force =     0.00000000    0.00000000    0.00000000
     atom   19 type  3   force =     0.00000000    0.00000000    0.00000000
     atom   20 type  1   force =     0.00000000    0.00000000    0.00000000
     atom   21 type  3   force =     0.00000000    0.00000000    0.00000000
     atom   22 type  1   force =     0.00000000    0.00000000    0.00000000
     atom   23 type  1   force =     0.00000000    0.00000000    0.00000000
     atom   24 type  2   force =     0.00000000    0.00000000    0.00000000
     The SCF correction term to forces
     atom    1 type  2   force =    -0.00013774    0.00003228   -0.00003571
     atom    2 type  1   force =    -0.00004557   -0.00001228   -0.00003622
     atom    3 type  1   force =    -0.00007296   -0.00002398   -0.00004273
     atom    4 type  3   force =     0.00000229    0.00000261   -0.00000019
     atom    5 type  1   force =    -0.00008816   -0.00001866   -0.00003388
     atom    6 type  3   force =    -0.00001174   -0.00000398   -0.00000554
     atom    7 type  3   force =    -0.00001418    0.00001323   -0.00001775
     atom    8 type  1   force =    -0.00010895   -0.00005416   -0.00003355
     atom    9 type  3   force =     0.00000988   -0.00000951    0.00000987
     atom   10 type  1   force =    -0.00008300   -0.00007101   -0.00001064
     atom   11 type  1   force =    -0.00005147    0.00002953   -0.00004399
     atom   12 type  2   force =    -0.00000533    0.00006243    0.00000823
     atom   13 type  3   force =     0.00000250    0.00000234    0.00000070
     atom   14 type  1   force =     0.00001442    0.00004777    0.00001349
     atom   15 type  3   force =     0.00001327    0.00000482    0.00000628
     atom   16 type  1   force =     0.00003625    0.00004640    0.00002517
     atom   17 type  1   force =     0.00002233   -0.00001974    0.00000353
     atom   18 type  2   force =     0.00011760   -0.00004186    0.00005224
     atom   19 type  3   force =    -0.00000371    0.00000250   -0.00000150
     atom   20 type  1   force =    -0.00006168   -0.00002953   -0.00001343
     atom   21 type  3   force =     0.00001896   -0.00000530    0.00001112
     atom   22 type  1   force =     0.00001156   -0.00003996    0.00002131
     atom   23 type  1   force =     0.00004875   -0.00000322    0.00002184
     atom   24 type  2   force =     0.00014803    0.00004394    0.00005185

     Total force =     0.094713     Total SCF correction =     0.000379

     Writing output data file scf-854.save
 writing file ./scratch/scf-854.save/charge-density
 writing file ./scratch/scf-854.save/charge-density
 writing file ./scratch/scf-854.save/charge-density
 writing file ./scratch/scf-854.save/charge-density
 writing file ./scratch/scf-854.save/charge-density
 writing file ./scratch/scf-854.save/charge-density
 writing file ./scratch/scf-854.save/charge-density
 writing file ./scratch/scf-854.save/charge-density
 writing file ./scratch/scf-854.save/charge-density
 writing file ./scratch/scf-854.save/charge-density
 writing file ./scratch/scf-854.save/charge-density
 writing file ./scratch/scf-854.save/charge-density
 writing file ./scratch/scf-854.save/charge-density
 writing file ./scratch/scf-854.save/charge-density
 writing file ./scratch/scf-854.save/charge-density
 writing file ./scratch/scf-854.save/charge-density
 writing file ./scratch/scf-854.save/charge-density
 writing file ./scratch/scf-854.save/charge-density
 writing file ./scratch/scf-854.save/charge-density
 writing file ./scratch/scf-854.save/charge-density
 writing file ./scratch/scf-854.save/charge-density
 writing file ./scratch/scf-854.save/charge-density
 writing file ./scratch/scf-854.save/charge-density
 writing file ./scratch/scf-854.save/charge-density
 writing file ./scratch/scf-854.save/charge-density
 writing file ./scratch/scf-854.save/charge-density
 writing file ./scratch/scf-854.save/charge-density
 writing file ./scratch/scf-854.save/charge-density
 writing file ./scratch/scf-854.save/charge-density
 writing file ./scratch/scf-854.save/charge-density
 writing file ./scratch/scf-854.save/charge-density
 writing file ./scratch/scf-854.save/charge-density
 
     init_run     :      4.37s CPU      4.58s WALL (       1 calls)
     electrons    :     49.07s CPU     52.00s WALL (       1 calls)
     forces       :      2.35s CPU      2.48s WALL (       1 calls)

     Called by init_run:
     wfcinit      :      1.58s CPU      1.60s WALL (       1 calls)
     wfcinit:atom :      0.02s CPU      0.02s WALL (      16 calls)
     wfcinit:wfcr :      1.46s CPU      1.48s WALL (      16 calls)
     potinit      :      0.90s CPU      0.91s WALL (       1 calls)

     Called by electrons:
     c_bands      :     38.37s CPU     38.73s WALL (      11 calls)
     sum_band     :      6.64s CPU      7.82s WALL (      11 calls)
     v_of_rho     :      0.91s CPU      0.96s WALL (      12 calls)
     v_h          :      0.06s CPU      0.06s WALL (      12 calls)
     v_xc         :      0.92s CPU      0.98s WALL (      13 calls)
     newd         :      1.53s CPU      2.87s WALL (      12 calls)
     PAW_pot      :      1.64s CPU      1.69s WALL (      12 calls)
     mix_rho      :      0.12s CPU      0.14s WALL (      11 calls)

     Called by c_bands:
     init_us_2    :      0.80s CPU      0.86s WALL (     384 calls)
     cegterg      :     36.11s CPU     36.35s WALL (     176 calls)

     Called by sum_band:
     sum_band:bec :      0.03s CPU      0.02s WALL (     176 calls)
     addusdens    :      1.52s CPU      2.65s WALL (      11 calls)

     Called by *egterg:
     h_psi        :     26.87s CPU     27.01s WALL (     864 calls)
     s_psi        :      1.98s CPU      2.01s WALL (     864 calls)
     g_psi        :      0.12s CPU      0.16s WALL (     672 calls)
     cdiaghg      :      3.44s CPU      3.44s WALL (     848 calls)
     cegterg:over :      1.72s CPU      1.64s WALL (     672 calls)
     cegterg:upda :      1.23s CPU      1.26s WALL (     672 calls)
     cegterg:last :      0.42s CPU      0.43s WALL (     192 calls)

     Called by h_psi:
     h_psi:pot    :     26.58s CPU     26.75s WALL (     864 calls)
     h_psi:calbec :      2.36s CPU      2.28s WALL (     864 calls)
     vloc_psi     :     22.26s CPU     22.50s WALL (     864 calls)
     add_vuspsi   :      1.95s CPU      1.97s WALL (     864 calls)

     General routines
     calbec       :      3.14s CPU      3.03s WALL (    1104 calls)
     fft          :      0.72s CPU      0.77s WALL (     199 calls)
     ffts         :      0.02s CPU      0.03s WALL (      23 calls)
     fftw         :     21.23s CPU     21.56s WALL (   55694 calls)
     interpolate  :      0.14s CPU      0.15s WALL (      23 calls)
     davcio       :      0.00s CPU      0.01s WALL (      16 calls)
 
     Parallel routines
     fft_scatter  :      7.75s CPU      7.78s WALL (   55916 calls)

     PAW routines
     PAW_pot      :      1.64s CPU      1.69s WALL (      12 calls)
 
     PWSCF        :  0m56.48s CPU     1m 0.16s WALL

 
   This run was terminated on:  16:54:30  20May2017            

=------------------------------------------------------------------------------=
   JOB DONE.
=------------------------------------------------------------------------------=
