
     Program PWSCF v.6.1 starts on 20May2017 at 13:34:20 

     This program is part of the open-source Quantum ESPRESSO suite
     for quantum simulation of materials; please cite
         "P. Giannozzi et al., J. Phys.:Condens. Matter 21 395502 (2009);
          URL http://www.quantum-espresso.org", 
     in publications or presentations arising from this work. More details at
     http://www.quantum-espresso.org/quote

     Parallel version (MPI & OpenMP), running on      32 processor cores
     Number of MPI processes:                32
     Threads/MPI process:                     1
     R & G space division:  proc/nbgrp/npool/nimage =      32
     Waiting for input...
     Reading input from standard input
Warning: card &IONS ignored
Warning: card     ION_TEMPERATURE   = 'INITIAL' ignored
Warning: card     TEMPW             = 586.D0 ignored
Warning: card     TOLP              = 100.D0 ignored
Warning: card     DELTA_T           = 1.D0 ignored
Warning: card     NRAISE            = 1 ignored
Warning: card / ignored
Warning: card &CELL ignored
Warning: card     CELL_DYNAMICS     = 'BFGS' ignored
Warning: card / ignored

     Current dimensions of program PWSCF are:
     Max number of different atomic species (ntypx) = 10
     Max number of k-points (npk) =  40000
     Max angular momentum in pseudopotentials (lmaxx) =  3
               file C.pbe-n-kjpaw_psl.1.0.0.UPF: wavefunction(s)  2S 2P renormalized
               file Cl.pbe-n-kjpaw_psl.1.0.0.UPF: wavefunction(s)  3S 3P renormalized
               file H.pbe-kjpaw_psl.1.0.0.UPF: wavefunction(s)  1S renormalized

     Subspace diagonalization in iterative solution of the eigenvalue problem:
     a serial algorithm will be used

 
     Parallelization info
     --------------------
     sticks:   dense  smooth     PW     G-vecs:    dense   smooth      PW
     Min         764     305     83                36108     9133    1292
     Max         765     306     84                36110     9135    1293
     Sum       24467    9791   2657              1155489   292295   41363
 


     bravais-lattice index     =            0
     lattice parameter (alat)  =       1.8897  a.u.
     unit-cell volume          =    2163.5316 (a.u.)^3
     number of atoms/cell      =           24
     number of atomic types    =            3
     number of electrons       =        84.00
     number of Kohn-Sham states=           42
     kinetic-energy cutoff     =     100.0000  Ry
     charge density cutoff     =    1000.0000  Ry
     convergence threshold     =      1.0E-07
     mixing beta               =       0.7000
     number of iterations used =            8  plain     mixing
     Exchange-correlation      =  SLA  PW   PBX  PBC ( 1  4  3  4 0 0)

     celldm(1)=   1.889726  celldm(2)=   0.000000  celldm(3)=   0.000000
     celldm(4)=   0.000000  celldm(5)=   0.000000  celldm(6)=   0.000000

     crystal axes: (cart. coord. in units of alat)
               a(1) = (  14.762000   0.000000   0.000000 )  
               a(2) = (   0.000000   5.832000   0.000000 )  
               a(3) = (  -1.563876   0.000000   3.723951 )  

     reciprocal axes: (cart. coord. in units 2 pi/alat)
               b(1) = (  0.067741  0.000000  0.028448 )  
               b(2) = (  0.000000  0.171468  0.000000 )  
               b(3) = (  0.000000  0.000000  0.268532 )  


     PseudoPot. # 1 for  C read from file:
     /global/cscratch1/sd/almno10/.data/PSEUDOPOTENTIALS/C.pbe-n-kjpaw_psl.1.0.0.UPF
     MD5 check sum: 2ba8448e293caca687844dde9a1b88a8
     Pseudo is Projector augmented-wave + core cor, Zval =  4.0
     Generated using "atomic" code by A. Dal Corso  v.5.3.0 svn rev. 11974
     Shape of augmentation charge: PSQ
     Using radial grid of 1073 points,  4 beta functions with: 
                l(1) =   0
                l(2) =   0
                l(3) =   1
                l(4) =   1
     Q(r) pseudized with 0 coefficients 


     PseudoPot. # 2 for Cl read from file:
     /global/cscratch1/sd/almno10/.data/PSEUDOPOTENTIALS/Cl.pbe-n-kjpaw_psl.1.0.0.UPF
     MD5 check sum: dca63699d6b897c5771335df08a09219
     Pseudo is Projector augmented-wave + core cor, Zval =  7.0
     Generated using "atomic" code by A. Dal Corso  v.5.3.0 svn rev. 11974
     Shape of augmentation charge: PSQ
     Using radial grid of 1157 points,  6 beta functions with: 
                l(1) =   0
                l(2) =   0
                l(3) =   1
                l(4) =   1
                l(5) =   2
                l(6) =   2
     Q(r) pseudized with 0 coefficients 


     PseudoPot. # 3 for  H read from file:
     /global/cscratch1/sd/almno10/.data/PSEUDOPOTENTIALS/H.pbe-kjpaw_psl.1.0.0.UPF
     MD5 check sum: bc0feb48a24907a0b97fa6ee2d589a29
     Pseudo is Projector augmented-wave, Zval =  1.0
     Generated using "atomic" code by A. Dal Corso  v.5.3.0 svn rev. 11974
     Shape of augmentation charge: PSQ
     Using radial grid of  929 points,  2 beta functions with: 
                l(1) =   0
                l(2) =   0
     Q(r) pseudized with 0 coefficients 


     atomic species   valence    mass     pseudopotential
        C              4.00    12.01100      C( 1.00)
        Cl             7.00    35.45270     Cl( 1.00)
        H              1.00     1.00790      H( 1.00)

     No symmetry found


                                    s                        frac. trans.

      isym =  1     identity                                     

 cryst.   s( 1) = (     1          0          0      )
                  (     0          1          0      )
                  (     0          0          1      )

 cart.    s( 1) = (  1.0000000  0.0000000 -0.0000000 )
                  (  0.0000000  1.0000000  0.0000000 )
                  (  0.0000000  0.0000000  1.0000000 )


   Cartesian axes

     site n.     atom                  positions (alat units)
         1           Cl  tau(   1) = (  16.3414552   0.9559039   1.5462397  )
         2           C   tau(   2) = (  15.0273402   2.0127319   1.7199182  )
         3           C   tau(   3) = (  15.0747600   3.1015331   2.5892634  )
         4           H   tau(   4) = (  15.9863684   3.3496669   3.1298610  )
         5           C   tau(   5) = (  13.9555218   3.9242959   2.6961816  )
         6           H   tau(   6) = (  13.9715293   4.7759392   3.3740229  )
         7           H   tau(   7) = (   6.5059731   2.3543864   0.9328713  )
         8           C   tau(   8) = (   6.5627005   1.3611050   1.3733314  )
         9           H   tau(   9) = (   4.4882671   0.9078716   0.9921420  )
        10           C   tau(  10) = (   5.4389143   0.5330673   1.3679747  )
        11           C   tau(  11) = (   5.5632475  -0.7332324   1.9374190  )
        12           Cl  tau(  12) = (   4.1784829  -1.8853837   2.0165869  )
        13           H   tau(  13) = (  13.8108471   0.7751079   0.4325255  )
        14           C   tau(  14) = (  13.8459283   1.6547057   1.0727251  )
        15           H   tau(  15) = (  11.7981483   2.2046436   0.6834891  )
        16           C   tau(  16) = (  12.7234421   2.4739124   1.1894325  )
        17           C   tau(  17) = (  12.7888548   3.5980882   2.0064915  )
        18           Cl  tau(  18) = (  11.5057688   4.9200983   2.0324358  )
        19           H   tau(  19) = (   6.8110862  -2.1366612   2.9799253  )
        20           C   tau(  20) = (   6.7568947  -1.1473872   2.5276143  )
        21           H   tau(  21) = (   8.8321550  -0.6975552   2.8927748  )
        22           C   tau(  22) = (   7.9072457  -0.3674884   2.4244153  )
        23           C   tau(  23) = (   7.7882870   0.8944364   1.8453242  )
        24           Cl  tau(  24) = (   9.1498261   1.9095430   1.7001275  )

   Crystallographic axes

     site n.     atom                  positions (cryst. coord.)
         1           Cl  tau(   1) = (  1.1509822  0.1639067  0.4152148  )
         2           C   tau(   2) = (  1.0669029  0.3451186  0.4618530  )
         3           C   tau(   3) = (  1.0948464  0.5318129  0.6953000  )
         4           H   tau(   4) = (  1.1719791  0.5743599  0.8404677  )
         5           C   tau(   5) = (  1.0220692  0.6728903  0.7240110  )
         6           H   tau(   6) = (  1.0424368  0.8189196  0.9060330  )
         7           H   tau(   7) = (  0.4672628  0.4037014  0.2505058  )
         8           C   tau(   8) = (  0.4836358  0.2333856  0.3687834  )
         9           H   tau(   9) = (  0.3322665  0.1556707  0.2664218  )
        10           C   tau(  10) = (  0.4073565  0.0914039  0.3673449  )
        11           C   tau(  11) = (  0.4319786 -0.1257257  0.5202589  )
        12           Cl  tau(  12) = (  0.3404247 -0.3232825  0.5415180  )
        13           H   tau(  13) = (  0.9478720  0.1329060  0.1161469  )
        14           C   tau(  14) = (  0.9684609  0.2837287  0.2880610  )
        15           H   tau(  15) = (  0.8186682  0.3780253  0.1835387  )
        16           C   tau(  16) = (  0.8957421  0.4241962  0.3194007  )
        17           C   tau(  17) = (  0.9234170  0.6169561  0.5388071  )
        18           Cl  tau(  18) = (  0.8372369  0.8436383  0.5457740  )
        19           H   tau(  19) = (  0.5461664 -0.3663685  0.8002052  )
        20           C   tau(  20) = (  0.5296280 -0.1967399  0.6787452  )
        21           H   tau(  21) = (  0.6805973 -0.1196082  0.7768025  )
        22           C   tau(  22) = (  0.6046186 -0.0630124  0.6510330  )
        23           C   tau(  23) = (  0.5800862  0.1533670  0.4955285  )
        24           Cl  tau(  24) = (  0.6681883  0.3274251  0.4565386  )

     number of k points=    16
                       cart. coord. in units 2pi/alat
        k(    1) = (   0.0169354   0.0214335   0.0406785), wk =   0.1250000
        k(    2) = (   0.0169354   0.0214335   0.1078115), wk =   0.1250000
        k(    3) = (   0.0169354   0.0214335  -0.0935875), wk =   0.1250000
        k(    4) = (   0.0169354   0.0214335  -0.0264545), wk =   0.1250000
        k(    5) = (   0.0169354   0.0643004   0.0406785), wk =   0.1250000
        k(    6) = (   0.0169354   0.0643004   0.1078115), wk =   0.1250000
        k(    7) = (   0.0169354   0.0643004  -0.0935875), wk =   0.1250000
        k(    8) = (   0.0169354   0.0643004  -0.0264545), wk =   0.1250000
        k(    9) = (  -0.0169354   0.0214335  -0.0406785), wk =   0.1250000
        k(   10) = (  -0.0169354   0.0214335  -0.1078115), wk =   0.1250000
        k(   11) = (  -0.0169354   0.0214335   0.0935875), wk =   0.1250000
        k(   12) = (  -0.0169354   0.0214335   0.0264545), wk =   0.1250000
        k(   13) = (  -0.0169354   0.0643004  -0.0406785), wk =   0.1250000
        k(   14) = (  -0.0169354   0.0643004  -0.1078115), wk =   0.1250000
        k(   15) = (  -0.0169354   0.0643004   0.0935875), wk =   0.1250000
        k(   16) = (  -0.0169354   0.0643004   0.0264545), wk =   0.1250000

                       cryst. coord.
        k(    1) = (   0.2500000   0.1250000   0.1250000), wk =   0.1250000
        k(    2) = (   0.2500000   0.1250000   0.3750000), wk =   0.1250000
        k(    3) = (   0.2500000   0.1250000  -0.3750000), wk =   0.1250000
        k(    4) = (   0.2500000   0.1250000  -0.1250000), wk =   0.1250000
        k(    5) = (   0.2500000   0.3750000   0.1250000), wk =   0.1250000
        k(    6) = (   0.2500000   0.3750000   0.3750000), wk =   0.1250000
        k(    7) = (   0.2500000   0.3750000  -0.3750000), wk =   0.1250000
        k(    8) = (   0.2500000   0.3750000  -0.1250000), wk =   0.1250000
        k(    9) = (  -0.2500000   0.1250000  -0.1250000), wk =   0.1250000
        k(   10) = (  -0.2500000   0.1250000  -0.3750000), wk =   0.1250000
        k(   11) = (  -0.2500000   0.1250000   0.3750000), wk =   0.1250000
        k(   12) = (  -0.2500000   0.1250000   0.1250000), wk =   0.1250000
        k(   13) = (  -0.2500000   0.3750000  -0.1250000), wk =   0.1250000
        k(   14) = (  -0.2500000   0.3750000  -0.3750000), wk =   0.1250000
        k(   15) = (  -0.2500000   0.3750000   0.3750000), wk =   0.1250000
        k(   16) = (  -0.2500000   0.3750000   0.1250000), wk =   0.1250000

     Dense  grid:  1155489 G-vectors     FFT dimensions: ( 288, 120,  80)

     Smooth grid:   292295 G-vectors     FFT dimensions: ( 180,  72,  50)

     Estimated max dynamical RAM per process >     147.21MB

     Estimated total allocated dynamical RAM >    4710.62MB

     Initial potential from superposition of free atoms

     starting charge   83.99939, renormalised to   84.00000
     Starting wfc are   72 randomized atomic wfcs
     Checking if some PAW data can be deallocated... 
       node    0, deallocated PAW data for type:  1
       node    0, deallocated PAW data for type:  3
       node    1, deallocated PAW data for type:  1
       node    1, deallocated PAW data for type:  3
       node    2, deallocated PAW data for type:  2
       node    2, deallocated PAW data for type:  3
       node    3, deallocated PAW data for type:  2
       node    3, deallocated PAW data for type:  3
       node    4, deallocated PAW data for type:  2
       node    4, deallocated PAW data for type:  3
       node    5, deallocated PAW data for type:  2
       node    5, deallocated PAW data for type:  3
       node    6, deallocated PAW data for type:  1
       node    6, deallocated PAW data for type:  2
       node    7, deallocated PAW data for type:  1
       node    7, deallocated PAW data for type:  2
       node    8, deallocated PAW data for type:  2
       node    8, deallocated PAW data for type:  3
       node    9, deallocated PAW data for type:  2
       node    9, deallocated PAW data for type:  3
       node   10, deallocated PAW data for type:  1
       node   10, deallocated PAW data for type:  2
       node   11, deallocated PAW data for type:  1
       node   11, deallocated PAW data for type:  2
       node   12, deallocated PAW data for type:  1
       node   12, deallocated PAW data for type:  2
       node   13, deallocated PAW data for type:  1
       node   13, deallocated PAW data for type:  2
       node   14, deallocated PAW data for type:  2
       node   14, deallocated PAW data for type:  3
       node   15, deallocated PAW data for type:  2
       node   15, deallocated PAW data for type:  3
       node   16, deallocated PAW data for type:  1
       node   16, deallocated PAW data for type:  2
       node   17, deallocated PAW data for type:  2
       node   17, deallocated PAW data for type:  3
       node   18, deallocated PAW data for type:  2
       node   18, deallocated PAW data for type:  3
       node   19, deallocated PAW data for type:  1
       node   19, deallocated PAW data for type:  3
       node   20, deallocated PAW data for type:  1
       node   20, deallocated PAW data for type:  2
       node   21, deallocated PAW data for type:  2
       node   21, deallocated PAW data for type:  3
       node   22, deallocated PAW data for type:  1
       node   22, deallocated PAW data for type:  2
       node   23, deallocated PAW data for type:  2
       node   23, deallocated PAW data for type:  3
       node   24, deallocated PAW data for type:  2
       node   24, deallocated PAW data for type:  3
       node   25, deallocated PAW data for type:  1
       node   25, deallocated PAW data for type:  3
       node   26, deallocated PAW data for type:  1
       node   26, deallocated PAW data for type:  2
       node   27, deallocated PAW data for type:  2
       node   27, deallocated PAW data for type:  3
       node   28, deallocated PAW data for type:  1
       node   28, deallocated PAW data for type:  2
       node   29, deallocated PAW data for type:  2
       node   29, deallocated PAW data for type:  3
       node   30, deallocated PAW data for type:  2
       node   30, deallocated PAW data for type:  3
       node   31, deallocated PAW data for type:  1
       node   31, deallocated PAW data for type:  3

     total cpu time spent up to now is        5.2 secs

     per-process dynamical memory:    20.7 Mb

     Self-consistent Calculation

     iteration #  1     ecut=   100.00 Ry     beta= 0.70
     Davidson diagonalization with overlap
     ethr =  1.00E-04,  avg # of iterations =  5.0

     total cpu time spent up to now is       11.9 secs

     total energy              =    -547.12601590 Ry
     Harris-Foulkes estimate   =    -548.99102523 Ry
     estimated scf accuracy    <       2.72879390 Ry

     iteration #  2     ecut=   100.00 Ry     beta= 0.70
     Davidson diagonalization with overlap
     ethr =  3.25E-03,  avg # of iterations =  3.0

     total cpu time spent up to now is       16.8 secs

     total energy              =    -547.52847680 Ry
     Harris-Foulkes estimate   =    -548.60898733 Ry
     estimated scf accuracy    <       1.95222292 Ry

     iteration #  3     ecut=   100.00 Ry     beta= 0.70
     Davidson diagonalization with overlap
     ethr =  2.32E-03,  avg # of iterations =  3.0

     total cpu time spent up to now is       21.2 secs

     total energy              =    -548.01409068 Ry
     Harris-Foulkes estimate   =    -548.05537995 Ry
     estimated scf accuracy    <       0.08307178 Ry

     iteration #  4     ecut=   100.00 Ry     beta= 0.70
     Davidson diagonalization with overlap
     ethr =  9.89E-05,  avg # of iterations =  4.0

     total cpu time spent up to now is       26.0 secs

     total energy              =    -548.04059999 Ry
     Harris-Foulkes estimate   =    -548.05124587 Ry
     estimated scf accuracy    <       0.02116376 Ry

     iteration #  5     ecut=   100.00 Ry     beta= 0.70
     Davidson diagonalization with overlap
     ethr =  2.52E-05,  avg # of iterations =  3.0

     total cpu time spent up to now is       30.4 secs

     total energy              =    -548.04485084 Ry
     Harris-Foulkes estimate   =    -548.04548501 Ry
     estimated scf accuracy    <       0.00121948 Ry

     iteration #  6     ecut=   100.00 Ry     beta= 0.70
     Davidson diagonalization with overlap
     ethr =  1.45E-06,  avg # of iterations =  4.0

     total cpu time spent up to now is       35.2 secs

     total energy              =    -548.04508095 Ry
     Harris-Foulkes estimate   =    -548.04549724 Ry
     estimated scf accuracy    <       0.00097672 Ry

     iteration #  7     ecut=   100.00 Ry     beta= 0.70
     Davidson diagonalization with overlap
     ethr =  1.16E-06,  avg # of iterations =  4.0

     total cpu time spent up to now is       39.5 secs

     total energy              =    -548.04528718 Ry
     Harris-Foulkes estimate   =    -548.04534284 Ry
     estimated scf accuracy    <       0.00014660 Ry

     iteration #  8     ecut=   100.00 Ry     beta= 0.70
     Davidson diagonalization with overlap
     ethr =  1.75E-07,  avg # of iterations =  4.0

     total cpu time spent up to now is       43.9 secs

     total energy              =    -548.04531553 Ry
     Harris-Foulkes estimate   =    -548.04532437 Ry
     estimated scf accuracy    <       0.00001993 Ry

     iteration #  9     ecut=   100.00 Ry     beta= 0.70
     Davidson diagonalization with overlap
     ethr =  2.37E-08,  avg # of iterations =  4.0

     total cpu time spent up to now is       48.6 secs

     total energy              =    -548.04532023 Ry
     Harris-Foulkes estimate   =    -548.04532147 Ry
     estimated scf accuracy    <       0.00000292 Ry

     iteration # 10     ecut=   100.00 Ry     beta= 0.70
     Davidson diagonalization with overlap
     ethr =  3.47E-09,  avg # of iterations =  4.0

     total cpu time spent up to now is       53.2 secs

     total energy              =    -548.04532082 Ry
     Harris-Foulkes estimate   =    -548.04532095 Ry
     estimated scf accuracy    <       0.00000029 Ry

     iteration # 11     ecut=   100.00 Ry     beta= 0.70
     Davidson diagonalization with overlap
     ethr =  3.40E-10,  avg # of iterations =  4.0

     total cpu time spent up to now is       57.9 secs

     End of self-consistent calculation

          k = 0.0169 0.0214 0.0407 ( 36525 PWs)   bands (ev):

   -16.1578 -16.1428 -15.3041 -15.1621 -13.9186 -13.8431 -12.3426 -12.3360
   -11.2649 -11.2387  -9.0262  -8.9212  -8.2556  -8.1514  -6.3702  -6.2509
    -5.3444  -5.2892  -4.9998  -4.8131  -4.2395  -4.0721  -4.0353  -3.8708
    -3.2136  -3.1850  -2.7185  -2.5493  -2.4164  -2.3509  -2.1889  -2.1107
    -1.2081  -1.1095  -1.0239  -0.9862  -0.9229  -0.8124   0.0395   0.0645
     0.5437   0.6396

     occupation numbers 
     1.0000   1.0000   1.0000   1.0000   1.0000   1.0000   1.0000   1.0000
     1.0000   1.0000   1.0000   1.0000   1.0000   1.0000   1.0000   1.0000
     1.0000   1.0000   1.0000   1.0000   1.0000   1.0000   1.0000   1.0000
     1.0000   1.0000   1.0000   1.0000   1.0000   1.0000   1.0000   1.0000
     1.0000   1.0000   1.0000   1.0000   1.0000   1.0000   1.0000   1.0000
     1.0000   1.0000

          k = 0.0169 0.0214 0.1078 ( 36561 PWs)   bands (ev):

   -16.0751 -16.0521 -15.2577 -15.1174 -13.9070 -13.8318 -12.3245 -12.3061
   -11.2746 -11.2571  -8.9895  -8.8850  -8.2055  -8.1364  -6.3799  -6.3162
    -5.3405  -5.2916  -5.0718  -4.9253  -4.2788  -4.1645  -4.0508  -4.0010
    -3.8301  -3.7025  -2.7545  -2.7380  -2.5392  -2.4466  -2.3962  -2.3051
    -1.2993  -1.1659  -1.0922  -0.9906  -0.8801  -0.8613  -0.3227  -0.1313
     0.7011   0.8085

     occupation numbers 
     1.0000   1.0000   1.0000   1.0000   1.0000   1.0000   1.0000   1.0000
     1.0000   1.0000   1.0000   1.0000   1.0000   1.0000   1.0000   1.0000
     1.0000   1.0000   1.0000   1.0000   1.0000   1.0000   1.0000   1.0000
     1.0000   1.0000   1.0000   1.0000   1.0000   1.0000   1.0000   1.0000
     1.0000   1.0000   1.0000   1.0000   1.0000   1.0000   1.0000   1.0000
     1.0000   1.0000

          k = 0.0169 0.0214-0.0936 ( 36547 PWs)   bands (ev):

   -16.0751 -16.0540 -15.2614 -15.1120 -13.9108 -13.8227 -12.3182 -12.3114
   -11.2768 -11.2614  -8.9702  -8.9165  -8.2165  -8.1444  -6.4149  -6.2630
    -5.3334  -5.2936  -5.0733  -4.8449  -4.2826  -4.1605  -4.0748  -4.0351
    -3.7692  -3.7382  -2.7465  -2.6707  -2.5431  -2.4791  -2.3988  -2.3426
    -1.2511  -1.1899  -1.0841  -1.0201  -0.9556  -0.8443  -0.2708  -0.1911
     0.6913   0.8222

     occupation numbers 
     1.0000   1.0000   1.0000   1.0000   1.0000   1.0000   1.0000   1.0000
     1.0000   1.0000   1.0000   1.0000   1.0000   1.0000   1.0000   1.0000
     1.0000   1.0000   1.0000   1.0000   1.0000   1.0000   1.0000   1.0000
     1.0000   1.0000   1.0000   1.0000   1.0000   1.0000   1.0000   1.0000
     1.0000   1.0000   1.0000   1.0000   1.0000   1.0000   1.0000   1.0000
     1.0000   1.0000

          k = 0.0169 0.0214-0.0265 ( 36551 PWs)   bands (ev):

   -16.1648 -16.1371 -15.3078 -15.1573 -13.9236 -13.8327 -12.3477 -12.3300
   -11.2667 -11.2429  -9.0119  -8.9487  -8.2714  -8.1496  -6.4117  -6.1884
    -5.3391  -5.2979  -5.0552  -4.6851  -4.2899  -4.0488  -3.9702  -3.8922
    -3.2269  -3.1697  -2.7423  -2.5720  -2.4544  -2.2993  -2.1732  -2.1429
    -1.1920  -1.1220  -1.0442  -0.9744  -0.9197  -0.8474   0.0029   0.0846
     0.5422   0.6403

     occupation numbers 
     1.0000   1.0000   1.0000   1.0000   1.0000   1.0000   1.0000   1.0000
     1.0000   1.0000   1.0000   1.0000   1.0000   1.0000   1.0000   1.0000
     1.0000   1.0000   1.0000   1.0000   1.0000   1.0000   1.0000   1.0000
     1.0000   1.0000   1.0000   1.0000   1.0000   1.0000   1.0000   1.0000
     1.0000   1.0000   1.0000   1.0000   1.0000   1.0000   1.0000   1.0000
     1.0000   1.0000

          k = 0.0169 0.0643 0.0407 ( 36518 PWs)   bands (ev):

   -16.1314 -16.1166 -15.3058 -15.1650 -13.9599 -13.8878 -12.4041 -12.3626
   -11.2801 -11.2293  -8.8969  -8.8636  -8.1314  -8.0600  -6.3874  -6.3223
    -5.2896  -5.2717  -5.0372  -4.9700  -4.3320  -4.2604  -4.0839  -3.9630
    -3.2565  -3.2461  -2.6127  -2.5097  -2.4471  -2.3600  -2.1244  -2.0907
    -1.0974  -0.9738  -0.9345  -0.8731  -0.8442  -0.8091   0.0354   0.1040
     0.6191   0.6485

     occupation numbers 
     1.0000   1.0000   1.0000   1.0000   1.0000   1.0000   1.0000   1.0000
     1.0000   1.0000   1.0000   1.0000   1.0000   1.0000   1.0000   1.0000
     1.0000   1.0000   1.0000   1.0000   1.0000   1.0000   1.0000   1.0000
     1.0000   1.0000   1.0000   1.0000   1.0000   1.0000   1.0000   1.0000
     1.0000   1.0000   1.0000   1.0000   1.0000   1.0000   1.0000   1.0000
     1.0000   1.0000

          k = 0.0169 0.0643 0.1078 ( 36558 PWs)   bands (ev):

   -16.0526 -16.0431 -15.2542 -15.1104 -13.9322 -13.8548 -12.3540 -12.3300
   -11.3019 -11.2797  -8.8991  -8.8865  -8.1551  -8.1398  -6.3556  -6.2962
    -5.2993  -5.2780  -4.9356  -4.8736  -4.3080  -4.2405  -4.0731  -4.0356
    -3.9778  -3.8477  -2.7569  -2.6480  -2.5504  -2.4607  -2.4023  -2.2804
    -1.2543  -1.1638  -1.0572  -0.9920  -0.9221  -0.8383  -0.1754  -0.0012
     0.7246   0.7846

     occupation numbers 
     1.0000   1.0000   1.0000   1.0000   1.0000   1.0000   1.0000   1.0000
     1.0000   1.0000   1.0000   1.0000   1.0000   1.0000   1.0000   1.0000
     1.0000   1.0000   1.0000   1.0000   1.0000   1.0000   1.0000   1.0000
     1.0000   1.0000   1.0000   1.0000   1.0000   1.0000   1.0000   1.0000
     1.0000   1.0000   1.0000   1.0000   1.0000   1.0000   1.0000   1.0000
     1.0000   1.0000

          k = 0.0169 0.0643-0.0936 ( 36547 PWs)   bands (ev):

   -16.0537 -16.0440 -15.2574 -15.1053 -13.9380 -13.8440 -12.3583 -12.3235
   -11.2989 -11.2905  -8.9195  -8.8793  -8.1949  -8.1127  -6.3727  -6.2642
    -5.2993  -5.2890  -4.9858  -4.7372  -4.3494  -4.2392  -4.0767  -3.9980
    -3.9478  -3.8542  -2.7764  -2.7056  -2.5559  -2.5376  -2.3165  -2.2197
    -1.2132  -1.1711  -1.1099  -1.0596  -0.8935  -0.8674  -0.1370  -0.0563
     0.7197   0.8006

     occupation numbers 
     1.0000   1.0000   1.0000   1.0000   1.0000   1.0000   1.0000   1.0000
     1.0000   1.0000   1.0000   1.0000   1.0000   1.0000   1.0000   1.0000
     1.0000   1.0000   1.0000   1.0000   1.0000   1.0000   1.0000   1.0000
     1.0000   1.0000   1.0000   1.0000   1.0000   1.0000   1.0000   1.0000
     1.0000   1.0000   1.0000   1.0000   1.0000   1.0000   1.0000   1.0000
     1.0000   1.0000

          k = 0.0169 0.0643-0.0265 ( 36489 PWs)   bands (ev):

   -16.1375 -16.1121 -15.3090 -15.1604 -13.9657 -13.8777 -12.4082 -12.3549
   -11.2746 -11.2442  -8.8972  -8.8728  -8.1307  -8.0780  -6.4041  -6.3038
    -5.2924  -5.2692  -5.0464  -4.8580  -4.3328  -4.2189  -4.1169  -4.0206
    -3.2796  -3.2136  -2.6088  -2.4621  -2.4247  -2.3866  -2.1453  -2.0919
    -1.1169  -1.0141  -0.9482  -0.8970  -0.8234  -0.7970  -0.0158   0.1427
     0.6060   0.6547

     occupation numbers 
     1.0000   1.0000   1.0000   1.0000   1.0000   1.0000   1.0000   1.0000
     1.0000   1.0000   1.0000   1.0000   1.0000   1.0000   1.0000   1.0000
     1.0000   1.0000   1.0000   1.0000   1.0000   1.0000   1.0000   1.0000
     1.0000   1.0000   1.0000   1.0000   1.0000   1.0000   1.0000   1.0000
     1.0000   1.0000   1.0000   1.0000   1.0000   1.0000   1.0000   1.0000
     1.0000   1.0000

          k =-0.0169 0.0214-0.0407 ( 36525 PWs)   bands (ev):

   -16.1608 -16.1414 -15.3062 -15.1586 -13.9241 -13.8325 -12.3465 -12.3304
   -11.2612 -11.2495  -9.0051  -8.9528  -8.2471  -8.1807  -6.3858  -6.2151
    -5.3352  -5.2931  -5.0064  -4.7488  -4.2489  -4.0890  -3.9835  -3.8925
    -3.2261  -3.1535  -2.7133  -2.5982  -2.4585  -2.2785  -2.1889  -2.1258
    -1.1915  -1.1204  -1.0824  -0.9689  -0.9099  -0.8416   0.0059   0.0850
     0.5370   0.6425

     occupation numbers 
     1.0000   1.0000   1.0000   1.0000   1.0000   1.0000   1.0000   1.0000
     1.0000   1.0000   1.0000   1.0000   1.0000   1.0000   1.0000   1.0000
     1.0000   1.0000   1.0000   1.0000   1.0000   1.0000   1.0000   1.0000
     1.0000   1.0000   1.0000   1.0000   1.0000   1.0000   1.0000   1.0000
     1.0000   1.0000   1.0000   1.0000   1.0000   1.0000   1.0000   1.0000
     1.0000   1.0000

          k =-0.0169 0.0214-0.1078 ( 36561 PWs)   bands (ev):

   -16.0717 -16.0576 -15.2601 -15.1130 -13.9125 -13.8211 -12.3192 -12.3098
   -11.2777 -11.2614  -8.9680  -8.9167  -8.1910  -8.1731  -6.3877  -6.2933
    -5.3326  -5.2961  -5.0204  -4.8965  -4.2771  -4.1319  -4.0916  -4.0437
    -3.7810  -3.7292  -2.7618  -2.7095  -2.5315  -2.4664  -2.4009  -2.2951
    -1.3006  -1.1684  -1.1033  -0.9843  -0.9287  -0.8725  -0.2822  -0.1837
     0.6947   0.8191

     occupation numbers 
     1.0000   1.0000   1.0000   1.0000   1.0000   1.0000   1.0000   1.0000
     1.0000   1.0000   1.0000   1.0000   1.0000   1.0000   1.0000   1.0000
     1.0000   1.0000   1.0000   1.0000   1.0000   1.0000   1.0000   1.0000
     1.0000   1.0000   1.0000   1.0000   1.0000   1.0000   1.0000   1.0000
     1.0000   1.0000   1.0000   1.0000   1.0000   1.0000   1.0000   1.0000
     1.0000   1.0000

          k =-0.0169 0.0214 0.0936 ( 36547 PWs)   bands (ev):

   -16.0768 -16.0503 -15.2585 -15.1168 -13.9048 -13.8340 -12.3241 -12.3065
   -11.2707 -11.2609  -8.9893  -8.8859  -8.2116  -8.1275  -6.3996  -6.3018
    -5.3329  -5.2992  -5.0925  -4.8883  -4.2661  -4.1592  -4.0739  -4.0305
    -3.8155  -3.7089  -2.7300  -2.6627  -2.5564  -2.4622  -2.4161  -2.3562
    -1.2571  -1.1733  -1.0830  -1.0164  -0.9133  -0.8345  -0.3160  -0.1314
     0.6972   0.8122

     occupation numbers 
     1.0000   1.0000   1.0000   1.0000   1.0000   1.0000   1.0000   1.0000
     1.0000   1.0000   1.0000   1.0000   1.0000   1.0000   1.0000   1.0000
     1.0000   1.0000   1.0000   1.0000   1.0000   1.0000   1.0000   1.0000
     1.0000   1.0000   1.0000   1.0000   1.0000   1.0000   1.0000   1.0000
     1.0000   1.0000   1.0000   1.0000   1.0000   1.0000   1.0000   1.0000
     1.0000   1.0000

          k =-0.0169 0.0214 0.0265 ( 36551 PWs)   bands (ev):

   -16.1625 -16.1379 -15.3055 -15.1611 -13.9172 -13.8441 -12.3428 -12.3367
   -11.2676 -11.2349  -9.0274  -8.9235  -8.2689  -8.1312  -6.4044  -6.2157
    -5.3422  -5.2945  -5.0587  -4.7453  -4.2791  -4.0816  -3.9846  -3.8610
    -3.2260  -3.1869  -2.7411  -2.5198  -2.4169  -2.3558  -2.1871  -2.1383
    -1.1803  -1.1205  -1.0241  -0.9691  -0.9389  -0.8120   0.0381   0.0638
     0.5427   0.6422

     occupation numbers 
     1.0000   1.0000   1.0000   1.0000   1.0000   1.0000   1.0000   1.0000
     1.0000   1.0000   1.0000   1.0000   1.0000   1.0000   1.0000   1.0000
     1.0000   1.0000   1.0000   1.0000   1.0000   1.0000   1.0000   1.0000
     1.0000   1.0000   1.0000   1.0000   1.0000   1.0000   1.0000   1.0000
     1.0000   1.0000   1.0000   1.0000   1.0000   1.0000   1.0000   1.0000
     1.0000   1.0000

          k =-0.0169 0.0643-0.0407 ( 36518 PWs)   bands (ev):

   -16.1365 -16.1132 -15.3084 -15.1609 -13.9652 -13.8779 -12.4079 -12.3562
   -11.2728 -11.2443  -8.8955  -8.8757  -8.1291  -8.0833  -6.3948  -6.2945
    -5.2915  -5.2700  -5.0634  -4.8808  -4.3250  -4.2701  -4.0763  -3.9769
    -3.2812  -3.2124  -2.5931  -2.5357  -2.4417  -2.3341  -2.1533  -2.0846
    -1.0663  -1.0258  -0.9274  -0.9091  -0.8441  -0.8175  -0.0170   0.1419
     0.6036   0.6594

     occupation numbers 
     1.0000   1.0000   1.0000   1.0000   1.0000   1.0000   1.0000   1.0000
     1.0000   1.0000   1.0000   1.0000   1.0000   1.0000   1.0000   1.0000
     1.0000   1.0000   1.0000   1.0000   1.0000   1.0000   1.0000   1.0000
     1.0000   1.0000   1.0000   1.0000   1.0000   1.0000   1.0000   1.0000
     1.0000   1.0000   1.0000   1.0000   1.0000   1.0000   1.0000   1.0000
     1.0000   1.0000

          k =-0.0169 0.0643-0.1078 ( 36558 PWs)   bands (ev):

   -16.0500 -16.0477 -15.2569 -15.1056 -13.9382 -13.8437 -12.3584 -12.3235
   -11.2982 -11.2911  -8.9204  -8.8782  -8.1901  -8.1196  -6.3520  -6.2801
    -5.2970  -5.2896  -4.9761  -4.7788  -4.2804  -4.2358  -4.1327  -3.9858
    -3.9439  -3.8748  -2.7391  -2.6902  -2.5744  -2.4738  -2.3423  -2.2898
    -1.2534  -1.1250  -1.0941  -1.0583  -0.9171  -0.8520  -0.1341  -0.0557
     0.7210   0.7938

     occupation numbers 
     1.0000   1.0000   1.0000   1.0000   1.0000   1.0000   1.0000   1.0000
     1.0000   1.0000   1.0000   1.0000   1.0000   1.0000   1.0000   1.0000
     1.0000   1.0000   1.0000   1.0000   1.0000   1.0000   1.0000   1.0000
     1.0000   1.0000   1.0000   1.0000   1.0000   1.0000   1.0000   1.0000
     1.0000   1.0000   1.0000   1.0000   1.0000   1.0000   1.0000   1.0000
     1.0000   1.0000

          k =-0.0169 0.0643 0.0936 ( 36547 PWs)   bands (ev):

   -16.0532 -16.0425 -15.2543 -15.1103 -13.9319 -13.8552 -12.3536 -12.3298
   -11.3004 -11.2822  -8.8978  -8.8864  -8.1531  -8.1404  -6.3578  -6.3076
    -5.2935  -5.2868  -4.9007  -4.8657  -4.3202  -4.2350  -4.0965  -4.0588
    -3.9606  -3.8372  -2.7911  -2.6323  -2.5687  -2.5137  -2.3359  -2.2480
    -1.2419  -1.1636  -1.0708  -1.0037  -0.9213  -0.8427  -0.1780   0.0001
     0.7296   0.7862

     occupation numbers 
     1.0000   1.0000   1.0000   1.0000   1.0000   1.0000   1.0000   1.0000
     1.0000   1.0000   1.0000   1.0000   1.0000   1.0000   1.0000   1.0000
     1.0000   1.0000   1.0000   1.0000   1.0000   1.0000   1.0000   1.0000
     1.0000   1.0000   1.0000   1.0000   1.0000   1.0000   1.0000   1.0000
     1.0000   1.0000   1.0000   1.0000   1.0000   1.0000   1.0000   1.0000
     1.0000   1.0000

          k =-0.0169 0.0643 0.0265 ( 36489 PWs)   bands (ev):

   -16.1328 -16.1151 -15.3062 -15.1646 -13.9597 -13.8883 -12.4031 -12.3626
   -11.2800 -11.2310  -8.8948  -8.8641  -8.1321  -8.0564  -6.4089  -6.3192
    -5.2820  -5.2711  -5.0244  -4.9486  -4.3478  -4.2345  -4.0691  -4.0352
    -3.2562  -3.2455  -2.5849  -2.4607  -2.4346  -2.4161  -2.1444  -2.0788
    -1.1191  -1.0077  -0.9308  -0.8650  -0.8282  -0.7875   0.0380   0.1061
     0.6103   0.6537

     occupation numbers 
     1.0000   1.0000   1.0000   1.0000   1.0000   1.0000   1.0000   1.0000
     1.0000   1.0000   1.0000   1.0000   1.0000   1.0000   1.0000   1.0000
     1.0000   1.0000   1.0000   1.0000   1.0000   1.0000   1.0000   1.0000
     1.0000   1.0000   1.0000   1.0000   1.0000   1.0000   1.0000   1.0000
     1.0000   1.0000   1.0000   1.0000   1.0000   1.0000   1.0000   1.0000
     1.0000   1.0000

     highest occupied level (ev):     0.8222

!    total energy              =    -548.04532089 Ry
     Harris-Foulkes estimate   =    -548.04532092 Ry
     estimated scf accuracy    <       0.00000004 Ry

     total all-electron energy =     -4615.888809 Ry

     The total energy is the sum of the following terms:

     one-electron contribution =    -151.96146533 Ry
     hartree contribution      =     107.33102470 Ry
     xc contribution           =    -104.20635338 Ry
     ewald contribution        =    -143.42597625 Ry
     one-center paw contrib.   =    -255.78255064 Ry
      -> PAW hartree energy AE =      19.54538408 Ry
      -> PAW hartree energy PS =     -19.44022536 Ry
      -> PAW xc energy AE      =     -55.72668383 Ry
      -> PAW xc energy PS      =      10.17810709 Ry
      -> total E_H with PAW    =     107.43618343 Ry
      -> total E_XC with PAW   =    -149.75493012 Ry

     convergence has been achieved in  11 iterations
 writing file ./scratch/scf-2121.save/charge-density
 writing file ./scratch/scf-2121.save/charge-density
 writing file ./scratch/scf-2121.save/charge-density
 writing file ./scratch/scf-2121.save/charge-density
 writing file ./scratch/scf-2121.save/charge-density
 writing file ./scratch/scf-2121.save/charge-density
 writing file ./scratch/scf-2121.save/charge-density
 writing file ./scratch/scf-2121.save/charge-density
 writing file ./scratch/scf-2121.save/charge-density
 writing file ./scratch/scf-2121.save/charge-density
 writing file ./scratch/scf-2121.save/charge-density
 writing file ./scratch/scf-2121.save/charge-density
 writing file ./scratch/scf-2121.save/charge-density
 writing file ./scratch/scf-2121.save/charge-density
 writing file ./scratch/scf-2121.save/charge-density
 writing file ./scratch/scf-2121.save/charge-density
 writing file ./scratch/scf-2121.save/charge-density
 writing file ./scratch/scf-2121.save/charge-density
 writing file ./scratch/scf-2121.save/charge-density
 writing file ./scratch/scf-2121.save/charge-density
 writing file ./scratch/scf-2121.save/charge-density
 writing file ./scratch/scf-2121.save/charge-density
 writing file ./scratch/scf-2121.save/charge-density
 writing file ./scratch/scf-2121.save/charge-density
 writing file ./scratch/scf-2121.save/charge-density
 writing file ./scratch/scf-2121.save/charge-density
 writing file ./scratch/scf-2121.save/charge-density
 writing file ./scratch/scf-2121.save/charge-density
 writing file ./scratch/scf-2121.save/charge-density
 writing file ./scratch/scf-2121.save/charge-density
 writing file ./scratch/scf-2121.save/charge-density
 writing file ./scratch/scf-2121.save/charge-density

     Forces acting on atoms (cartesian axes, Ry/au):

     atom    1 type  2   force =     0.04480314   -0.02261496    0.00212395
     atom    2 type  1   force =    -0.03799304   -0.00027799    0.01418111
     atom    3 type  1   force =     0.00302835    0.00919718   -0.01170104
     atom    4 type  3   force =     0.00046891   -0.00143766    0.00146910
     atom    5 type  1   force =    -0.00465488   -0.00492689    0.01122916
     atom    6 type  3   force =     0.00303625    0.00303414   -0.00457145
     atom    7 type  3   force =    -0.00284544   -0.00012803   -0.00016474
     atom    8 type  1   force =    -0.00209193   -0.00481599   -0.01801042
     atom    9 type  3   force =     0.00119976   -0.00381130   -0.00351032
     atom   10 type  1   force =    -0.00279013   -0.00382122    0.01277838
     atom   11 type  1   force =    -0.02003982   -0.01703953    0.01225185
     atom   12 type  2   force =     0.02378987    0.03327996   -0.00564772
     atom   13 type  3   force =    -0.00144944   -0.00007154    0.00171913
     atom   14 type  1   force =    -0.00629602    0.01501366   -0.00315161
     atom   15 type  3   force =     0.00209610    0.00239084   -0.00492536
     atom   16 type  1   force =    -0.02095730    0.00434469    0.00641066
     atom   17 type  1   force =    -0.00511951    0.05385278   -0.00830185
     atom   18 type  2   force =     0.02811780   -0.05826341   -0.00387704
     atom   19 type  3   force =     0.00105069    0.00303711    0.00445895
     atom   20 type  1   force =     0.00245712   -0.01876681   -0.01546050
     atom   21 type  3   force =     0.00219218   -0.00118307   -0.00592882
     atom   22 type  1   force =    -0.01567702    0.00806281    0.01659053
     atom   23 type  1   force =    -0.02257205   -0.01570992    0.00071748
     atom   24 type  2   force =     0.03024642    0.02065514    0.00132056
     The non-local contrib.  to forces
     atom    1 type  2   force =    -0.29225124    0.25537281    0.04143915
     atom    2 type  1   force =     0.35542357   -0.30809330   -0.01808612
     atom    3 type  1   force =    -0.02271205   -0.01727125   -0.07471121
     atom    4 type  3   force =    -0.06566533   -0.01835560   -0.03921110
     atom    5 type  1   force =    -0.03821593   -0.06057216   -0.01413758
     atom    6 type  3   force =    -0.00125775   -0.06125290   -0.04944820
     atom    7 type  3   force =     0.00445356   -0.07179113    0.03214345
     atom    8 type  1   force =     0.02769358   -0.06235178    0.00498885
     atom    9 type  3   force =     0.06851732   -0.02755685    0.02690620
     atom   10 type  1   force =     0.03426626   -0.06091251    0.04370558
     atom   11 type  1   force =    -0.41248264   -0.32237545    0.03661308
     atom   12 type  2   force =     0.29529420    0.26160189   -0.02538907
     atom   13 type  3   force =     0.00306705    0.06360766    0.04663585
     atom   14 type  1   force =     0.01091544    0.08046214    0.02686956
     atom   15 type  3   force =     0.06676810    0.01986538    0.03653413
     atom   16 type  1   force =     0.00245418    0.05146940    0.07950132
     atom   17 type  1   force =    -0.37829422    0.38583696   -0.01069141
     atom   18 type  2   force =     0.25105981   -0.30156919   -0.00219883
     atom   19 type  3   force =    -0.00413413    0.07127589   -0.03257033
     atom   20 type  1   force =    -0.03359516    0.01792836   -0.06494149
     atom   21 type  3   force =    -0.06688719    0.02425343   -0.03461189
     atom   22 type  1   force =    -0.06833053    0.05839751   -0.01213363
     atom   23 type  1   force =     0.37732351    0.28597792   -0.03777091
     atom   24 type  2   force =    -0.31116368   -0.23778473    0.03828191
     The ionic contribution  to forces
     atom    1 type  2   force =     7.27686164   -4.74352065    0.83762730
     atom    2 type  1   force =     2.93539331   -1.07521991    0.30789151
     atom    3 type  1   force =     4.99544320    1.78636113    3.02057877
     atom    4 type  3   force =     2.24548772    0.71691794    1.28836062
     atom    5 type  1   force =     1.67972158    4.09816025    2.63757566
     atom    6 type  3   force =     0.46236769    1.83739376    1.49345319
     atom    7 type  3   force =    -0.44439088    1.98039673   -1.14993030
     atom    8 type  1   force =    -1.84233794    4.09166078   -1.92811816
     atom    9 type  3   force =    -2.19692577    0.86341601   -0.98537609
     atom   10 type  1   force =    -5.04019443    1.89780250   -2.56080991
     atom   11 type  1   force =    -3.26791216   -1.64657260   -0.73279383
     atom   12 type  2   force =    -6.16447681   -3.50267307   -0.61714395
     atom   13 type  3   force =    -0.22397292   -1.88983948   -1.30268625
     atom   14 type  1   force =    -0.87176391   -3.97636713   -2.20440741
     atom   15 type  3   force =    -2.01309052   -0.61993754   -1.14281915
     atom   16 type  1   force =    -4.17136373   -1.42269457   -2.50558066
     atom   17 type  1   force =    -2.84480885    1.63933454    0.13515408
     atom   18 type  2   force =    -4.44582948    3.56526343   -0.55358472
     atom   19 type  3   force =     0.20667050   -1.96500175    1.08080094
     atom   20 type  1   force =     0.51854650   -3.86784633    2.17597969
     atom   21 type  3   force =     1.96015938   -0.86144050    1.06126970
     atom   22 type  1   force =     4.07740227   -2.33875357    1.71037579
     atom   23 type  1   force =     1.76241660    1.27045337    0.06092444
     atom   24 type  2   force =     5.40659701    4.16270665   -0.12674126
     The local contribution  to forces
     atom    1 type  2   force =    -6.94971676    4.47481629   -0.87533846
     atom    2 type  1   force =    -3.31960603    1.37630755   -0.27652882
     atom    3 type  1   force =    -4.96834675   -1.75962890   -2.95731630
     atom    4 type  3   force =    -2.17937992   -0.69999708   -1.24769109
     atom    5 type  1   force =    -1.64637562   -4.04162456   -2.61131699
     atom    6 type  3   force =    -0.45806626   -1.77313142   -1.44858862
     atom    7 type  3   force =     0.43709495   -1.90871485    1.11761992
     atom    8 type  1   force =     1.81247697   -4.03315004    1.90471087
     atom    9 type  3   force =     2.12958859   -0.83966616    0.95495199
     atom   10 type  1   force =     5.00176021   -1.84095342    2.52934611
     atom   11 type  1   force =     3.64927030    1.94322569    0.70893455
     atom   12 type  2   force =     5.90599905    3.28642156    0.63558309
     atom   13 type  3   force =     0.21946711    1.82613989    1.25776644
     atom   14 type  1   force =     0.85438739    3.91030251    2.17371578
     atom   15 type  3   force =     1.94839929    0.60246512    1.10135193
     atom   16 type  1   force =     4.14629068    1.37588679    2.43253505
     atom   17 type  1   force =     3.20695864   -1.96150280   -0.13230606
     atom   18 type  2   force =     4.23463832   -3.33679321    0.55179114
     atom   19 type  3   force =    -0.20147543    1.89678039   -1.04377473
     atom   20 type  1   force =    -0.48274710    3.82985062   -2.12607260
     atom   21 type  3   force =    -1.89110216    0.83600394   -1.03259512
     atom   22 type  1   force =    -4.02373513    2.28817158   -1.68140293
     atom   23 type  1   force =    -2.15281692   -1.56524415   -0.02330513
     atom   24 type  2   force =    -5.07644163   -3.91296050    0.09124699
     The core correction contribution to forces
     atom    1 type  2   force =     0.00994089   -0.00927863   -0.00157153
     atom    2 type  1   force =    -0.00914346    0.00682064    0.00097958
     atom    3 type  1   force =    -0.00136434   -0.00015390   -0.00019795
     atom    4 type  3   force =     0.00000000    0.00000000    0.00000000
     atom    5 type  1   force =     0.00028334   -0.00089470   -0.00088289
     atom    6 type  3   force =     0.00000000    0.00000000    0.00000000
     atom    7 type  3   force =     0.00000000    0.00000000    0.00000000
     atom    8 type  1   force =     0.00010234   -0.00092513    0.00040534
     atom    9 type  3   force =     0.00000000    0.00000000    0.00000000
     atom   10 type  1   force =     0.00131796    0.00023827    0.00051733
     atom   11 type  1   force =     0.01110442    0.00861344   -0.00048132
     atom   12 type  2   force =    -0.01311646   -0.01208487    0.00124164
     atom   13 type  3   force =     0.00000000    0.00000000    0.00000000
     atom   14 type  1   force =     0.00023458    0.00057423    0.00067416
     atom   15 type  3   force =     0.00000000    0.00000000    0.00000000
     atom   16 type  1   force =     0.00166559   -0.00023441    0.00000070
     atom   17 type  1   force =     0.01111001   -0.00969622   -0.00036581
     atom   18 type  2   force =    -0.01162408    0.01477927    0.00014132
     atom   19 type  3   force =     0.00000000    0.00000000    0.00000000
     atom   20 type  1   force =     0.00035424    0.00127616   -0.00039613
     atom   21 type  3   force =     0.00000000    0.00000000    0.00000000
     atom   22 type  1   force =    -0.00100002    0.00016924   -0.00022313
     atom   23 type  1   force =    -0.00943636   -0.00695520    0.00091076
     atom   24 type  2   force =     0.01121966    0.00872213   -0.00147132
     The Hubbard contrib.    to forces
     atom    1 type  2   force =     0.00000000    0.00000000    0.00000000
     atom    2 type  1   force =     0.00000000    0.00000000    0.00000000
     atom    3 type  1   force =     0.00000000    0.00000000    0.00000000
     atom    4 type  3   force =     0.00000000    0.00000000    0.00000000
     atom    5 type  1   force =     0.00000000    0.00000000    0.00000000
     atom    6 type  3   force =     0.00000000    0.00000000    0.00000000
     atom    7 type  3   force =     0.00000000    0.00000000    0.00000000
     atom    8 type  1   force =     0.00000000    0.00000000    0.00000000
     atom    9 type  3   force =     0.00000000    0.00000000    0.00000000
     atom   10 type  1   force =     0.00000000    0.00000000    0.00000000
     atom   11 type  1   force =     0.00000000    0.00000000    0.00000000
     atom   12 type  2   force =     0.00000000    0.00000000    0.00000000
     atom   13 type  3   force =     0.00000000    0.00000000    0.00000000
     atom   14 type  1   force =     0.00000000    0.00000000    0.00000000
     atom   15 type  3   force =     0.00000000    0.00000000    0.00000000
     atom   16 type  1   force =     0.00000000    0.00000000    0.00000000
     atom   17 type  1   force =     0.00000000    0.00000000    0.00000000
     atom   18 type  2   force =     0.00000000    0.00000000    0.00000000
     atom   19 type  3   force =     0.00000000    0.00000000    0.00000000
     atom   20 type  1   force =     0.00000000    0.00000000    0.00000000
     atom   21 type  3   force =     0.00000000    0.00000000    0.00000000
     atom   22 type  1   force =     0.00000000    0.00000000    0.00000000
     atom   23 type  1   force =     0.00000000    0.00000000    0.00000000
     atom   24 type  2   force =     0.00000000    0.00000000    0.00000000
     The SCF correction term to forces
     atom    1 type  2   force =    -0.00003030   -0.00000430   -0.00003183
     atom    2 type  1   force =    -0.00005935   -0.00009248   -0.00007437
     atom    3 type  1   force =     0.00000937   -0.00010943   -0.00005368
     atom    4 type  3   force =     0.00002753   -0.00000245    0.00001135
     atom    5 type  1   force =    -0.00006717    0.00000476   -0.00000837
     atom    6 type  3   force =    -0.00000635    0.00002520    0.00001285
     atom    7 type  3   force =    -0.00000198   -0.00001829    0.00000285
     atom    8 type  1   force =    -0.00002580   -0.00004934    0.00000336
     atom    9 type  3   force =     0.00002071   -0.00000381    0.00000824
     atom   10 type  1   force =     0.00006095    0.00000443    0.00001994
     atom   11 type  1   force =    -0.00001865    0.00006986   -0.00001995
     atom   12 type  2   force =     0.00009099    0.00001493    0.00006124
     atom   13 type  3   force =    -0.00000960    0.00002087    0.00000377
     atom   14 type  1   force =    -0.00006843    0.00004241   -0.00000304
     atom   15 type  3   force =     0.00002031   -0.00000163    0.00000840
     atom   16 type  1   force =    -0.00000294   -0.00008203   -0.00004507
     atom   17 type  1   force =    -0.00008399   -0.00011921   -0.00009197
     atom   18 type  2   force =    -0.00012568    0.00005678   -0.00002528
     atom   19 type  3   force =    -0.00000916   -0.00001695    0.00000375
     atom   20 type  1   force =    -0.00010027    0.00002486   -0.00002930
     atom   21 type  3   force =     0.00002324    0.00000054    0.00000917
     atom   22 type  1   force =    -0.00001252    0.00007852   -0.00002489
     atom   23 type  1   force =    -0.00005779    0.00005862   -0.00004100
     atom   24 type  2   force =     0.00003614   -0.00002792    0.00000490

     Total force =     0.138202     Total SCF correction =     0.000403

     Writing output data file scf-2121.save
 writing file ./scratch/scf-2121.save/charge-density
 writing file ./scratch/scf-2121.save/charge-density
 writing file ./scratch/scf-2121.save/charge-density
 writing file ./scratch/scf-2121.save/charge-density
 writing file ./scratch/scf-2121.save/charge-density
 writing file ./scratch/scf-2121.save/charge-density
 writing file ./scratch/scf-2121.save/charge-density
 writing file ./scratch/scf-2121.save/charge-density
 writing file ./scratch/scf-2121.save/charge-density
 writing file ./scratch/scf-2121.save/charge-density
 writing file ./scratch/scf-2121.save/charge-density
 writing file ./scratch/scf-2121.save/charge-density
 writing file ./scratch/scf-2121.save/charge-density
 writing file ./scratch/scf-2121.save/charge-density
 writing file ./scratch/scf-2121.save/charge-density
 writing file ./scratch/scf-2121.save/charge-density
 writing file ./scratch/scf-2121.save/charge-density
 writing file ./scratch/scf-2121.save/charge-density
 writing file ./scratch/scf-2121.save/charge-density
 writing file ./scratch/scf-2121.save/charge-density
 writing file ./scratch/scf-2121.save/charge-density
 writing file ./scratch/scf-2121.save/charge-density
 writing file ./scratch/scf-2121.save/charge-density
 writing file ./scratch/scf-2121.save/charge-density
 writing file ./scratch/scf-2121.save/charge-density
 writing file ./scratch/scf-2121.save/charge-density
 writing file ./scratch/scf-2121.save/charge-density
 writing file ./scratch/scf-2121.save/charge-density
 writing file ./scratch/scf-2121.save/charge-density
 writing file ./scratch/scf-2121.save/charge-density
 writing file ./scratch/scf-2121.save/charge-density
 writing file ./scratch/scf-2121.save/charge-density
 
     init_run     :      4.41s CPU      4.61s WALL (       1 calls)
     electrons    :     50.09s CPU     52.86s WALL (       1 calls)
     forces       :      2.36s CPU      2.48s WALL (       1 calls)

     Called by init_run:
     wfcinit      :      1.61s CPU      1.63s WALL (       1 calls)
     wfcinit:atom :      0.01s CPU      0.02s WALL (      16 calls)
     wfcinit:wfcr :      1.49s CPU      1.51s WALL (      16 calls)
     potinit      :      0.88s CPU      0.91s WALL (       1 calls)

     Called by electrons:
     c_bands      :     39.12s CPU     39.42s WALL (      11 calls)
     sum_band     :      6.85s CPU      8.00s WALL (      11 calls)
     v_of_rho     :      0.93s CPU      0.97s WALL (      12 calls)
     v_h          :      0.05s CPU      0.06s WALL (      12 calls)
     v_xc         :      0.95s CPU      0.98s WALL (      13 calls)
     newd         :      1.51s CPU      2.86s WALL (      12 calls)
     PAW_pot      :      1.64s CPU      1.69s WALL (      12 calls)
     mix_rho      :      0.14s CPU      0.14s WALL (      11 calls)

     Called by c_bands:
     init_us_2    :      0.78s CPU      0.86s WALL (     384 calls)
     cegterg      :     36.83s CPU     37.04s WALL (     176 calls)

     Called by sum_band:
     sum_band:bec :      0.02s CPU      0.02s WALL (     176 calls)
     addusdens    :      1.56s CPU      2.69s WALL (      11 calls)

     Called by *egterg:
     h_psi        :     27.38s CPU     27.50s WALL (     864 calls)
     s_psi        :      2.16s CPU      2.08s WALL (     864 calls)
     g_psi        :      0.13s CPU      0.16s WALL (     672 calls)
     cdiaghg      :      3.42s CPU      3.50s WALL (     848 calls)
     cegterg:over :      1.60s CPU      1.65s WALL (     672 calls)
     cegterg:upda :      1.46s CPU      1.29s WALL (     672 calls)
     cegterg:last :      0.47s CPU      0.43s WALL (     192 calls)

     Called by h_psi:
     h_psi:pot    :     27.12s CPU     27.21s WALL (     864 calls)
     h_psi:calbec :      2.29s CPU      2.27s WALL (     864 calls)
     vloc_psi     :     22.79s CPU     22.94s WALL (     864 calls)
     add_vuspsi   :      2.03s CPU      1.99s WALL (     864 calls)

     General routines
     calbec       :      3.04s CPU      3.02s WALL (    1104 calls)
     fft          :      0.77s CPU      0.79s WALL (     199 calls)
     ffts         :      0.03s CPU      0.03s WALL (      23 calls)
     fftw         :     21.10s CPU     21.38s WALL (   55590 calls)
     interpolate  :      0.14s CPU      0.15s WALL (      23 calls)
     davcio       :      0.00s CPU      0.01s WALL (      16 calls)
 
     Parallel routines
     fft_scatter  :      7.39s CPU      7.62s WALL (   55812 calls)

     PAW routines
     PAW_pot      :      1.64s CPU      1.69s WALL (      12 calls)
 
     PWSCF        :  0m57.52s CPU     1m 1.05s WALL

 
   This run was terminated on:  13:35:21  20May2017            

=------------------------------------------------------------------------------=
   JOB DONE.
=------------------------------------------------------------------------------=
