
     Program PWSCF v.6.1 starts on 22May2017 at 11:58: 2 

     This program is part of the open-source Quantum ESPRESSO suite
     for quantum simulation of materials; please cite
         "P. Giannozzi et al., J. Phys.:Condens. Matter 21 395502 (2009);
          URL http://www.quantum-espresso.org", 
     in publications or presentations arising from this work. More details at
     http://www.quantum-espresso.org/quote

     Parallel version (MPI & OpenMP), running on      32 processor cores
     Number of MPI processes:                32
     Threads/MPI process:                     1
     R & G space division:  proc/nbgrp/npool/nimage =      32
     Waiting for input...
     Reading input from standard input
Warning: card &IONS ignored
Warning: card     ION_TEMPERATURE   = 'INITIAL' ignored
Warning: card     TEMPW             = 586.D0 ignored
Warning: card     TOLP              = 100.D0 ignored
Warning: card     DELTA_T           = 1.D0 ignored
Warning: card     NRAISE            = 1 ignored
Warning: card / ignored
Warning: card &CELL ignored
Warning: card     CELL_DYNAMICS     = 'BFGS' ignored
Warning: card / ignored

     Current dimensions of program PWSCF are:
     Max number of different atomic species (ntypx) = 10
     Max number of k-points (npk) =  40000
     Max angular momentum in pseudopotentials (lmaxx) =  3
               file C.pbe-n-kjpaw_psl.1.0.0.UPF: wavefunction(s)  2S 2P renormalized
               file Cl.pbe-n-kjpaw_psl.1.0.0.UPF: wavefunction(s)  3S 3P renormalized
               file H.pbe-kjpaw_psl.1.0.0.UPF: wavefunction(s)  1S renormalized

     Subspace diagonalization in iterative solution of the eigenvalue problem:
     a serial algorithm will be used

 
     Parallelization info
     --------------------
     sticks:   dense  smooth     PW     G-vecs:    dense   smooth      PW
     Min         764     305     83                36108     9133    1292
     Max         765     306     84                36110     9135    1293
     Sum       24467    9791   2657              1155489   292295   41363
 


     bravais-lattice index     =            0
     lattice parameter (alat)  =       1.8897  a.u.
     unit-cell volume          =    2163.5316 (a.u.)^3
     number of atoms/cell      =           24
     number of atomic types    =            3
     number of electrons       =        84.00
     number of Kohn-Sham states=           42
     kinetic-energy cutoff     =     100.0000  Ry
     charge density cutoff     =    1000.0000  Ry
     convergence threshold     =      1.0E-07
     mixing beta               =       0.7000
     number of iterations used =            8  plain     mixing
     Exchange-correlation      =  SLA  PW   PBX  PBC ( 1  4  3  4 0 0)

     celldm(1)=   1.889726  celldm(2)=   0.000000  celldm(3)=   0.000000
     celldm(4)=   0.000000  celldm(5)=   0.000000  celldm(6)=   0.000000

     crystal axes: (cart. coord. in units of alat)
               a(1) = (  14.762000   0.000000   0.000000 )  
               a(2) = (   0.000000   5.832000   0.000000 )  
               a(3) = (  -1.563876   0.000000   3.723951 )  

     reciprocal axes: (cart. coord. in units 2 pi/alat)
               b(1) = (  0.067741  0.000000  0.028448 )  
               b(2) = (  0.000000  0.171468  0.000000 )  
               b(3) = (  0.000000  0.000000  0.268532 )  


     PseudoPot. # 1 for  C read from file:
     /global/cscratch1/sd/almno10/.data/PSEUDOPOTENTIALS/C.pbe-n-kjpaw_psl.1.0.0.UPF
     MD5 check sum: 2ba8448e293caca687844dde9a1b88a8
     Pseudo is Projector augmented-wave + core cor, Zval =  4.0
     Generated using "atomic" code by A. Dal Corso  v.5.3.0 svn rev. 11974
     Shape of augmentation charge: PSQ
     Using radial grid of 1073 points,  4 beta functions with: 
                l(1) =   0
                l(2) =   0
                l(3) =   1
                l(4) =   1
     Q(r) pseudized with 0 coefficients 


     PseudoPot. # 2 for Cl read from file:
     /global/cscratch1/sd/almno10/.data/PSEUDOPOTENTIALS/Cl.pbe-n-kjpaw_psl.1.0.0.UPF
     MD5 check sum: dca63699d6b897c5771335df08a09219
     Pseudo is Projector augmented-wave + core cor, Zval =  7.0
     Generated using "atomic" code by A. Dal Corso  v.5.3.0 svn rev. 11974
     Shape of augmentation charge: PSQ
     Using radial grid of 1157 points,  6 beta functions with: 
                l(1) =   0
                l(2) =   0
                l(3) =   1
                l(4) =   1
                l(5) =   2
                l(6) =   2
     Q(r) pseudized with 0 coefficients 


     PseudoPot. # 3 for  H read from file:
     /global/cscratch1/sd/almno10/.data/PSEUDOPOTENTIALS/H.pbe-kjpaw_psl.1.0.0.UPF
     MD5 check sum: bc0feb48a24907a0b97fa6ee2d589a29
     Pseudo is Projector augmented-wave, Zval =  1.0
     Generated using "atomic" code by A. Dal Corso  v.5.3.0 svn rev. 11974
     Shape of augmentation charge: PSQ
     Using radial grid of  929 points,  2 beta functions with: 
                l(1) =   0
                l(2) =   0
     Q(r) pseudized with 0 coefficients 


     atomic species   valence    mass     pseudopotential
        C              4.00    12.01100      C( 1.00)
        Cl             7.00    35.45270     Cl( 1.00)
        H              1.00     1.00790      H( 1.00)

     No symmetry found


                                    s                        frac. trans.

      isym =  1     identity                                     

 cryst.   s( 1) = (     1          0          0      )
                  (     0          1          0      )
                  (     0          0          1      )

 cart.    s( 1) = (  1.0000000  0.0000000 -0.0000000 )
                  (  0.0000000  1.0000000  0.0000000 )
                  (  0.0000000  0.0000000  1.0000000 )


   Cartesian axes

     site n.     atom                  positions (alat units)
         1           Cl  tau(   1) = (  16.4617387   0.8872099   1.7287365  )
         2           C   tau(   2) = (  15.0379424   2.0160801   1.6609854  )
         3           C   tau(   3) = (  15.0920074   3.1370958   2.4887550  )
         4           H   tau(   4) = (  15.9969301   3.3179725   3.0669064  )
         5           C   tau(   5) = (  14.0436685   4.0548161   2.5296051  )
         6           H   tau(   6) = (  14.1055758   4.9194994   3.1878004  )
         7           H   tau(   7) = (   6.2153124   2.1404497   0.6046141  )
         8           C   tau(   8) = (   6.3777698   1.2665961   1.2315181  )
         9           H   tau(   9) = (   4.3507852   0.5583367   1.0276042  )
        10           C   tau(  10) = (   5.3334394   0.3689114   1.4564882  )
        11           C   tau(  11) = (   5.5005639  -0.7677091   2.2475069  )
        12           Cl  tau(  12) = (   4.1529802  -1.9056820   2.2090331  )
        13           H   tau(  13) = (  13.8946915   0.9243825   0.1625992  )
        14           C   tau(  14) = (  13.9334294   1.7710350   0.8455686  )
        15           H   tau(  15) = (  11.9904238   2.5099959   0.2763757  )
        16           C   tau(  16) = (  12.8664389   2.6670634   0.9020610  )
        17           C   tau(  17) = (  12.9065208   3.7701902   1.7752508  )
        18           Cl  tau(  18) = (  11.5252385   4.7632793   1.8280412  )
        19           H   tau(  19) = (   6.8756551  -1.9045839   3.5174016  )
        20           C   tau(  20) = (   6.7253650  -1.0567920   2.8503832  )
        21           H   tau(  21) = (   8.7330439  -0.3168536   3.0934008  )
        22           C   tau(  22) = (   7.7581409  -0.1451477   2.6436783  )
        23           C   tau(  23) = (   7.6084851   0.9568725   1.8056462  )
        24           Cl  tau(  24) = (   9.1212509   1.8894323   1.6491717  )

   Crystallographic axes

     site n.     atom                  positions (cryst. coord.)
         1           Cl  tau(   1) = (  1.1643221  0.1521279  0.4642210  )
         2           C   tau(   2) = (  1.0659446  0.3456927  0.4460277  )
         3           C   tau(   3) = (  1.0931555  0.5379108  0.6683103  )
         4           H   tau(   4) = (  1.1709036  0.5689253  0.8235624  )
         5           C   tau(   5) = (  1.0233016  0.6952703  0.6792798  )
         6           H   tau(   6) = (  1.0462197  0.8435356  0.8560263  )
         7           H   tau(   7) = (  0.4382347  0.3670181  0.1623582  )
         8           C   tau(   8) = (  0.4670740  0.2171804  0.3307020  )
         9           H   tau(   9) = (  0.3239621  0.0957367  0.2759446  )
        10           C   tau(  10) = (  0.4027295  0.0632564  0.3911136  )
        11           C   tau(  11) = (  0.4365537 -0.1316374  0.6035275  )
        12           Cl  tau(  12) = (  0.3441719 -0.3267630  0.5931960  )
        13           H   tau(  13) = (  0.9458729  0.1585018  0.0436631  )
        14           C   tau(  14) = (  0.9679262  0.3036754  0.2270622  )
        15           H   tau(  15) = (  0.8201116  0.4303834  0.0742157  )
        16           C   tau(  16) = (  0.8972538  0.4573154  0.2422322  )
        17           C   tau(  17) = (  0.9248095  0.6464661  0.4767116  )
        18           Cl  tau(  18) = (  0.8327412  0.8167488  0.4908875  )
        19           H   tau(  19) = (  0.5658305 -0.3265747  0.9445348  )
        20           C   tau(  20) = (  0.5366742 -0.1812058  0.7654190  )
        21           H   tau(  21) = (  0.6795908 -0.0543302  0.8306770  )
        22           C   tau(  22) = (  0.6007557 -0.0248882  0.7099121  )
        23           C   tau(  23) = (  0.5667774  0.1640728  0.4848737  )
        24           Cl  tau(  24) = (  0.6648030  0.3239767  0.4428553  )

     number of k points=    16
                       cart. coord. in units 2pi/alat
        k(    1) = (   0.0169354   0.0214335   0.0406785), wk =   0.1250000
        k(    2) = (   0.0169354   0.0214335   0.1078115), wk =   0.1250000
        k(    3) = (   0.0169354   0.0214335  -0.0935875), wk =   0.1250000
        k(    4) = (   0.0169354   0.0214335  -0.0264545), wk =   0.1250000
        k(    5) = (   0.0169354   0.0643004   0.0406785), wk =   0.1250000
        k(    6) = (   0.0169354   0.0643004   0.1078115), wk =   0.1250000
        k(    7) = (   0.0169354   0.0643004  -0.0935875), wk =   0.1250000
        k(    8) = (   0.0169354   0.0643004  -0.0264545), wk =   0.1250000
        k(    9) = (  -0.0169354   0.0214335  -0.0406785), wk =   0.1250000
        k(   10) = (  -0.0169354   0.0214335  -0.1078115), wk =   0.1250000
        k(   11) = (  -0.0169354   0.0214335   0.0935875), wk =   0.1250000
        k(   12) = (  -0.0169354   0.0214335   0.0264545), wk =   0.1250000
        k(   13) = (  -0.0169354   0.0643004  -0.0406785), wk =   0.1250000
        k(   14) = (  -0.0169354   0.0643004  -0.1078115), wk =   0.1250000
        k(   15) = (  -0.0169354   0.0643004   0.0935875), wk =   0.1250000
        k(   16) = (  -0.0169354   0.0643004   0.0264545), wk =   0.1250000

                       cryst. coord.
        k(    1) = (   0.2500000   0.1250000   0.1250000), wk =   0.1250000
        k(    2) = (   0.2500000   0.1250000   0.3750000), wk =   0.1250000
        k(    3) = (   0.2500000   0.1250000  -0.3750000), wk =   0.1250000
        k(    4) = (   0.2500000   0.1250000  -0.1250000), wk =   0.1250000
        k(    5) = (   0.2500000   0.3750000   0.1250000), wk =   0.1250000
        k(    6) = (   0.2500000   0.3750000   0.3750000), wk =   0.1250000
        k(    7) = (   0.2500000   0.3750000  -0.3750000), wk =   0.1250000
        k(    8) = (   0.2500000   0.3750000  -0.1250000), wk =   0.1250000
        k(    9) = (  -0.2500000   0.1250000  -0.1250000), wk =   0.1250000
        k(   10) = (  -0.2500000   0.1250000  -0.3750000), wk =   0.1250000
        k(   11) = (  -0.2500000   0.1250000   0.3750000), wk =   0.1250000
        k(   12) = (  -0.2500000   0.1250000   0.1250000), wk =   0.1250000
        k(   13) = (  -0.2500000   0.3750000  -0.1250000), wk =   0.1250000
        k(   14) = (  -0.2500000   0.3750000  -0.3750000), wk =   0.1250000
        k(   15) = (  -0.2500000   0.3750000   0.3750000), wk =   0.1250000
        k(   16) = (  -0.2500000   0.3750000   0.1250000), wk =   0.1250000

     Dense  grid:  1155489 G-vectors     FFT dimensions: ( 288, 120,  80)

     Smooth grid:   292295 G-vectors     FFT dimensions: ( 180,  72,  50)

     Estimated max dynamical RAM per process >     147.21MB

     Estimated total allocated dynamical RAM >    4710.62MB

     Initial potential from superposition of free atoms

     starting charge   83.99939, renormalised to   84.00000
     Starting wfc are   72 randomized atomic wfcs
     Checking if some PAW data can be deallocated... 
       node    0, deallocated PAW data for type:  1
       node    0, deallocated PAW data for type:  3
       node    1, deallocated PAW data for type:  1
       node    1, deallocated PAW data for type:  3
       node    2, deallocated PAW data for type:  2
       node    2, deallocated PAW data for type:  3
       node    3, deallocated PAW data for type:  2
       node    3, deallocated PAW data for type:  3
       node    4, deallocated PAW data for type:  2
       node    4, deallocated PAW data for type:  3
       node    5, deallocated PAW data for type:  2
       node    5, deallocated PAW data for type:  3
       node    6, deallocated PAW data for type:  1
       node    6, deallocated PAW data for type:  2
       node    7, deallocated PAW data for type:  1
       node    7, deallocated PAW data for type:  2
       node    8, deallocated PAW data for type:  2
       node    8, deallocated PAW data for type:  3
       node    9, deallocated PAW data for type:  2
       node    9, deallocated PAW data for type:  3
       node   10, deallocated PAW data for type:  1
       node   10, deallocated PAW data for type:  2
       node   11, deallocated PAW data for type:  1
       node   11, deallocated PAW data for type:  2
       node   12, deallocated PAW data for type:  1
       node   12, deallocated PAW data for type:  2
       node   13, deallocated PAW data for type:  1
       node   13, deallocated PAW data for type:  2
       node   14, deallocated PAW data for type:  2
       node   14, deallocated PAW data for type:  3
       node   15, deallocated PAW data for type:  2
       node   15, deallocated PAW data for type:  3
       node   16, deallocated PAW data for type:  1
       node   16, deallocated PAW data for type:  2
       node   17, deallocated PAW data for type:  2
       node   17, deallocated PAW data for type:  3
       node   18, deallocated PAW data for type:  2
       node   18, deallocated PAW data for type:  3
       node   19, deallocated PAW data for type:  1
       node   19, deallocated PAW data for type:  3
       node   20, deallocated PAW data for type:  1
       node   20, deallocated PAW data for type:  2
       node   21, deallocated PAW data for type:  2
       node   21, deallocated PAW data for type:  3
       node   22, deallocated PAW data for type:  1
       node   22, deallocated PAW data for type:  2
       node   23, deallocated PAW data for type:  2
       node   23, deallocated PAW data for type:  3
       node   24, deallocated PAW data for type:  2
       node   24, deallocated PAW data for type:  3
       node   25, deallocated PAW data for type:  1
       node   25, deallocated PAW data for type:  3
       node   26, deallocated PAW data for type:  1
       node   26, deallocated PAW data for type:  2
       node   27, deallocated PAW data for type:  2
       node   27, deallocated PAW data for type:  3
       node   28, deallocated PAW data for type:  1
       node   28, deallocated PAW data for type:  2
       node   29, deallocated PAW data for type:  2
       node   29, deallocated PAW data for type:  3
       node   30, deallocated PAW data for type:  2
       node   30, deallocated PAW data for type:  3
       node   31, deallocated PAW data for type:  1
       node   31, deallocated PAW data for type:  3

     total cpu time spent up to now is        5.2 secs

     per-process dynamical memory:    20.7 Mb

     Self-consistent Calculation

     iteration #  1     ecut=   100.00 Ry     beta= 0.70
     Davidson diagonalization with overlap
     ethr =  1.00E-04,  avg # of iterations =  5.0

     total cpu time spent up to now is       12.0 secs

     total energy              =    -547.13286822 Ry
     Harris-Foulkes estimate   =    -548.98923692 Ry
     estimated scf accuracy    <       2.71689847 Ry

     iteration #  2     ecut=   100.00 Ry     beta= 0.70
     Davidson diagonalization with overlap
     ethr =  3.23E-03,  avg # of iterations =  3.0

     total cpu time spent up to now is       16.8 secs

     total energy              =    -547.52621532 Ry
     Harris-Foulkes estimate   =    -548.61480065 Ry
     estimated scf accuracy    <       1.97122083 Ry

     iteration #  3     ecut=   100.00 Ry     beta= 0.70
     Davidson diagonalization with overlap
     ethr =  2.35E-03,  avg # of iterations =  3.0

     total cpu time spent up to now is       21.3 secs

     total energy              =    -548.01549278 Ry
     Harris-Foulkes estimate   =    -548.05924552 Ry
     estimated scf accuracy    <       0.08748991 Ry

     iteration #  4     ecut=   100.00 Ry     beta= 0.70
     Davidson diagonalization with overlap
     ethr =  1.04E-04,  avg # of iterations =  3.8

     total cpu time spent up to now is       26.0 secs

     total energy              =    -548.04340063 Ry
     Harris-Foulkes estimate   =    -548.05461037 Ry
     estimated scf accuracy    <       0.02237548 Ry

     iteration #  5     ecut=   100.00 Ry     beta= 0.70
     Davidson diagonalization with overlap
     ethr =  2.66E-05,  avg # of iterations =  3.0

     total cpu time spent up to now is       30.4 secs

     total energy              =    -548.04801423 Ry
     Harris-Foulkes estimate   =    -548.04839466 Ry
     estimated scf accuracy    <       0.00083097 Ry

     iteration #  6     ecut=   100.00 Ry     beta= 0.70
     Davidson diagonalization with overlap
     ethr =  9.89E-07,  avg # of iterations =  4.0

     total cpu time spent up to now is       35.3 secs

     total energy              =    -548.04824083 Ry
     Harris-Foulkes estimate   =    -548.04836849 Ry
     estimated scf accuracy    <       0.00024671 Ry

     iteration #  7     ecut=   100.00 Ry     beta= 0.70
     Davidson diagonalization with overlap
     ethr =  2.94E-07,  avg # of iterations =  4.0

     total cpu time spent up to now is       40.0 secs

     total energy              =    -548.04829414 Ry
     Harris-Foulkes estimate   =    -548.04835017 Ry
     estimated scf accuracy    <       0.00014444 Ry

     iteration #  8     ecut=   100.00 Ry     beta= 0.70
     Davidson diagonalization with overlap
     ethr =  1.72E-07,  avg # of iterations =  4.0

     total cpu time spent up to now is       44.3 secs

     total energy              =    -548.04832191 Ry
     Harris-Foulkes estimate   =    -548.04832860 Ry
     estimated scf accuracy    <       0.00001659 Ry

     iteration #  9     ecut=   100.00 Ry     beta= 0.70
     Davidson diagonalization with overlap
     ethr =  1.97E-08,  avg # of iterations =  4.0

     total cpu time spent up to now is       48.8 secs

     total energy              =    -548.04832531 Ry
     Harris-Foulkes estimate   =    -548.04832672 Ry
     estimated scf accuracy    <       0.00000332 Ry

     iteration # 10     ecut=   100.00 Ry     beta= 0.70
     Davidson diagonalization with overlap
     ethr =  3.95E-09,  avg # of iterations =  4.0

     total cpu time spent up to now is       53.4 secs

     total energy              =    -548.04832599 Ry
     Harris-Foulkes estimate   =    -548.04832610 Ry
     estimated scf accuracy    <       0.00000024 Ry

     iteration # 11     ecut=   100.00 Ry     beta= 0.70
     Davidson diagonalization with overlap
     ethr =  2.89E-10,  avg # of iterations =  4.0

     total cpu time spent up to now is       58.2 secs

     End of self-consistent calculation

          k = 0.0169 0.0214 0.0407 ( 36525 PWs)   bands (ev):

   -16.1372 -15.9598 -15.2553 -15.2032 -13.9047 -13.8658 -12.3543 -12.3280
   -11.2514 -11.2428  -8.9331  -8.9284  -8.2310  -8.1480  -6.3273  -6.2063
    -5.2998  -5.2770  -5.0279  -4.7722  -4.2548  -4.2087  -4.0201  -3.8127
    -3.2019  -3.0821  -2.6907  -2.5513  -2.4175  -2.2489  -2.1628  -2.1131
    -1.2637  -1.1826  -1.0154  -0.9741  -0.8918  -0.8116  -0.0802   0.0380
     0.5263   0.6841

     occupation numbers 
     1.0000   1.0000   1.0000   1.0000   1.0000   1.0000   1.0000   1.0000
     1.0000   1.0000   1.0000   1.0000   1.0000   1.0000   1.0000   1.0000
     1.0000   1.0000   1.0000   1.0000   1.0000   1.0000   1.0000   1.0000
     1.0000   1.0000   1.0000   1.0000   1.0000   1.0000   1.0000   1.0000
     1.0000   1.0000   1.0000   1.0000   1.0000   1.0000   1.0000   1.0000
     1.0000   1.0000

          k = 0.0169 0.0214 0.1078 ( 36561 PWs)   bands (ev):

   -16.0443 -15.8545 -15.2004 -15.1589 -13.8953 -13.8550 -12.3682 -12.3073
   -11.2774 -11.2445  -8.9128  -8.8972  -8.1814  -8.1487  -6.3585  -6.2778
    -5.3067  -5.2790  -5.0614  -4.8995  -4.3289  -4.2451  -4.0504  -3.9228
    -3.8041  -3.6982  -2.7457  -2.6766  -2.5997  -2.4553  -2.3657  -2.2500
    -1.3112  -1.1674  -1.0990  -1.0174  -0.9066  -0.7930  -0.2267  -0.1265
     0.6684   0.8084

     occupation numbers 
     1.0000   1.0000   1.0000   1.0000   1.0000   1.0000   1.0000   1.0000
     1.0000   1.0000   1.0000   1.0000   1.0000   1.0000   1.0000   1.0000
     1.0000   1.0000   1.0000   1.0000   1.0000   1.0000   1.0000   1.0000
     1.0000   1.0000   1.0000   1.0000   1.0000   1.0000   1.0000   1.0000
     1.0000   1.0000   1.0000   1.0000   1.0000   1.0000   1.0000   1.0000
     1.0000   1.0000

          k = 0.0169 0.0214-0.0936 ( 36547 PWs)   bands (ev):

   -16.0489 -15.8462 -15.2039 -15.1590 -13.8897 -13.8643 -12.3618 -12.3121
   -11.2695 -11.2465  -8.9360  -8.8713  -8.2232  -8.1040  -6.3832  -6.2808
    -5.3117  -5.2699  -5.0858  -4.8765  -4.3079  -4.1937  -4.0943  -3.9470
    -3.7460  -3.7334  -2.6976  -2.6591  -2.6183  -2.4382  -2.3984  -2.3535
    -1.2508  -1.1674  -1.1335  -1.0296  -0.8772  -0.7888  -0.1787  -0.1462
     0.6796   0.7979

     occupation numbers 
     1.0000   1.0000   1.0000   1.0000   1.0000   1.0000   1.0000   1.0000
     1.0000   1.0000   1.0000   1.0000   1.0000   1.0000   1.0000   1.0000
     1.0000   1.0000   1.0000   1.0000   1.0000   1.0000   1.0000   1.0000
     1.0000   1.0000   1.0000   1.0000   1.0000   1.0000   1.0000   1.0000
     1.0000   1.0000   1.0000   1.0000   1.0000   1.0000   1.0000   1.0000
     1.0000   1.0000

          k = 0.0169 0.0214-0.0265 ( 36551 PWs)   bands (ev):

   -16.1416 -15.9523 -15.2599 -15.2016 -13.8934 -13.8806 -12.3488 -12.3320
   -11.2652 -11.2227  -8.9655  -8.8970  -8.2686  -8.1015  -6.3725  -6.1869
    -5.3171  -5.2566  -5.0856  -4.7186  -4.2469  -4.2156  -3.9678  -3.7969
    -3.1895  -3.1076  -2.7690  -2.5657  -2.3390  -2.2867  -2.2138  -2.1087
    -1.2045  -1.1409  -1.0857  -0.9757  -0.9147  -0.7706  -0.1097   0.0914
     0.5385   0.6760

     occupation numbers 
     1.0000   1.0000   1.0000   1.0000   1.0000   1.0000   1.0000   1.0000
     1.0000   1.0000   1.0000   1.0000   1.0000   1.0000   1.0000   1.0000
     1.0000   1.0000   1.0000   1.0000   1.0000   1.0000   1.0000   1.0000
     1.0000   1.0000   1.0000   1.0000   1.0000   1.0000   1.0000   1.0000
     1.0000   1.0000   1.0000   1.0000   1.0000   1.0000   1.0000   1.0000
     1.0000   1.0000

          k = 0.0169 0.0643 0.0407 ( 36518 PWs)   bands (ev):

   -16.1152 -15.9300 -15.2543 -15.2196 -13.9358 -13.9080 -12.3794 -12.3549
   -11.2502 -11.2400  -8.8650  -8.8569  -8.1509  -8.0974  -6.3502  -6.2803
    -5.2825  -5.2272  -5.0756  -4.8890  -4.3484  -4.2927  -3.9963  -3.8511
    -3.2816  -3.1596  -2.6558  -2.5862  -2.4604  -2.2940  -2.1438  -2.0479
    -1.0659  -0.9947  -0.9194  -0.8779  -0.8392  -0.8086  -0.0813   0.0223
     0.6117   0.7118

     occupation numbers 
     1.0000   1.0000   1.0000   1.0000   1.0000   1.0000   1.0000   1.0000
     1.0000   1.0000   1.0000   1.0000   1.0000   1.0000   1.0000   1.0000
     1.0000   1.0000   1.0000   1.0000   1.0000   1.0000   1.0000   1.0000
     1.0000   1.0000   1.0000   1.0000   1.0000   1.0000   1.0000   1.0000
     1.0000   1.0000   1.0000   1.0000   1.0000   1.0000   1.0000   1.0000
     1.0000   1.0000

          k = 0.0169 0.0643 0.1078 ( 36558 PWs)   bands (ev):

   -16.0331 -15.8399 -15.1944 -15.1624 -13.9010 -13.8795 -12.3737 -12.3187
   -11.2924 -11.2636  -8.9126  -8.9030  -8.1807  -8.1542  -6.3425  -6.2517
    -5.3022  -5.2720  -4.9548  -4.7877  -4.2743  -4.2671  -4.0423  -3.9768
    -3.9116  -3.8573  -2.6869  -2.6491  -2.5892  -2.4854  -2.4089  -2.2025
    -1.2303  -1.1305  -1.0997  -1.0101  -0.9374  -0.8524  -0.1015   0.0095
     0.6831   0.8023

     occupation numbers 
     1.0000   1.0000   1.0000   1.0000   1.0000   1.0000   1.0000   1.0000
     1.0000   1.0000   1.0000   1.0000   1.0000   1.0000   1.0000   1.0000
     1.0000   1.0000   1.0000   1.0000   1.0000   1.0000   1.0000   1.0000
     1.0000   1.0000   1.0000   1.0000   1.0000   1.0000   1.0000   1.0000
     1.0000   1.0000   1.0000   1.0000   1.0000   1.0000   1.0000   1.0000
     1.0000   1.0000

          k = 0.0169 0.0643-0.0936 ( 36547 PWs)   bands (ev):

   -16.0377 -15.8319 -15.1924 -15.1679 -13.8977 -13.8865 -12.3671 -12.3229
   -11.2827 -11.2690  -8.9395  -8.8716  -8.2155  -8.1171  -6.3430  -6.2890
    -5.3178  -5.2592  -4.9268  -4.7883  -4.2594  -4.2199  -4.0821  -4.0333
    -3.8706  -3.8295  -2.7304  -2.6618  -2.6019  -2.5581  -2.2945  -2.2384
    -1.2143  -1.1364  -1.0848  -1.0294  -0.9292  -0.8477  -0.0434  -0.0231
     0.6916   0.7965

     occupation numbers 
     1.0000   1.0000   1.0000   1.0000   1.0000   1.0000   1.0000   1.0000
     1.0000   1.0000   1.0000   1.0000   1.0000   1.0000   1.0000   1.0000
     1.0000   1.0000   1.0000   1.0000   1.0000   1.0000   1.0000   1.0000
     1.0000   1.0000   1.0000   1.0000   1.0000   1.0000   1.0000   1.0000
     1.0000   1.0000   1.0000   1.0000   1.0000   1.0000   1.0000   1.0000
     1.0000   1.0000

          k = 0.0169 0.0643-0.0265 ( 36489 PWs)   bands (ev):

   -16.1193 -15.9230 -15.2534 -15.2233 -13.9284 -13.9191 -12.3720 -12.3594
   -11.2588 -11.2277  -8.8960  -8.8228  -8.1710  -8.0704  -6.3815  -6.2994
    -5.2812  -5.2348  -5.0236  -4.8888  -4.3247  -4.1952  -4.0722  -3.9296
    -3.2435  -3.1870  -2.6476  -2.5520  -2.4274  -2.3645  -2.1542  -2.0590
    -1.0829  -0.9935  -0.9474  -0.8644  -0.8300  -0.7673  -0.1071   0.0790
     0.6162   0.7058

     occupation numbers 
     1.0000   1.0000   1.0000   1.0000   1.0000   1.0000   1.0000   1.0000
     1.0000   1.0000   1.0000   1.0000   1.0000   1.0000   1.0000   1.0000
     1.0000   1.0000   1.0000   1.0000   1.0000   1.0000   1.0000   1.0000
     1.0000   1.0000   1.0000   1.0000   1.0000   1.0000   1.0000   1.0000
     1.0000   1.0000   1.0000   1.0000   1.0000   1.0000   1.0000   1.0000
     1.0000   1.0000

          k =-0.0169 0.0214-0.0407 ( 36525 PWs)   bands (ev):

   -16.1409 -15.9537 -15.2520 -15.2087 -13.8996 -13.8748 -12.3479 -12.3318
   -11.2570 -11.2327  -8.9657  -8.8932  -8.2334  -8.1446  -6.3190  -6.2470
    -5.3171  -5.2541  -4.9898  -4.8057  -4.2344  -4.1964  -3.9881  -3.8571
    -3.1521  -3.1207  -2.6902  -2.5856  -2.3814  -2.3048  -2.1683  -2.1048
    -1.2705  -1.1690  -1.0236  -0.9648  -0.8930  -0.7945  -0.1074   0.0917
     0.5286   0.6831

     occupation numbers 
     1.0000   1.0000   1.0000   1.0000   1.0000   1.0000   1.0000   1.0000
     1.0000   1.0000   1.0000   1.0000   1.0000   1.0000   1.0000   1.0000
     1.0000   1.0000   1.0000   1.0000   1.0000   1.0000   1.0000   1.0000
     1.0000   1.0000   1.0000   1.0000   1.0000   1.0000   1.0000   1.0000
     1.0000   1.0000   1.0000   1.0000   1.0000   1.0000   1.0000   1.0000
     1.0000   1.0000

          k =-0.0169 0.0214-0.1078 ( 36561 PWs)   bands (ev):

   -16.0487 -15.8468 -15.1985 -15.1641 -13.8968 -13.8572 -12.3618 -12.3118
   -11.2729 -11.2437  -8.9363  -8.8698  -8.2140  -8.1157  -6.3586  -6.3062
    -5.3155  -5.2685  -5.0128  -4.9498  -4.3172  -4.2191  -4.0523  -3.9168
    -3.7775  -3.7328  -2.7562  -2.6697  -2.5973  -2.4520  -2.3523  -2.3153
    -1.3140  -1.1647  -1.1183  -1.0002  -0.8907  -0.7802  -0.1799  -0.1485
     0.6731   0.8039

     occupation numbers 
     1.0000   1.0000   1.0000   1.0000   1.0000   1.0000   1.0000   1.0000
     1.0000   1.0000   1.0000   1.0000   1.0000   1.0000   1.0000   1.0000
     1.0000   1.0000   1.0000   1.0000   1.0000   1.0000   1.0000   1.0000
     1.0000   1.0000   1.0000   1.0000   1.0000   1.0000   1.0000   1.0000
     1.0000   1.0000   1.0000   1.0000   1.0000   1.0000   1.0000   1.0000
     1.0000   1.0000

          k =-0.0169 0.0214 0.0936 ( 36547 PWs)   bands (ev):

   -16.0446 -15.8538 -15.2047 -15.1550 -13.8880 -13.8622 -12.3681 -12.3078
   -11.2772 -11.2440  -8.9118  -8.8988  -8.2045  -8.1238  -6.3799  -6.2572
    -5.3076  -5.2723  -5.1004  -4.8587  -4.3258  -4.2163  -4.0934  -3.9510
    -3.7718  -3.7138  -2.6774  -2.6403  -2.5901  -2.4743  -2.4070  -2.3200
    -1.2269  -1.1769  -1.1322  -1.0293  -0.9028  -0.7995  -0.2253  -0.1242
     0.6718   0.8057

     occupation numbers 
     1.0000   1.0000   1.0000   1.0000   1.0000   1.0000   1.0000   1.0000
     1.0000   1.0000   1.0000   1.0000   1.0000   1.0000   1.0000   1.0000
     1.0000   1.0000   1.0000   1.0000   1.0000   1.0000   1.0000   1.0000
     1.0000   1.0000   1.0000   1.0000   1.0000   1.0000   1.0000   1.0000
     1.0000   1.0000   1.0000   1.0000   1.0000   1.0000   1.0000   1.0000
     1.0000   1.0000

          k =-0.0169 0.0214 0.0265 ( 36551 PWs)   bands (ev):

   -16.1378 -15.9587 -15.2592 -15.2000 -13.9009 -13.8692 -12.3556 -12.3275
   -11.2644 -11.2289  -8.9330  -8.9306  -8.2600  -8.1121  -6.3699  -6.1657
    -5.3065  -5.2710  -5.0777  -4.7125  -4.2676  -4.2316  -3.9804  -3.8041
    -3.2000  -3.1002  -2.7262  -2.5552  -2.3701  -2.2656  -2.1689  -2.1262
    -1.2242  -1.1445  -1.0730  -0.9651  -0.9208  -0.7932  -0.0803   0.0365
     0.5391   0.6746

     occupation numbers 
     1.0000   1.0000   1.0000   1.0000   1.0000   1.0000   1.0000   1.0000
     1.0000   1.0000   1.0000   1.0000   1.0000   1.0000   1.0000   1.0000
     1.0000   1.0000   1.0000   1.0000   1.0000   1.0000   1.0000   1.0000
     1.0000   1.0000   1.0000   1.0000   1.0000   1.0000   1.0000   1.0000
     1.0000   1.0000   1.0000   1.0000   1.0000   1.0000   1.0000   1.0000
     1.0000   1.0000

          k =-0.0169 0.0643-0.0407 ( 36518 PWs)   bands (ev):

   -16.1191 -15.9233 -15.2490 -15.2276 -13.9291 -13.9183 -12.3729 -12.3594
   -11.2569 -11.2281  -8.8982  -8.8216  -8.1609  -8.0854  -6.3396  -6.3212
    -5.2827  -5.2330  -5.0057  -4.9466  -4.3079  -4.2962  -3.9666  -3.8990
    -3.2373  -3.1968  -2.6540  -2.6007  -2.4216  -2.3691  -2.1275  -2.0537
    -1.0918  -0.9869  -0.8846  -0.8709  -0.8466  -0.8092  -0.1072   0.0783
     0.6197   0.7050

     occupation numbers 
     1.0000   1.0000   1.0000   1.0000   1.0000   1.0000   1.0000   1.0000
     1.0000   1.0000   1.0000   1.0000   1.0000   1.0000   1.0000   1.0000
     1.0000   1.0000   1.0000   1.0000   1.0000   1.0000   1.0000   1.0000
     1.0000   1.0000   1.0000   1.0000   1.0000   1.0000   1.0000   1.0000
     1.0000   1.0000   1.0000   1.0000   1.0000   1.0000   1.0000   1.0000
     1.0000   1.0000

          k =-0.0169 0.0643-0.1078 ( 36558 PWs)   bands (ev):

   -16.0376 -15.8320 -15.1914 -15.1689 -13.9007 -13.8835 -12.3672 -12.3232
   -11.2850 -11.2660  -8.9399  -8.8720  -8.2148  -8.1193  -6.3353  -6.2879
    -5.3174  -5.2521  -4.8902  -4.8629  -4.2682  -4.2328  -4.0193  -3.9548
    -3.9198  -3.8934  -2.7002  -2.6494  -2.5947  -2.4655  -2.3753  -2.2920
    -1.2488  -1.1207  -1.0648  -1.0152  -0.9445  -0.8350  -0.0432  -0.0231
     0.6878   0.7967

     occupation numbers 
     1.0000   1.0000   1.0000   1.0000   1.0000   1.0000   1.0000   1.0000
     1.0000   1.0000   1.0000   1.0000   1.0000   1.0000   1.0000   1.0000
     1.0000   1.0000   1.0000   1.0000   1.0000   1.0000   1.0000   1.0000
     1.0000   1.0000   1.0000   1.0000   1.0000   1.0000   1.0000   1.0000
     1.0000   1.0000   1.0000   1.0000   1.0000   1.0000   1.0000   1.0000
     1.0000   1.0000

          k =-0.0169 0.0643 0.0936 ( 36547 PWs)   bands (ev):

   -16.0332 -15.8399 -15.1944 -15.1625 -13.8986 -13.8819 -12.3735 -12.3187
   -11.2939 -11.2627  -8.9121  -8.9024  -8.1883  -8.1457  -6.3537  -6.2506
    -5.3068  -5.2721  -4.9476  -4.7548  -4.2686  -4.2520  -4.0987  -4.0327
    -3.8692  -3.8297  -2.6907  -2.6452  -2.6247  -2.5522  -2.3181  -2.1905
    -1.2113  -1.1205  -1.1033  -1.0466  -0.9169  -0.8716  -0.1017   0.0099
     0.6827   0.8064

     occupation numbers 
     1.0000   1.0000   1.0000   1.0000   1.0000   1.0000   1.0000   1.0000
     1.0000   1.0000   1.0000   1.0000   1.0000   1.0000   1.0000   1.0000
     1.0000   1.0000   1.0000   1.0000   1.0000   1.0000   1.0000   1.0000
     1.0000   1.0000   1.0000   1.0000   1.0000   1.0000   1.0000   1.0000
     1.0000   1.0000   1.0000   1.0000   1.0000   1.0000   1.0000   1.0000
     1.0000   1.0000

          k =-0.0169 0.0643 0.0265 ( 36489 PWs)   bands (ev):

   -16.1152 -15.9300 -15.2524 -15.2215 -13.9354 -13.9087 -12.3793 -12.3535
   -11.2546 -11.2380  -8.8643  -8.8549  -8.1465  -8.0983  -6.3744  -6.2843
    -5.2833  -5.2265  -5.0455  -4.8607  -4.3125  -4.2507  -4.0478  -3.9633
    -3.2670  -3.1638  -2.5980  -2.5363  -2.4639  -2.3481  -2.1348  -2.0667
    -1.0685  -1.0000  -0.9348  -0.8864  -0.8400  -0.7747  -0.0815   0.0241
     0.6185   0.7031

     occupation numbers 
     1.0000   1.0000   1.0000   1.0000   1.0000   1.0000   1.0000   1.0000
     1.0000   1.0000   1.0000   1.0000   1.0000   1.0000   1.0000   1.0000
     1.0000   1.0000   1.0000   1.0000   1.0000   1.0000   1.0000   1.0000
     1.0000   1.0000   1.0000   1.0000   1.0000   1.0000   1.0000   1.0000
     1.0000   1.0000   1.0000   1.0000   1.0000   1.0000   1.0000   1.0000
     1.0000   1.0000

     highest occupied level (ev):     0.8084

!    total energy              =    -548.04832605 Ry
     Harris-Foulkes estimate   =    -548.04832608 Ry
     estimated scf accuracy    <       0.00000004 Ry

     total all-electron energy =     -4615.891814 Ry

     The total energy is the sum of the following terms:

     one-electron contribution =    -150.30340156 Ry
     hartree contribution      =     106.51532389 Ry
     xc contribution           =    -104.16708062 Ry
     ewald contribution        =    -144.31262177 Ry
     one-center paw contrib.   =    -255.78054600 Ry
      -> PAW hartree energy AE =      18.95165591 Ry
      -> PAW hartree energy PS =     -18.84736284 Ry
      -> PAW xc energy AE      =     -55.61587399 Ry
      -> PAW xc energy PS      =      10.07071489 Ry
      -> total E_H with PAW    =     106.61961695 Ry
      -> total E_XC with PAW   =    -149.71223972 Ry

     convergence has been achieved in  11 iterations
 writing file ./scratch/scf-1505.save/charge-density
 writing file ./scratch/scf-1505.save/charge-density
 writing file ./scratch/scf-1505.save/charge-density
 writing file ./scratch/scf-1505.save/charge-density
 writing file ./scratch/scf-1505.save/charge-density
 writing file ./scratch/scf-1505.save/charge-density
 writing file ./scratch/scf-1505.save/charge-density
 writing file ./scratch/scf-1505.save/charge-density
 writing file ./scratch/scf-1505.save/charge-density
 writing file ./scratch/scf-1505.save/charge-density
 writing file ./scratch/scf-1505.save/charge-density
 writing file ./scratch/scf-1505.save/charge-density
 writing file ./scratch/scf-1505.save/charge-density
 writing file ./scratch/scf-1505.save/charge-density
 writing file ./scratch/scf-1505.save/charge-density
 writing file ./scratch/scf-1505.save/charge-density
 writing file ./scratch/scf-1505.save/charge-density
 writing file ./scratch/scf-1505.save/charge-density
 writing file ./scratch/scf-1505.save/charge-density
 writing file ./scratch/scf-1505.save/charge-density
 writing file ./scratch/scf-1505.save/charge-density
 writing file ./scratch/scf-1505.save/charge-density
 writing file ./scratch/scf-1505.save/charge-density
 writing file ./scratch/scf-1505.save/charge-density
 writing file ./scratch/scf-1505.save/charge-density
 writing file ./scratch/scf-1505.save/charge-density
 writing file ./scratch/scf-1505.save/charge-density
 writing file ./scratch/scf-1505.save/charge-density
 writing file ./scratch/scf-1505.save/charge-density
 writing file ./scratch/scf-1505.save/charge-density
 writing file ./scratch/scf-1505.save/charge-density
 writing file ./scratch/scf-1505.save/charge-density

     Forces acting on atoms (cartesian axes, Ry/au):

     atom    1 type  2   force =    -0.04366707    0.02744021   -0.00814673
     atom    2 type  1   force =     0.02588511   -0.01519122    0.01227399
     atom    3 type  1   force =     0.01922083    0.00107570   -0.00529666
     atom    4 type  3   force =    -0.00225026    0.00102612    0.00432765
     atom    5 type  1   force =    -0.00568547   -0.01591866    0.00164681
     atom    6 type  3   force =    -0.00157277    0.00077647   -0.00158657
     atom    7 type  3   force =     0.00313646    0.00086076   -0.00004572
     atom    8 type  1   force =     0.01286186   -0.00066566    0.00105956
     atom    9 type  3   force =     0.00307381    0.00218684   -0.00545388
     atom   10 type  1   force =    -0.00730687    0.00578245    0.00393920
     atom   11 type  1   force =    -0.00503948   -0.00931934   -0.02801748
     atom   12 type  2   force =     0.01134384    0.00466504    0.01544963
     atom   13 type  3   force =     0.00066139   -0.00149320    0.00164246
     atom   14 type  1   force =     0.00803008   -0.00104269    0.00267876
     atom   15 type  3   force =    -0.00082633   -0.00161191    0.00042320
     atom   16 type  1   force =     0.00436707    0.00386059    0.01493953
     atom   17 type  1   force =     0.02263018   -0.02783849   -0.02429710
     atom   18 type  2   force =    -0.02646972    0.02983874    0.00509226
     atom   19 type  3   force =    -0.00216225   -0.00348386   -0.00565817
     atom   20 type  1   force =    -0.01198214    0.01023299    0.00587736
     atom   21 type  3   force =    -0.00109517   -0.00386148    0.00396893
     atom   22 type  1   force =     0.00626814   -0.01432227   -0.00462569
     atom   23 type  1   force =     0.02445067    0.00124567    0.02052656
     atom   24 type  2   force =    -0.03387194    0.00575723   -0.01071790
     The non-local contrib.  to forces
     atom    1 type  2   force =    -0.31110806    0.24473836   -0.02782151
     atom    2 type  1   force =     0.40347364   -0.33465500    0.01894138
     atom    3 type  1   force =    -0.01551340   -0.03287945   -0.05493830
     atom    4 type  3   force =    -0.06536491   -0.01317214   -0.04155902
     atom    5 type  1   force =    -0.04109300   -0.06353991   -0.03708311
     atom    6 type  3   force =    -0.00527502   -0.06232689   -0.04790127
     atom    7 type  3   force =     0.01242489   -0.06344534    0.04571256
     atom    8 type  1   force =     0.07541701   -0.05753722    0.04542340
     atom    9 type  3   force =     0.07102764   -0.01379208    0.03087039
     atom   10 type  1   force =     0.04242965   -0.01051754    0.05277202
     atom   11 type  1   force =    -0.37870470   -0.33859894   -0.01591336
     atom   12 type  2   force =     0.30240949    0.25284916    0.03227347
     atom   13 type  3   force =     0.00324612    0.06091576    0.04963940
     atom   14 type  1   force =     0.05208622    0.03117665    0.05371987
     atom   15 type  3   force =     0.06336901    0.01147710    0.04573660
     atom   16 type  1   force =     0.04785484    0.02766186    0.06854256
     atom   17 type  1   force =    -0.37346468    0.27708894   -0.01783141
     atom   18 type  2   force =     0.32473580   -0.22170232   -0.00868187
     atom   19 type  3   force =    -0.01134982    0.06085902   -0.04868679
     atom   20 type  1   force =    -0.06884992    0.06366864   -0.02567519
     atom   21 type  3   force =    -0.07081216    0.01240416   -0.03277506
     atom   22 type  1   force =    -0.03843844    0.00389077   -0.04976660
     atom   23 type  1   force =     0.42390770    0.30310866   -0.03520958
     atom   24 type  2   force =    -0.34738731   -0.18323427    0.02185157
     The ionic contribution  to forces
     atom    1 type  2   force =     5.23096285   -3.69565652    0.85708668
     atom    2 type  1   force =     2.82600267   -2.12334812    0.33731881
     atom    3 type  1   force =     4.49053310    1.38733923    3.03849084
     atom    4 type  3   force =     2.12699812    0.56657263    1.39280434
     atom    5 type  1   force =     1.64382060    4.15157336    2.64632832
     atom    6 type  3   force =     0.44647716    1.86502436    1.44831644
     atom    7 type  3   force =    -0.61938092    1.84160564   -1.36293095
     atom    8 type  1   force =    -1.75564539    4.17785518   -2.61639473
     atom    9 type  3   force =    -2.24785067    0.57732979   -1.12499239
     atom   10 type  1   force =    -4.74890749    1.54962831   -2.48502371
     atom   11 type  1   force =    -2.64298979   -1.82673098    0.29900498
     atom   12 type  2   force =    -6.19396171   -4.21182285   -0.94286934
     atom   13 type  3   force =    -0.23826563   -1.84312068   -1.41261762
     atom   14 type  1   force =    -0.72315499   -4.08704591   -2.51890481
     atom   15 type  3   force =    -1.95309728   -0.51526060   -1.34258814
     atom   16 type  1   force =    -3.82831242   -1.50328587   -2.68713497
     atom   17 type  1   force =    -1.72297689    1.57258310   -0.08552532
     atom   18 type  2   force =    -5.74512328    4.39314038   -0.30669894
     atom   19 type  3   force =     0.49461919   -1.81594879    1.37663172
     atom   20 type  1   force =     1.29347165   -4.26263044    2.35985311
     atom   21 type  3   force =     2.20435463   -0.56795977    1.05792356
     atom   22 type  1   force =     4.16563347   -1.54124386    2.37005349
     atom   23 type  1   force =     2.00422017    2.15188361   -0.42482757
     atom   24 type  2   force =     5.49257286    3.75951880    0.12669619
     The local contribution  to forces
     atom    1 type  2   force =    -4.97784833    3.48960589   -0.83880239
     atom    2 type  1   force =    -3.19266848    2.43359675   -0.34383399
     atom    3 type  1   force =    -4.45452440   -1.35353654   -2.98829723
     atom    4 type  3   force =    -2.06385445   -0.55237491   -1.34690470
     atom    5 type  1   force =    -1.60867284   -4.10284844   -2.60699407
     atom    6 type  3   force =    -0.44276694   -1.80190234   -1.40199050
     atom    7 type  3   force =     0.61008614   -1.77730524    1.31717424
     atom    8 type  1   force =     1.69380676   -4.11994485    2.57150954
     atom    9 type  3   force =     2.17991466   -0.56135426    1.08867625
     atom   10 type  1   force =     4.69825870   -1.53289289    2.43606216
     atom   11 type  1   force =     3.00668983    2.14738969   -0.31039933
     atom   12 type  2   force =     5.91571793    3.97432629    0.92789575
     atom   13 type  3   force =     0.23567022    1.78071939    1.36462078
     atom   14 type  1   force =     0.67967806    4.05348369    2.46734276
     atom   15 type  3   force =     1.88891776    0.50216970    1.29728511
     atom   16 type  1   force =     3.78402672    1.47962675    2.63345832
     atom   17 type  1   force =     2.10978562   -1.87093034    0.07890139
     atom   18 type  2   force =     5.40558011   -4.14928980    0.32023444
     atom   19 type  3   force =    -0.48544753    1.75161396   -1.33361594
     atom   20 type  1   force =    -1.23742594    4.20806813   -2.32758288
     atom   21 type  3   force =    -2.13463788    0.55168908   -1.02117868
     atom   22 type  1   force =    -4.12008724    1.52259688   -2.32448349
     atom   23 type  1   force =    -2.39283851   -2.44548826    0.47871821
     atom   24 type  2   force =    -5.19461866   -3.57806968   -0.15868492
     The core correction contribution to forces
     atom    1 type  2   force =     0.01444890   -0.01124422    0.00145497
     atom    2 type  1   force =    -0.01089352    0.00914688   -0.00016656
     atom    3 type  1   force =    -0.00117586    0.00012036   -0.00052540
     atom    4 type  3   force =     0.00000000    0.00000000    0.00000000
     atom    5 type  1   force =     0.00029574   -0.00104179   -0.00055864
     atom    6 type  3   force =     0.00000000    0.00000000    0.00000000
     atom    7 type  3   force =     0.00000000    0.00000000    0.00000000
     atom    8 type  1   force =    -0.00079045   -0.00104914    0.00049790
     atom    9 type  3   force =     0.00000000    0.00000000    0.00000000
     atom   10 type  1   force =     0.00090312   -0.00045051    0.00013185
     atom   11 type  1   force =     0.00995099    0.00862800   -0.00072300
     atom   12 type  2   force =    -0.01272474   -0.01063246   -0.00184347
     atom   13 type  3   force =     0.00000000    0.00000000    0.00000000
     atom   14 type  1   force =    -0.00066926    0.00133714    0.00049199
     atom   15 type  3   force =     0.00000000    0.00000000    0.00000000
     atom   16 type  1   force =     0.00073625   -0.00023247   -0.00000648
     atom   17 type  1   force =     0.00921333   -0.00664880    0.00007163
     atom   18 type  2   force =    -0.01184424    0.00776486    0.00018130
     atom   19 type  3   force =     0.00000000    0.00000000    0.00000000
     atom   20 type  1   force =     0.00073612    0.00110314   -0.00074556
     atom   21 type  3   force =     0.00000000    0.00000000    0.00000000
     atom   22 type  1   force =    -0.00089634    0.00039120   -0.00043737
     atom   23 type  1   force =    -0.01091302   -0.00824853    0.00180866
     atom   24 type  2   force =     0.01550812    0.00753820   -0.00057097
     The Hubbard contrib.    to forces
     atom    1 type  2   force =     0.00000000    0.00000000    0.00000000
     atom    2 type  1   force =     0.00000000    0.00000000    0.00000000
     atom    3 type  1   force =     0.00000000    0.00000000    0.00000000
     atom    4 type  3   force =     0.00000000    0.00000000    0.00000000
     atom    5 type  1   force =     0.00000000    0.00000000    0.00000000
     atom    6 type  3   force =     0.00000000    0.00000000    0.00000000
     atom    7 type  3   force =     0.00000000    0.00000000    0.00000000
     atom    8 type  1   force =     0.00000000    0.00000000    0.00000000
     atom    9 type  3   force =     0.00000000    0.00000000    0.00000000
     atom   10 type  1   force =     0.00000000    0.00000000    0.00000000
     atom   11 type  1   force =     0.00000000    0.00000000    0.00000000
     atom   12 type  2   force =     0.00000000    0.00000000    0.00000000
     atom   13 type  3   force =     0.00000000    0.00000000    0.00000000
     atom   14 type  1   force =     0.00000000    0.00000000    0.00000000
     atom   15 type  3   force =     0.00000000    0.00000000    0.00000000
     atom   16 type  1   force =     0.00000000    0.00000000    0.00000000
     atom   17 type  1   force =     0.00000000    0.00000000    0.00000000
     atom   18 type  2   force =     0.00000000    0.00000000    0.00000000
     atom   19 type  3   force =     0.00000000    0.00000000    0.00000000
     atom   20 type  1   force =     0.00000000    0.00000000    0.00000000
     atom   21 type  3   force =     0.00000000    0.00000000    0.00000000
     atom   22 type  1   force =     0.00000000    0.00000000    0.00000000
     atom   23 type  1   force =     0.00000000    0.00000000    0.00000000
     atom   24 type  2   force =     0.00000000    0.00000000    0.00000000
     The SCF correction term to forces
     atom    1 type  2   force =    -0.00012310   -0.00000312   -0.00006506
     atom    2 type  1   force =    -0.00002986    0.00006847    0.00001376
     atom    3 type  1   force =    -0.00009927    0.00003230   -0.00002717
     atom    4 type  3   force =    -0.00002969    0.00000074   -0.00001355
     atom    5 type  1   force =    -0.00003664   -0.00006167   -0.00004627
     atom    6 type  3   force =    -0.00000863   -0.00001846   -0.00001183
     atom    7 type  3   force =     0.00000568    0.00000591   -0.00000215
     atom    8 type  1   force =     0.00007326    0.00001056    0.00002287
     atom    9 type  3   force =    -0.00001849    0.00000359   -0.00000871
     atom   10 type  1   force =     0.00000848    0.00001527   -0.00000369
     atom   11 type  1   force =     0.00001353   -0.00000691    0.00001265
     atom   12 type  2   force =    -0.00009780   -0.00005491   -0.00000735
     atom   13 type  3   force =     0.00001001   -0.00000747   -0.00000068
     atom   14 type  1   force =     0.00008940    0.00000594    0.00002837
     atom   15 type  3   force =    -0.00001649    0.00000209   -0.00001095
     atom   16 type  1   force =     0.00006103    0.00009052    0.00007953
     atom   17 type  1   force =     0.00007214    0.00006881    0.00008603
     atom   18 type  2   force =     0.00018123   -0.00007419    0.00005675
     atom   19 type  3   force =     0.00001525   -0.00000786    0.00001227
     atom   20 type  1   force =     0.00008529    0.00002372    0.00002731
     atom   21 type  3   force =    -0.00000042    0.00000525   -0.00000146
     atom   22 type  1   force =     0.00005603    0.00004293    0.00000770
     atom   23 type  1   force =     0.00007366   -0.00000960    0.00003626
     atom   24 type  2   force =     0.00005238    0.00000438   -0.00001033

     Total force =     0.113507     Total SCF correction =     0.000419

     Writing output data file scf-1505.save
 writing file ./scratch/scf-1505.save/charge-density
 writing file ./scratch/scf-1505.save/charge-density
 writing file ./scratch/scf-1505.save/charge-density
 writing file ./scratch/scf-1505.save/charge-density
 writing file ./scratch/scf-1505.save/charge-density
 writing file ./scratch/scf-1505.save/charge-density
 writing file ./scratch/scf-1505.save/charge-density
 writing file ./scratch/scf-1505.save/charge-density
 writing file ./scratch/scf-1505.save/charge-density
 writing file ./scratch/scf-1505.save/charge-density
 writing file ./scratch/scf-1505.save/charge-density
 writing file ./scratch/scf-1505.save/charge-density
 writing file ./scratch/scf-1505.save/charge-density
 writing file ./scratch/scf-1505.save/charge-density
 writing file ./scratch/scf-1505.save/charge-density
 writing file ./scratch/scf-1505.save/charge-density
 writing file ./scratch/scf-1505.save/charge-density
 writing file ./scratch/scf-1505.save/charge-density
 writing file ./scratch/scf-1505.save/charge-density
 writing file ./scratch/scf-1505.save/charge-density
 writing file ./scratch/scf-1505.save/charge-density
 writing file ./scratch/scf-1505.save/charge-density
 writing file ./scratch/scf-1505.save/charge-density
 writing file ./scratch/scf-1505.save/charge-density
 writing file ./scratch/scf-1505.save/charge-density
 writing file ./scratch/scf-1505.save/charge-density
 writing file ./scratch/scf-1505.save/charge-density
 writing file ./scratch/scf-1505.save/charge-density
 writing file ./scratch/scf-1505.save/charge-density
 writing file ./scratch/scf-1505.save/charge-density
 writing file ./scratch/scf-1505.save/charge-density
 writing file ./scratch/scf-1505.save/charge-density
 
     init_run     :      4.42s CPU      4.61s WALL (       1 calls)
     electrons    :     50.24s CPU     53.08s WALL (       1 calls)
     forces       :      2.34s CPU      2.48s WALL (       1 calls)

     Called by init_run:
     wfcinit      :      1.62s CPU      1.64s WALL (       1 calls)
     wfcinit:atom :      0.03s CPU      0.02s WALL (      16 calls)
     wfcinit:wfcr :      1.50s CPU      1.52s WALL (      16 calls)
     potinit      :      0.90s CPU      0.91s WALL (       1 calls)

     Called by electrons:
     c_bands      :     39.20s CPU     39.50s WALL (      11 calls)
     sum_band     :      6.96s CPU      8.11s WALL (      11 calls)
     v_of_rho     :      0.93s CPU      0.97s WALL (      12 calls)
     v_h          :      0.06s CPU      0.06s WALL (      12 calls)
     v_xc         :      0.94s CPU      0.98s WALL (      13 calls)
     newd         :      1.52s CPU      2.86s WALL (      12 calls)
     PAW_pot      :      1.65s CPU      1.70s WALL (      12 calls)
     mix_rho      :      0.14s CPU      0.14s WALL (      11 calls)

     Called by c_bands:
     init_us_2    :      0.83s CPU      0.87s WALL (     384 calls)
     cegterg      :     36.91s CPU     37.12s WALL (     176 calls)

     Called by sum_band:
     sum_band:bec :      0.00s CPU      0.02s WALL (     176 calls)
     addusdens    :      1.52s CPU      2.65s WALL (      11 calls)

     Called by *egterg:
     h_psi        :     27.64s CPU     27.78s WALL (     861 calls)
     s_psi        :      1.93s CPU      2.03s WALL (     861 calls)
     g_psi        :      0.15s CPU      0.16s WALL (     669 calls)
     cdiaghg      :      3.44s CPU      3.40s WALL (     845 calls)
     cegterg:over :      1.58s CPU      1.64s WALL (     669 calls)
     cegterg:upda :      1.32s CPU      1.27s WALL (     669 calls)
     cegterg:last :      0.39s CPU      0.43s WALL (     192 calls)

     Called by h_psi:
     h_psi:pot    :     27.32s CPU     27.51s WALL (     861 calls)
     h_psi:calbec :      2.20s CPU      2.27s WALL (     861 calls)
     vloc_psi     :     23.09s CPU     23.27s WALL (     861 calls)
     add_vuspsi   :      2.02s CPU      1.97s WALL (     861 calls)

     General routines
     calbec       :      2.93s CPU      3.02s WALL (    1101 calls)
     fft          :      0.74s CPU      0.79s WALL (     199 calls)
     ffts         :      0.03s CPU      0.03s WALL (      23 calls)
     fftw         :     22.24s CPU     22.29s WALL (   55560 calls)
     interpolate  :      0.14s CPU      0.15s WALL (      23 calls)
     davcio       :      0.00s CPU      0.01s WALL (      16 calls)
 
     Parallel routines
     fft_scatter  :      8.55s CPU      8.46s WALL (   55782 calls)

     PAW routines
     PAW_pot      :      1.65s CPU      1.70s WALL (      12 calls)
 
     PWSCF        :  0m57.70s CPU     1m 1.26s WALL

 
   This run was terminated on:  11:59: 3  22May2017            

=------------------------------------------------------------------------------=
   JOB DONE.
=------------------------------------------------------------------------------=
