
     Program PWSCF v.6.1 starts on 22May2017 at 12:51:50 

     This program is part of the open-source Quantum ESPRESSO suite
     for quantum simulation of materials; please cite
         "P. Giannozzi et al., J. Phys.:Condens. Matter 21 395502 (2009);
          URL http://www.quantum-espresso.org", 
     in publications or presentations arising from this work. More details at
     http://www.quantum-espresso.org/quote

     Parallel version (MPI & OpenMP), running on      32 processor cores
     Number of MPI processes:                32
     Threads/MPI process:                     1
     R & G space division:  proc/nbgrp/npool/nimage =      32
     Waiting for input...
     Reading input from standard input
Warning: card &IONS ignored
Warning: card     ION_TEMPERATURE   = 'INITIAL' ignored
Warning: card     TEMPW             = 586.D0 ignored
Warning: card     TOLP              = 100.D0 ignored
Warning: card     DELTA_T           = 1.D0 ignored
Warning: card     NRAISE            = 1 ignored
Warning: card / ignored
Warning: card &CELL ignored
Warning: card     CELL_DYNAMICS     = 'BFGS' ignored
Warning: card / ignored

     Current dimensions of program PWSCF are:
     Max number of different atomic species (ntypx) = 10
     Max number of k-points (npk) =  40000
     Max angular momentum in pseudopotentials (lmaxx) =  3
               file C.pbe-n-kjpaw_psl.1.0.0.UPF: wavefunction(s)  2S 2P renormalized
               file Cl.pbe-n-kjpaw_psl.1.0.0.UPF: wavefunction(s)  3S 3P renormalized
               file H.pbe-kjpaw_psl.1.0.0.UPF: wavefunction(s)  1S renormalized

     Subspace diagonalization in iterative solution of the eigenvalue problem:
     a serial algorithm will be used

 
     Parallelization info
     --------------------
     sticks:   dense  smooth     PW     G-vecs:    dense   smooth      PW
     Min         764     305     83                36108     9133    1292
     Max         765     306     84                36110     9135    1293
     Sum       24467    9791   2657              1155489   292295   41363
 


     bravais-lattice index     =            0
     lattice parameter (alat)  =       1.8897  a.u.
     unit-cell volume          =    2163.5316 (a.u.)^3
     number of atoms/cell      =           24
     number of atomic types    =            3
     number of electrons       =        84.00
     number of Kohn-Sham states=           42
     kinetic-energy cutoff     =     100.0000  Ry
     charge density cutoff     =    1000.0000  Ry
     convergence threshold     =      1.0E-07
     mixing beta               =       0.7000
     number of iterations used =            8  plain     mixing
     Exchange-correlation      =  SLA  PW   PBX  PBC ( 1  4  3  4 0 0)

     celldm(1)=   1.889726  celldm(2)=   0.000000  celldm(3)=   0.000000
     celldm(4)=   0.000000  celldm(5)=   0.000000  celldm(6)=   0.000000

     crystal axes: (cart. coord. in units of alat)
               a(1) = (  14.762000   0.000000   0.000000 )  
               a(2) = (   0.000000   5.832000   0.000000 )  
               a(3) = (  -1.563876   0.000000   3.723951 )  

     reciprocal axes: (cart. coord. in units 2 pi/alat)
               b(1) = (  0.067741  0.000000  0.028448 )  
               b(2) = (  0.000000  0.171468  0.000000 )  
               b(3) = (  0.000000  0.000000  0.268532 )  


     PseudoPot. # 1 for  C read from file:
     /global/cscratch1/sd/almno10/.data/PSEUDOPOTENTIALS/C.pbe-n-kjpaw_psl.1.0.0.UPF
     MD5 check sum: 2ba8448e293caca687844dde9a1b88a8
     Pseudo is Projector augmented-wave + core cor, Zval =  4.0
     Generated using "atomic" code by A. Dal Corso  v.5.3.0 svn rev. 11974
     Shape of augmentation charge: PSQ
     Using radial grid of 1073 points,  4 beta functions with: 
                l(1) =   0
                l(2) =   0
                l(3) =   1
                l(4) =   1
     Q(r) pseudized with 0 coefficients 


     PseudoPot. # 2 for Cl read from file:
     /global/cscratch1/sd/almno10/.data/PSEUDOPOTENTIALS/Cl.pbe-n-kjpaw_psl.1.0.0.UPF
     MD5 check sum: dca63699d6b897c5771335df08a09219
     Pseudo is Projector augmented-wave + core cor, Zval =  7.0
     Generated using "atomic" code by A. Dal Corso  v.5.3.0 svn rev. 11974
     Shape of augmentation charge: PSQ
     Using radial grid of 1157 points,  6 beta functions with: 
                l(1) =   0
                l(2) =   0
                l(3) =   1
                l(4) =   1
                l(5) =   2
                l(6) =   2
     Q(r) pseudized with 0 coefficients 


     PseudoPot. # 3 for  H read from file:
     /global/cscratch1/sd/almno10/.data/PSEUDOPOTENTIALS/H.pbe-kjpaw_psl.1.0.0.UPF
     MD5 check sum: bc0feb48a24907a0b97fa6ee2d589a29
     Pseudo is Projector augmented-wave, Zval =  1.0
     Generated using "atomic" code by A. Dal Corso  v.5.3.0 svn rev. 11974
     Shape of augmentation charge: PSQ
     Using radial grid of  929 points,  2 beta functions with: 
                l(1) =   0
                l(2) =   0
     Q(r) pseudized with 0 coefficients 


     atomic species   valence    mass     pseudopotential
        C              4.00    12.01100      C( 1.00)
        Cl             7.00    35.45270     Cl( 1.00)
        H              1.00     1.00790      H( 1.00)

     No symmetry found


                                    s                        frac. trans.

      isym =  1     identity                                     

 cryst.   s( 1) = (     1          0          0      )
                  (     0          1          0      )
                  (     0          0          1      )

 cart.    s( 1) = (  1.0000000  0.0000000 -0.0000000 )
                  (  0.0000000  1.0000000  0.0000000 )
                  (  0.0000000  0.0000000  1.0000000 )


   Cartesian axes

     site n.     atom                  positions (alat units)
         1           Cl  tau(   1) = (  16.3089684   0.9320778   1.9383639  )
         2           C   tau(   2) = (  15.0013541   2.0730012   1.9870729  )
         3           C   tau(   3) = (  15.0389047   3.2611387   2.7166709  )
         4           H   tau(   4) = (  15.8959966   3.4884617   3.3480623  )
         5           C   tau(   5) = (  13.9578798   4.1393771   2.6663703  )
         6           H   tau(   6) = (  13.9836655   5.0641055   3.2398423  )
         7           H   tau(   7) = (   6.3700541   1.8652587   0.3102753  )
         8           C   tau(   8) = (   6.4749775   1.0504611   1.0225741  )
         9           H   tau(   9) = (   4.5910145   0.1441490   0.4904091  )
        10           C   tau(  10) = (   5.4843990   0.0715462   1.1094782  )
        11           C   tau(  11) = (   5.5957895  -0.9887239   2.0084032  )
        12           Cl  tau(  12) = (   4.3375880  -2.1266135   1.8593998  )
        13           H   tau(  13) = (  13.8882704   0.8182694   0.6256971  )
        14           C   tau(  14) = (  13.8836567   1.7236534   1.2300005  )
        15           H   tau(  15) = (  11.9801371   2.4073744   0.4845856  )
        16           C   tau(  16) = (  12.8585481   2.6572831   1.0749386  )
        17           C   tau(  17) = (  12.8698569   3.8226252   1.8552087  )
        18           Cl  tau(  18) = (  11.5991040   5.0514683   1.6394169  )
        19           H   tau(  19) = (   6.7917839  -1.9069028   3.5873349  )
        20           C   tau(  20) = (   6.7067334  -1.1167979   2.8432879  )
        21           H   tau(  21) = (   8.5637486  -0.1810651   3.4046649  )
        22           C   tau(  22) = (   7.6828578  -0.1253836   2.7693467  )
        23           C   tau(  23) = (   7.5977624   0.9022997   1.8331468  )
        24           Cl  tau(  24) = (   9.0288466   1.9826998   1.7319915  )

   Crystallographic axes

     site n.     atom                  positions (cryst. coord.)
         1           Cl  tau(   1) = (  1.1599367  0.1598213  0.5205127  )
         2           C   tau(   2) = (  1.0727426  0.3554529  0.5335926  )
         3           C   tau(   3) = (  1.0960420  0.5591802  0.7295130  )
         4           H   tau(   4) = (  1.1720646  0.5981587  0.8990618  )
         5           C   tau(   5) = (  1.0213808  0.7097697  0.7160057  )
         6           H   tau(   6) = (  1.0394418  0.8683308  0.8700012  )
         7           H   tau(   7) = (  0.4403437  0.3198317  0.0833188  )
         8           C   tau(   8) = (  0.4677150  0.1801202  0.2745938  )
         9           H   tau(   9) = (  0.3249534  0.0247169  0.1316905  )
        10           C   tau(  10) = (  0.4030839  0.0122679  0.2979304  )
        11           C   tau(  11) = (  0.4362024 -0.1695343  0.5393205  )
        12           Cl  tau(  12) = (  0.3467311 -0.3646457  0.4993083  )
        13           H   tau(  13) = (  0.9586121  0.1403068  0.1680197  )
        14           C   tau(  14) = (  0.9754909  0.2955510  0.3302945  )
        15           H   tau(  15) = (  0.8253380  0.4127871  0.1301267  )
        16           C   tau(  16) = (  0.9016373  0.4556384  0.2886554  )
        17           C   tau(  17) = (  0.9246005  0.6554570  0.4981829  )
        18           Cl  tau(  18) = (  0.8323790  0.8661640  0.4402358  )
        19           H   tau(  19) = (  0.5621384 -0.3269724  0.9633141  )
        20           C   tau(  20) = (  0.5352103 -0.1914948  0.7635137  )
        21           H   tau(  21) = (  0.6769774 -0.0310468  0.9142614  )
        22           C   tau(  22) = (  0.5992309 -0.0214992  0.7436581  )
        23           C   tau(  23) = (  0.5668333  0.1547153  0.4922585  )
        24           Cl  tau(  24) = (  0.6608994  0.3399691  0.4650951  )

     number of k points=    16
                       cart. coord. in units 2pi/alat
        k(    1) = (   0.0169354   0.0214335   0.0406785), wk =   0.1250000
        k(    2) = (   0.0169354   0.0214335   0.1078115), wk =   0.1250000
        k(    3) = (   0.0169354   0.0214335  -0.0935875), wk =   0.1250000
        k(    4) = (   0.0169354   0.0214335  -0.0264545), wk =   0.1250000
        k(    5) = (   0.0169354   0.0643004   0.0406785), wk =   0.1250000
        k(    6) = (   0.0169354   0.0643004   0.1078115), wk =   0.1250000
        k(    7) = (   0.0169354   0.0643004  -0.0935875), wk =   0.1250000
        k(    8) = (   0.0169354   0.0643004  -0.0264545), wk =   0.1250000
        k(    9) = (  -0.0169354   0.0214335  -0.0406785), wk =   0.1250000
        k(   10) = (  -0.0169354   0.0214335  -0.1078115), wk =   0.1250000
        k(   11) = (  -0.0169354   0.0214335   0.0935875), wk =   0.1250000
        k(   12) = (  -0.0169354   0.0214335   0.0264545), wk =   0.1250000
        k(   13) = (  -0.0169354   0.0643004  -0.0406785), wk =   0.1250000
        k(   14) = (  -0.0169354   0.0643004  -0.1078115), wk =   0.1250000
        k(   15) = (  -0.0169354   0.0643004   0.0935875), wk =   0.1250000
        k(   16) = (  -0.0169354   0.0643004   0.0264545), wk =   0.1250000

                       cryst. coord.
        k(    1) = (   0.2500000   0.1250000   0.1250000), wk =   0.1250000
        k(    2) = (   0.2500000   0.1250000   0.3750000), wk =   0.1250000
        k(    3) = (   0.2500000   0.1250000  -0.3750000), wk =   0.1250000
        k(    4) = (   0.2500000   0.1250000  -0.1250000), wk =   0.1250000
        k(    5) = (   0.2500000   0.3750000   0.1250000), wk =   0.1250000
        k(    6) = (   0.2500000   0.3750000   0.3750000), wk =   0.1250000
        k(    7) = (   0.2500000   0.3750000  -0.3750000), wk =   0.1250000
        k(    8) = (   0.2500000   0.3750000  -0.1250000), wk =   0.1250000
        k(    9) = (  -0.2500000   0.1250000  -0.1250000), wk =   0.1250000
        k(   10) = (  -0.2500000   0.1250000  -0.3750000), wk =   0.1250000
        k(   11) = (  -0.2500000   0.1250000   0.3750000), wk =   0.1250000
        k(   12) = (  -0.2500000   0.1250000   0.1250000), wk =   0.1250000
        k(   13) = (  -0.2500000   0.3750000  -0.1250000), wk =   0.1250000
        k(   14) = (  -0.2500000   0.3750000  -0.3750000), wk =   0.1250000
        k(   15) = (  -0.2500000   0.3750000   0.3750000), wk =   0.1250000
        k(   16) = (  -0.2500000   0.3750000   0.1250000), wk =   0.1250000

     Dense  grid:  1155489 G-vectors     FFT dimensions: ( 288, 120,  80)

     Smooth grid:   292295 G-vectors     FFT dimensions: ( 180,  72,  50)

     Estimated max dynamical RAM per process >     147.21MB

     Estimated total allocated dynamical RAM >    4710.62MB

     Initial potential from superposition of free atoms

     starting charge   83.99939, renormalised to   84.00000
     Starting wfc are   72 randomized atomic wfcs
     Checking if some PAW data can be deallocated... 
       node    0, deallocated PAW data for type:  1
       node    0, deallocated PAW data for type:  3
       node    1, deallocated PAW data for type:  1
       node    1, deallocated PAW data for type:  3
       node    2, deallocated PAW data for type:  2
       node    2, deallocated PAW data for type:  3
       node    3, deallocated PAW data for type:  2
       node    3, deallocated PAW data for type:  3
       node    4, deallocated PAW data for type:  2
       node    4, deallocated PAW data for type:  3
       node    5, deallocated PAW data for type:  2
       node    5, deallocated PAW data for type:  3
       node    6, deallocated PAW data for type:  1
       node    6, deallocated PAW data for type:  2
       node    7, deallocated PAW data for type:  1
       node    7, deallocated PAW data for type:  2
       node    8, deallocated PAW data for type:  2
       node    8, deallocated PAW data for type:  3
       node    9, deallocated PAW data for type:  2
       node    9, deallocated PAW data for type:  3
       node   10, deallocated PAW data for type:  1
       node   10, deallocated PAW data for type:  2
       node   11, deallocated PAW data for type:  1
       node   11, deallocated PAW data for type:  2
       node   12, deallocated PAW data for type:  1
       node   12, deallocated PAW data for type:  2
       node   13, deallocated PAW data for type:  1
       node   13, deallocated PAW data for type:  2
       node   14, deallocated PAW data for type:  2
       node   14, deallocated PAW data for type:  3
       node   15, deallocated PAW data for type:  2
       node   15, deallocated PAW data for type:  3
       node   16, deallocated PAW data for type:  1
       node   16, deallocated PAW data for type:  2
       node   17, deallocated PAW data for type:  2
       node   17, deallocated PAW data for type:  3
       node   18, deallocated PAW data for type:  2
       node   18, deallocated PAW data for type:  3
       node   19, deallocated PAW data for type:  1
       node   19, deallocated PAW data for type:  3
       node   20, deallocated PAW data for type:  1
       node   20, deallocated PAW data for type:  2
       node   21, deallocated PAW data for type:  2
       node   21, deallocated PAW data for type:  3
       node   22, deallocated PAW data for type:  1
       node   22, deallocated PAW data for type:  2
       node   23, deallocated PAW data for type:  2
       node   23, deallocated PAW data for type:  3
       node   24, deallocated PAW data for type:  2
       node   24, deallocated PAW data for type:  3
       node   25, deallocated PAW data for type:  1
       node   25, deallocated PAW data for type:  3
       node   26, deallocated PAW data for type:  1
       node   26, deallocated PAW data for type:  2
       node   27, deallocated PAW data for type:  2
       node   27, deallocated PAW data for type:  3
       node   28, deallocated PAW data for type:  1
       node   28, deallocated PAW data for type:  2
       node   29, deallocated PAW data for type:  2
       node   29, deallocated PAW data for type:  3
       node   30, deallocated PAW data for type:  2
       node   30, deallocated PAW data for type:  3
       node   31, deallocated PAW data for type:  1
       node   31, deallocated PAW data for type:  3

     total cpu time spent up to now is        5.5 secs

     per-process dynamical memory:    20.7 Mb

     Self-consistent Calculation

     iteration #  1     ecut=   100.00 Ry     beta= 0.70
     Davidson diagonalization with overlap
     ethr =  1.00E-04,  avg # of iterations =  5.0

     total cpu time spent up to now is       12.3 secs

     total energy              =    -547.12234648 Ry
     Harris-Foulkes estimate   =    -548.99506607 Ry
     estimated scf accuracy    <       2.73592447 Ry

     iteration #  2     ecut=   100.00 Ry     beta= 0.70
     Davidson diagonalization with overlap
     ethr =  3.26E-03,  avg # of iterations =  3.0

     total cpu time spent up to now is       17.1 secs

     total energy              =    -547.52568351 Ry
     Harris-Foulkes estimate   =    -548.61533621 Ry
     estimated scf accuracy    <       1.97097346 Ry

     iteration #  3     ecut=   100.00 Ry     beta= 0.70
     Davidson diagonalization with overlap
     ethr =  2.35E-03,  avg # of iterations =  3.0

     total cpu time spent up to now is       21.5 secs

     total energy              =    -548.01550772 Ry
     Harris-Foulkes estimate   =    -548.05497937 Ry
     estimated scf accuracy    <       0.07985911 Ry

     iteration #  4     ecut=   100.00 Ry     beta= 0.70
     Davidson diagonalization with overlap
     ethr =  9.51E-05,  avg # of iterations =  3.9

     total cpu time spent up to now is       26.3 secs

     total energy              =    -548.04208580 Ry
     Harris-Foulkes estimate   =    -548.05201980 Ry
     estimated scf accuracy    <       0.01959346 Ry

     iteration #  5     ecut=   100.00 Ry     beta= 0.70
     Davidson diagonalization with overlap
     ethr =  2.33E-05,  avg # of iterations =  3.0

     total cpu time spent up to now is       30.7 secs

     total energy              =    -548.04613191 Ry
     Harris-Foulkes estimate   =    -548.04660459 Ry
     estimated scf accuracy    <       0.00097956 Ry

     iteration #  6     ecut=   100.00 Ry     beta= 0.70
     Davidson diagonalization with overlap
     ethr =  1.17E-06,  avg # of iterations =  4.0

     total cpu time spent up to now is       35.6 secs

     total energy              =    -548.04633236 Ry
     Harris-Foulkes estimate   =    -548.04656450 Ry
     estimated scf accuracy    <       0.00049601 Ry

     iteration #  7     ecut=   100.00 Ry     beta= 0.70
     Davidson diagonalization with overlap
     ethr =  5.90E-07,  avg # of iterations =  4.0

     total cpu time spent up to now is       40.0 secs

     total energy              =    -548.04644699 Ry
     Harris-Foulkes estimate   =    -548.04650418 Ry
     estimated scf accuracy    <       0.00016016 Ry

     iteration #  8     ecut=   100.00 Ry     beta= 0.70
     Davidson diagonalization with overlap
     ethr =  1.91E-07,  avg # of iterations =  4.0

     total cpu time spent up to now is       44.4 secs

     total energy              =    -548.04647643 Ry
     Harris-Foulkes estimate   =    -548.04647946 Ry
     estimated scf accuracy    <       0.00000730 Ry

     iteration #  9     ecut=   100.00 Ry     beta= 0.70
     Davidson diagonalization with overlap
     ethr =  8.69E-09,  avg # of iterations =  3.9

     total cpu time spent up to now is       49.0 secs

     total energy              =    -548.04647827 Ry
     Harris-Foulkes estimate   =    -548.04647888 Ry
     estimated scf accuracy    <       0.00000137 Ry

     iteration # 10     ecut=   100.00 Ry     beta= 0.70
     Davidson diagonalization with overlap
     ethr =  1.63E-09,  avg # of iterations =  4.0

     total cpu time spent up to now is       53.6 secs

     total energy              =    -548.04647859 Ry
     Harris-Foulkes estimate   =    -548.04647864 Ry
     estimated scf accuracy    <       0.00000012 Ry

     iteration # 11     ecut=   100.00 Ry     beta= 0.70
     Davidson diagonalization with overlap
     ethr =  1.39E-10,  avg # of iterations =  4.0

     total cpu time spent up to now is       58.4 secs

     End of self-consistent calculation

          k = 0.0169 0.0214 0.0407 ( 36525 PWs)   bands (ev):

   -16.1127 -16.0718 -15.3358 -15.2755 -13.9538 -13.8580 -12.3772 -12.2434
   -11.3058 -11.1910  -8.9934  -8.8984  -8.2418  -8.1323  -6.3552  -6.2020
    -5.3328  -5.2551  -5.0047  -4.8157  -4.2242  -4.1720  -4.0834  -3.8394
    -3.2343  -3.0998  -2.6874  -2.6174  -2.4316  -2.2612  -2.1810  -2.1401
    -1.2226  -1.1344  -1.0701  -1.0026  -0.8713  -0.7962  -0.0634  -0.0209
     0.6633   0.7791

     occupation numbers 
     1.0000   1.0000   1.0000   1.0000   1.0000   1.0000   1.0000   1.0000
     1.0000   1.0000   1.0000   1.0000   1.0000   1.0000   1.0000   1.0000
     1.0000   1.0000   1.0000   1.0000   1.0000   1.0000   1.0000   1.0000
     1.0000   1.0000   1.0000   1.0000   1.0000   1.0000   1.0000   1.0000
     1.0000   1.0000   1.0000   1.0000   1.0000   1.0000   1.0000   1.0000
     1.0000   1.0000

          k = 0.0169 0.0214 0.1078 ( 36561 PWs)   bands (ev):

   -16.0229 -15.9968 -15.2876 -15.2146 -13.9307 -13.8350 -12.3769 -12.2750
   -11.2905 -11.1779  -8.9582  -8.8717  -8.2354  -8.1053  -6.4028  -6.2207
    -5.3322  -5.2504  -5.1114  -4.8868  -4.3354  -4.2563  -4.0696  -3.9140
    -3.7724  -3.6672  -2.8490  -2.7160  -2.5538  -2.4484  -2.3624  -2.2562
    -1.3592  -1.2406  -1.1634  -1.0315  -0.9461  -0.7831  -0.1691  -0.0050
     0.5783   0.8143

     occupation numbers 
     1.0000   1.0000   1.0000   1.0000   1.0000   1.0000   1.0000   1.0000
     1.0000   1.0000   1.0000   1.0000   1.0000   1.0000   1.0000   1.0000
     1.0000   1.0000   1.0000   1.0000   1.0000   1.0000   1.0000   1.0000
     1.0000   1.0000   1.0000   1.0000   1.0000   1.0000   1.0000   1.0000
     1.0000   1.0000   1.0000   1.0000   1.0000   1.0000   1.0000   1.0000
     1.0000   1.0000

          k = 0.0169 0.0214-0.0936 ( 36547 PWs)   bands (ev):

   -16.0189 -15.9996 -15.2861 -15.2161 -13.9215 -13.8509 -12.3703 -12.2799
   -11.2878 -11.1733  -8.9857  -8.8349  -8.2499  -8.0884  -6.3409  -6.3194
    -5.3346  -5.2501  -5.0453  -4.9425  -4.2695  -4.2337  -4.0852  -3.9930
    -3.7401  -3.7042  -2.7384  -2.6899  -2.6292  -2.4627  -2.3993  -2.3494
    -1.3474  -1.2319  -1.1329  -1.0529  -0.8772  -0.7581  -0.2021   0.0377
     0.5875   0.7956

     occupation numbers 
     1.0000   1.0000   1.0000   1.0000   1.0000   1.0000   1.0000   1.0000
     1.0000   1.0000   1.0000   1.0000   1.0000   1.0000   1.0000   1.0000
     1.0000   1.0000   1.0000   1.0000   1.0000   1.0000   1.0000   1.0000
     1.0000   1.0000   1.0000   1.0000   1.0000   1.0000   1.0000   1.0000
     1.0000   1.0000   1.0000   1.0000   1.0000   1.0000   1.0000   1.0000
     1.0000   1.0000

          k = 0.0169 0.0214-0.0265 ( 36551 PWs)   bands (ev):

   -16.1131 -16.0700 -15.3385 -15.2735 -13.9473 -13.8697 -12.3713 -12.2499
   -11.3115 -11.1762  -9.0246  -8.8633  -8.2932  -8.0624  -6.4066  -6.1821
    -5.3487  -5.2398  -5.1026  -4.7162  -4.2711  -4.1778  -3.9643  -3.8200
    -3.2303  -3.1592  -2.7957  -2.6176  -2.3524  -2.3115  -2.2205  -2.1641
    -1.1833  -1.1604  -1.0624  -0.9327  -0.8839  -0.7427  -0.0882   0.0083
     0.6784   0.7662

     occupation numbers 
     1.0000   1.0000   1.0000   1.0000   1.0000   1.0000   1.0000   1.0000
     1.0000   1.0000   1.0000   1.0000   1.0000   1.0000   1.0000   1.0000
     1.0000   1.0000   1.0000   1.0000   1.0000   1.0000   1.0000   1.0000
     1.0000   1.0000   1.0000   1.0000   1.0000   1.0000   1.0000   1.0000
     1.0000   1.0000   1.0000   1.0000   1.0000   1.0000   1.0000   1.0000
     1.0000   1.0000

          k = 0.0169 0.0643 0.0407 ( 36518 PWs)   bands (ev):

   -16.0819 -16.0345 -15.3463 -15.2937 -14.0039 -13.9022 -12.4130 -12.2648
   -11.3042 -11.1757  -8.8998  -8.8329  -8.1351  -8.0574  -6.3900  -6.2747
    -5.3139  -5.2264  -5.1142  -4.9270  -4.3203  -4.2808  -4.0594  -3.8492
    -3.3249  -3.2105  -2.6452  -2.6258  -2.4235  -2.3122  -2.1288  -2.0866
    -1.0658  -0.9639  -0.9272  -0.8597  -0.8421  -0.7816  -0.0561  -0.0483
     0.7095   0.7876

     occupation numbers 
     1.0000   1.0000   1.0000   1.0000   1.0000   1.0000   1.0000   1.0000
     1.0000   1.0000   1.0000   1.0000   1.0000   1.0000   1.0000   1.0000
     1.0000   1.0000   1.0000   1.0000   1.0000   1.0000   1.0000   1.0000
     1.0000   1.0000   1.0000   1.0000   1.0000   1.0000   1.0000   1.0000
     1.0000   1.0000   1.0000   1.0000   1.0000   1.0000   1.0000   1.0000
     1.0000   1.0000

          k = 0.0169 0.0643 0.1078 ( 36558 PWs)   bands (ev):

   -16.0057 -15.9691 -15.2951 -15.2206 -13.9638 -13.8575 -12.3929 -12.2770
   -11.2962 -11.1938  -8.9204  -8.8838  -8.1862  -8.1152  -6.3981  -6.2323
    -5.3225  -5.2616  -5.0069  -4.7869  -4.2799  -4.2123  -4.0949  -3.9660
    -3.9290  -3.8675  -2.7242  -2.6528  -2.5955  -2.5129  -2.4176  -2.2020
    -1.3065  -1.1777  -1.0933  -0.9849  -0.9352  -0.8538  -0.0430   0.1411
     0.5501   0.7444

     occupation numbers 
     1.0000   1.0000   1.0000   1.0000   1.0000   1.0000   1.0000   1.0000
     1.0000   1.0000   1.0000   1.0000   1.0000   1.0000   1.0000   1.0000
     1.0000   1.0000   1.0000   1.0000   1.0000   1.0000   1.0000   1.0000
     1.0000   1.0000   1.0000   1.0000   1.0000   1.0000   1.0000   1.0000
     1.0000   1.0000   1.0000   1.0000   1.0000   1.0000   1.0000   1.0000
     1.0000   1.0000

          k = 0.0169 0.0643-0.0936 ( 36547 PWs)   bands (ev):

   -16.0002 -15.9738 -15.2914 -15.2241 -13.9577 -13.8698 -12.3864 -12.2829
   -11.2978 -11.1838  -8.9492  -8.8456  -8.2111  -8.0905  -6.3695  -6.2889
    -5.3310  -5.2532  -4.9180  -4.8856  -4.2684  -4.1947  -4.0781  -3.9768
    -3.9226  -3.8409  -2.7945  -2.6935  -2.6450  -2.5382  -2.3367  -2.2435
    -1.2710  -1.1804  -1.0350  -0.9830  -0.9199  -0.8438  -0.0713   0.1709
     0.5613   0.7340

     occupation numbers 
     1.0000   1.0000   1.0000   1.0000   1.0000   1.0000   1.0000   1.0000
     1.0000   1.0000   1.0000   1.0000   1.0000   1.0000   1.0000   1.0000
     1.0000   1.0000   1.0000   1.0000   1.0000   1.0000   1.0000   1.0000
     1.0000   1.0000   1.0000   1.0000   1.0000   1.0000   1.0000   1.0000
     1.0000   1.0000   1.0000   1.0000   1.0000   1.0000   1.0000   1.0000
     1.0000   1.0000

          k = 0.0169 0.0643-0.0265 ( 36489 PWs)   bands (ev):

   -16.0778 -16.0378 -15.3439 -15.2960 -13.9988 -13.9131 -12.4057 -12.2703
   -11.3103 -11.1645  -8.9255  -8.7954  -8.1703  -8.0097  -6.4206  -6.3189
    -5.3072  -5.2315  -5.0294  -4.9197  -4.2878  -4.1895  -4.1519  -3.9625
    -3.2876  -3.2496  -2.6378  -2.5392  -2.4398  -2.4071  -2.1457  -2.1015
    -1.1148  -0.9974  -0.8933  -0.8410  -0.7784  -0.7061  -0.0674  -0.0338
     0.7114   0.7838

     occupation numbers 
     1.0000   1.0000   1.0000   1.0000   1.0000   1.0000   1.0000   1.0000
     1.0000   1.0000   1.0000   1.0000   1.0000   1.0000   1.0000   1.0000
     1.0000   1.0000   1.0000   1.0000   1.0000   1.0000   1.0000   1.0000
     1.0000   1.0000   1.0000   1.0000   1.0000   1.0000   1.0000   1.0000
     1.0000   1.0000   1.0000   1.0000   1.0000   1.0000   1.0000   1.0000
     1.0000   1.0000

          k =-0.0169 0.0214-0.0407 ( 36525 PWs)   bands (ev):

   -16.1084 -16.0753 -15.3331 -15.2781 -13.9487 -13.8688 -12.3710 -12.2488
   -11.3102 -11.1794  -9.0232  -8.8598  -8.2693  -8.0986  -6.3437  -6.2489
    -5.3421  -5.2338  -4.9671  -4.8750  -4.2195  -4.1550  -3.9789  -3.9147
    -3.2074  -3.1565  -2.7244  -2.6244  -2.3627  -2.3333  -2.2056  -2.1620
    -1.2292  -1.1286  -1.0529  -0.9444  -0.8735  -0.7560  -0.0873   0.0088
     0.6636   0.7797

     occupation numbers 
     1.0000   1.0000   1.0000   1.0000   1.0000   1.0000   1.0000   1.0000
     1.0000   1.0000   1.0000   1.0000   1.0000   1.0000   1.0000   1.0000
     1.0000   1.0000   1.0000   1.0000   1.0000   1.0000   1.0000   1.0000
     1.0000   1.0000   1.0000   1.0000   1.0000   1.0000   1.0000   1.0000
     1.0000   1.0000   1.0000   1.0000   1.0000   1.0000   1.0000   1.0000
     1.0000   1.0000

          k =-0.0169 0.0214-0.1078 ( 36561 PWs)   bands (ev):

   -16.0181 -16.0005 -15.2841 -15.2180 -13.9259 -13.8462 -12.3705 -12.2801
   -11.2926 -11.1681  -8.9867  -8.8357  -8.2594  -8.0739  -6.4047  -6.2528
    -5.3398  -5.2495  -5.0707  -4.9314  -4.3149  -4.2217  -4.0688  -3.9193
    -3.7510  -3.7000  -2.8579  -2.7135  -2.5855  -2.4553  -2.3609  -2.3156
    -1.3811  -1.2215  -1.1691  -1.0096  -0.8964  -0.7383  -0.2047   0.0367
     0.5855   0.8008

     occupation numbers 
     1.0000   1.0000   1.0000   1.0000   1.0000   1.0000   1.0000   1.0000
     1.0000   1.0000   1.0000   1.0000   1.0000   1.0000   1.0000   1.0000
     1.0000   1.0000   1.0000   1.0000   1.0000   1.0000   1.0000   1.0000
     1.0000   1.0000   1.0000   1.0000   1.0000   1.0000   1.0000   1.0000
     1.0000   1.0000   1.0000   1.0000   1.0000   1.0000   1.0000   1.0000
     1.0000   1.0000

          k =-0.0169 0.0214 0.0936 ( 36547 PWs)   bands (ev):

   -16.0238 -15.9957 -15.2899 -15.2125 -13.9264 -13.8397 -12.3765 -12.2753
   -11.2834 -11.1850  -8.9560  -8.8729  -8.2197  -8.1254  -6.3577  -6.2669
    -5.3307  -5.2505  -5.0963  -4.8872  -4.3028  -4.2276  -4.1436  -3.9687
    -3.7490  -3.6688  -2.7232  -2.6886  -2.6255  -2.4520  -2.3818  -2.2965
    -1.3326  -1.2487  -1.1487  -1.0316  -0.9525  -0.7948  -0.1670  -0.0017
     0.5752   0.8116

     occupation numbers 
     1.0000   1.0000   1.0000   1.0000   1.0000   1.0000   1.0000   1.0000
     1.0000   1.0000   1.0000   1.0000   1.0000   1.0000   1.0000   1.0000
     1.0000   1.0000   1.0000   1.0000   1.0000   1.0000   1.0000   1.0000
     1.0000   1.0000   1.0000   1.0000   1.0000   1.0000   1.0000   1.0000
     1.0000   1.0000   1.0000   1.0000   1.0000   1.0000   1.0000   1.0000
     1.0000   1.0000

          k =-0.0169 0.0214 0.0265 ( 36551 PWs)   bands (ev):

   -16.1166 -16.0673 -15.3408 -15.2713 -13.9531 -13.8581 -12.3780 -12.2438
   -11.3092 -11.1857  -8.9973  -8.8991  -8.2766  -8.0854  -6.4108  -6.1416
    -5.3448  -5.2570  -5.1035  -4.6971  -4.2939  -4.1944  -4.0011  -3.7935
    -3.2385  -3.1160  -2.7720  -2.6143  -2.4010  -2.2549  -2.2003  -2.1303
    -1.1812  -1.1497  -1.0834  -0.9895  -0.8861  -0.7869  -0.0628  -0.0219
     0.6713   0.7721

     occupation numbers 
     1.0000   1.0000   1.0000   1.0000   1.0000   1.0000   1.0000   1.0000
     1.0000   1.0000   1.0000   1.0000   1.0000   1.0000   1.0000   1.0000
     1.0000   1.0000   1.0000   1.0000   1.0000   1.0000   1.0000   1.0000
     1.0000   1.0000   1.0000   1.0000   1.0000   1.0000   1.0000   1.0000
     1.0000   1.0000   1.0000   1.0000   1.0000   1.0000   1.0000   1.0000
     1.0000   1.0000

          k =-0.0169 0.0643-0.0407 ( 36518 PWs)   bands (ev):

   -16.0767 -16.0390 -15.3424 -15.2974 -13.9991 -13.9124 -12.4066 -12.2712
   -11.3090 -11.1628  -8.9275  -8.7967  -8.1656  -8.0207  -6.3862  -6.3147
    -5.3119  -5.2325  -5.0296  -4.9964  -4.3196  -4.2773  -3.9928  -3.8994
    -3.2879  -3.2509  -2.6815  -2.6277  -2.4226  -2.3884  -2.1208  -2.0791
    -1.1124  -0.9453  -0.8765  -0.8344  -0.8145  -0.7521  -0.0714  -0.0295
     0.7065   0.7906

     occupation numbers 
     1.0000   1.0000   1.0000   1.0000   1.0000   1.0000   1.0000   1.0000
     1.0000   1.0000   1.0000   1.0000   1.0000   1.0000   1.0000   1.0000
     1.0000   1.0000   1.0000   1.0000   1.0000   1.0000   1.0000   1.0000
     1.0000   1.0000   1.0000   1.0000   1.0000   1.0000   1.0000   1.0000
     1.0000   1.0000   1.0000   1.0000   1.0000   1.0000   1.0000   1.0000
     1.0000   1.0000

          k =-0.0169 0.0643-0.1078 ( 36558 PWs)   bands (ev):

   -16.0003 -15.9737 -15.2911 -15.2244 -13.9582 -13.8695 -12.3862 -12.2826
   -11.2992 -11.1832  -8.9495  -8.8456  -8.2140  -8.0838  -6.3922  -6.2773
    -5.3272  -5.2464  -4.9408  -4.8464  -4.2642  -4.1915  -4.1002  -3.9715
    -3.9013  -3.8965  -2.7870  -2.6814  -2.5867  -2.4822  -2.4157  -2.2688
    -1.3302  -1.1706  -1.0213  -0.9751  -0.9326  -0.8013  -0.0717   0.1718
     0.5536   0.7354

     occupation numbers 
     1.0000   1.0000   1.0000   1.0000   1.0000   1.0000   1.0000   1.0000
     1.0000   1.0000   1.0000   1.0000   1.0000   1.0000   1.0000   1.0000
     1.0000   1.0000   1.0000   1.0000   1.0000   1.0000   1.0000   1.0000
     1.0000   1.0000   1.0000   1.0000   1.0000   1.0000   1.0000   1.0000
     1.0000   1.0000   1.0000   1.0000   1.0000   1.0000   1.0000   1.0000
     1.0000   1.0000

          k =-0.0169 0.0643 0.0936 ( 36547 PWs)   bands (ev):

   -16.0060 -15.9688 -15.2958 -15.2201 -13.9627 -13.8584 -12.3928 -12.2779
   -11.2932 -11.1957  -8.9197  -8.8845  -8.1848  -8.1204  -6.3785  -6.2380
    -5.3307  -5.2671  -5.0076  -4.8017  -4.2700  -4.2010  -4.1458  -3.9655
    -3.9113  -3.8086  -2.7330  -2.6765  -2.6130  -2.5799  -2.3730  -2.1582
    -1.2896  -1.1374  -1.0877  -1.0339  -0.9301  -0.8771  -0.0439   0.1418
     0.5512   0.7466

     occupation numbers 
     1.0000   1.0000   1.0000   1.0000   1.0000   1.0000   1.0000   1.0000
     1.0000   1.0000   1.0000   1.0000   1.0000   1.0000   1.0000   1.0000
     1.0000   1.0000   1.0000   1.0000   1.0000   1.0000   1.0000   1.0000
     1.0000   1.0000   1.0000   1.0000   1.0000   1.0000   1.0000   1.0000
     1.0000   1.0000   1.0000   1.0000   1.0000   1.0000   1.0000   1.0000
     1.0000   1.0000

          k =-0.0169 0.0643 0.0265 ( 36489 PWs)   bands (ev):

   -16.0827 -16.0337 -15.3474 -15.2926 -14.0042 -13.9022 -12.4127 -12.2631
   -11.3071 -11.1759  -8.8996  -8.8301  -8.1416  -8.0443  -6.4278  -6.2755
    -5.3087  -5.2253  -5.0973  -4.8684  -4.2758  -4.2556  -4.1078  -3.9743
    -3.3192  -3.2111  -2.6115  -2.5046  -2.4776  -2.3171  -2.1501  -2.1166
    -1.0749  -1.0061  -0.9170  -0.8729  -0.8167  -0.7441  -0.0599  -0.0467
     0.7082   0.7879

     occupation numbers 
     1.0000   1.0000   1.0000   1.0000   1.0000   1.0000   1.0000   1.0000
     1.0000   1.0000   1.0000   1.0000   1.0000   1.0000   1.0000   1.0000
     1.0000   1.0000   1.0000   1.0000   1.0000   1.0000   1.0000   1.0000
     1.0000   1.0000   1.0000   1.0000   1.0000   1.0000   1.0000   1.0000
     1.0000   1.0000   1.0000   1.0000   1.0000   1.0000   1.0000   1.0000
     1.0000   1.0000

     highest occupied level (ev):     0.8143

!    total energy              =    -548.04647862 Ry
     Harris-Foulkes estimate   =    -548.04647863 Ry
     estimated scf accuracy    <       0.00000002 Ry

     total all-electron energy =     -4615.889966 Ry

     The total energy is the sum of the following terms:

     one-electron contribution =    -151.58210292 Ry
     hartree contribution      =     107.16313384 Ry
     xc contribution           =    -104.22002273 Ry
     ewald contribution        =    -143.62491475 Ry
     one-center paw contrib.   =    -255.78257206 Ry
      -> PAW hartree energy AE =      19.32441096 Ry
      -> PAW hartree energy PS =     -19.21957079 Ry
      -> PAW xc energy AE      =     -55.68544740 Ry
      -> PAW xc energy PS      =      10.13816703 Ry
      -> total E_H with PAW    =     107.26797401 Ry
      -> total E_XC with PAW   =    -149.76730311 Ry

     convergence has been achieved in  11 iterations
 writing file ./scratch/scf-1278.save/charge-density
 writing file ./scratch/scf-1278.save/charge-density
 writing file ./scratch/scf-1278.save/charge-density
 writing file ./scratch/scf-1278.save/charge-density
 writing file ./scratch/scf-1278.save/charge-density
 writing file ./scratch/scf-1278.save/charge-density
 writing file ./scratch/scf-1278.save/charge-density
 writing file ./scratch/scf-1278.save/charge-density
 writing file ./scratch/scf-1278.save/charge-density
 writing file ./scratch/scf-1278.save/charge-density
 writing file ./scratch/scf-1278.save/charge-density
 writing file ./scratch/scf-1278.save/charge-density
 writing file ./scratch/scf-1278.save/charge-density
 writing file ./scratch/scf-1278.save/charge-density
 writing file ./scratch/scf-1278.save/charge-density
 writing file ./scratch/scf-1278.save/charge-density
 writing file ./scratch/scf-1278.save/charge-density
 writing file ./scratch/scf-1278.save/charge-density
 writing file ./scratch/scf-1278.save/charge-density
 writing file ./scratch/scf-1278.save/charge-density
 writing file ./scratch/scf-1278.save/charge-density
 writing file ./scratch/scf-1278.save/charge-density
 writing file ./scratch/scf-1278.save/charge-density
 writing file ./scratch/scf-1278.save/charge-density
 writing file ./scratch/scf-1278.save/charge-density
 writing file ./scratch/scf-1278.save/charge-density
 writing file ./scratch/scf-1278.save/charge-density
 writing file ./scratch/scf-1278.save/charge-density
 writing file ./scratch/scf-1278.save/charge-density
 writing file ./scratch/scf-1278.save/charge-density
 writing file ./scratch/scf-1278.save/charge-density
 writing file ./scratch/scf-1278.save/charge-density

     Forces acting on atoms (cartesian axes, Ry/au):

     atom    1 type  2   force =     0.01721815    0.00430566    0.01115528
     atom    2 type  1   force =    -0.01704959   -0.00837848   -0.00478208
     atom    3 type  1   force =     0.01011384   -0.01041385    0.00773254
     atom    4 type  3   force =     0.00202109    0.00210235   -0.00236682
     atom    5 type  1   force =    -0.00249600   -0.00399755   -0.00267100
     atom    6 type  3   force =    -0.00038464   -0.00094772   -0.00002542
     atom    7 type  3   force =     0.00294849    0.00112082   -0.00074749
     atom    8 type  1   force =     0.00818529   -0.00227823   -0.00049882
     atom    9 type  3   force =     0.00305077    0.00180325   -0.00210281
     atom   10 type  1   force =     0.00443087    0.02121048    0.00492798
     atom   11 type  1   force =     0.02148082    0.02339696   -0.02658967
     atom   12 type  2   force =    -0.02697593   -0.03913028    0.02084617
     atom   13 type  3   force =    -0.00371231   -0.00131588    0.00469449
     atom   14 type  1   force =     0.00453805    0.02766030   -0.02321916
     atom   15 type  3   force =     0.00176452    0.00317947   -0.00821142
     atom   16 type  1   force =    -0.02234247   -0.00437587    0.03425552
     atom   17 type  1   force =     0.00053738    0.01876560   -0.02630249
     atom   18 type  2   force =     0.01296944   -0.02756357    0.01283948
     atom   19 type  3   force =    -0.00016047   -0.00345639   -0.00412794
     atom   20 type  1   force =    -0.01398095    0.00895649    0.00399125
     atom   21 type  3   force =    -0.00172852   -0.00353920   -0.00057151
     atom   22 type  1   force =     0.01426780   -0.00639409   -0.00700105
     atom   23 type  1   force =     0.02027929    0.01092909    0.00996524
     atom   24 type  2   force =    -0.03497494   -0.01163936   -0.00119028
     The non-local contrib.  to forces
     atom    1 type  2   force =    -0.28625275    0.27092490    0.02886722
     atom    2 type  1   force =     0.36681447   -0.33371363    0.02408417
     atom    3 type  1   force =    -0.02798645   -0.06266436   -0.04264754
     atom    4 type  3   force =    -0.06177678   -0.01641952   -0.04582842
     atom    5 type  1   force =    -0.03066860   -0.05311004   -0.03086817
     atom    6 type  3   force =    -0.00235011   -0.06671027   -0.04155140
     atom    7 type  3   force =     0.00823039   -0.05910068    0.05190840
     atom    8 type  1   force =     0.05979035   -0.03499971    0.05428144
     atom    9 type  3   force =     0.06432014   -0.00553630    0.04452264
     atom   10 type  1   force =     0.03797909    0.01341331    0.04881381
     atom   11 type  1   force =    -0.33876855   -0.33407999   -0.04934663
     atom   12 type  2   force =     0.28967809    0.25442091    0.05879432
     atom   13 type  3   force =     0.00016881    0.06513329    0.04412482
     atom   14 type  1   force =     0.03366034    0.07629868    0.00195142
     atom   15 type  3   force =     0.06394857    0.01856477    0.04261781
     atom   16 type  1   force =    -0.00170613    0.03549461    0.10870216
     atom   17 type  1   force =    -0.34915293    0.35861528   -0.09201438
     atom   18 type  2   force =     0.27551144   -0.28581037    0.05025333
     atom   19 type  3   force =    -0.00665226    0.05680628   -0.05430977
     atom   20 type  1   force =    -0.06686841    0.05610795   -0.05140194
     atom   21 type  3   force =    -0.06407695    0.00413098   -0.04606264
     atom   22 type  1   force =    -0.03522391    0.01758699   -0.06921026
     atom   23 type  1   force =     0.39867973    0.34537931   -0.01375504
     atom   24 type  2   force =    -0.32131982   -0.22654721    0.01848392
     The ionic contribution  to forces
     atom    1 type  2   force =     6.22673442   -4.18835395    0.62906621
     atom    2 type  1   force =     2.65500769   -1.36265243    0.73611527
     atom    3 type  1   force =     4.43221887    1.70671921    2.87270825
     atom    4 type  3   force =     1.98668805    0.62871207    1.37365843
     atom    5 type  1   force =     1.04130408    3.82920831    2.66762839
     atom    6 type  3   force =     0.29290318    1.88212705    1.33828776
     atom    7 type  3   force =    -0.53693233    1.75700141   -1.54829472
     atom    8 type  1   force =    -1.65641610    3.91353348   -2.87380137
     atom    9 type  3   force =    -2.15698426    0.34367636   -1.43625738
     atom   10 type  1   force =    -4.49202352    1.17261874   -3.11635217
     atom   11 type  1   force =    -2.17287496   -1.80006834    0.09911150
     atom   12 type  2   force =    -6.49051816   -4.69273009   -1.13762778
     atom   13 type  3   force =    -0.16537555   -1.87097194   -1.37115129
     atom   14 type  1   force =    -1.12866338   -4.02816870   -1.95902292
     atom   15 type  3   force =    -1.95368415   -0.60191060   -1.33557775
     atom   16 type  1   force =    -3.80542302   -1.22444388   -3.21992530
     atom   17 type  1   force =    -2.66537331    1.40981946   -0.12832160
     atom   18 type  2   force =    -4.93866249    3.62357249   -0.76526551
     atom   19 type  3   force =     0.42252511   -1.72356958    1.53660144
     atom   20 type  1   force =     1.34359849   -3.98251625    2.72479835
     atom   21 type  3   force =     2.01839307   -0.29436641    1.32467240
     atom   22 type  1   force =     4.02822211   -0.95359507    2.95591656
     atom   23 type  1   force =     2.15690177    2.27905624    0.08429697
     atom   24 type  2   force =     5.55843439    4.17730242    0.54873626
     The local contribution  to forces
     atom    1 type  2   force =    -5.93417385    3.93273056   -0.64520897
     atom    2 type  1   force =    -3.02920058    1.67991408   -0.76427474
     atom    3 type  1   force =    -4.39288289   -1.65478098   -2.82187257
     atom    4 type  3   force =    -1.92288454   -0.61018655   -1.33019452
     atom    5 type  1   force =    -1.01350337   -3.77915374   -2.63854918
     atom    6 type  3   force =    -0.29093844   -1.81635858   -1.29675888
     atom    7 type  3   force =     0.53164769   -1.69677451    1.49563259
     atom    8 type  1   force =     1.60531756   -3.87957946    2.81851665
     atom    9 type  3   force =     2.09573253   -0.33634565    1.38964423
     atom   10 type  1   force =     4.45761603   -1.16431118    3.07188056
     atom   11 type  1   force =     2.52486604    2.14927607   -0.07650728
     atom   12 type  2   force =     6.18454922    4.40822782    1.10260490
     atom   13 type  3   force =     0.16148597    1.80452721    1.33172183
     atom   14 type  1   force =     1.09931762    3.97847499    1.93330778
     atom   15 type  3   force =     1.89150203    0.58652379    1.28475058
     atom   16 type  1   force =     3.78352975    1.18505384    3.14541515
     atom   17 type  1   force =     3.00512276   -1.74091710    0.19229805
     atom   18 type  2   force =     4.68788157   -3.37806343    0.73024836
     atom   19 type  3   force =    -0.41604278    1.66331694   -1.48643256
     atom   20 type  1   force =    -1.29149587    3.93428594   -2.66899256
     atom   21 type  3   force =    -1.95603843    0.28668946   -1.27917520
     atom   22 type  1   force =    -3.97804085    0.92965173   -2.89327295
     atom   23 type  1   force =    -2.52475719   -2.60422364   -0.06136680
     atom   24 type  2   force =    -5.28659338   -3.97224064   -0.56764187
     The core correction contribution to forces
     atom    1 type  2   force =     0.01101468   -0.01107171   -0.00154469
     atom    2 type  1   force =    -0.00969907    0.00806628   -0.00071426
     atom    3 type  1   force =    -0.00121006    0.00034876   -0.00042438
     atom    4 type  3   force =     0.00000000    0.00000000    0.00000000
     atom    5 type  1   force =     0.00036230   -0.00092768   -0.00088126
     atom    6 type  3   force =     0.00000000    0.00000000    0.00000000
     atom    7 type  3   force =     0.00000000    0.00000000    0.00000000
     atom    8 type  1   force =    -0.00056273   -0.00128656    0.00049376
     atom    9 type  3   force =     0.00000000    0.00000000    0.00000000
     atom   10 type  1   force =     0.00084724   -0.00059379    0.00061749
     atom   11 type  1   force =     0.00828055    0.00827645    0.00015629
     atom   12 type  2   force =    -0.01053506   -0.00894865   -0.00287712
     atom   13 type  3   force =     0.00000000    0.00000000    0.00000000
     atom   14 type  1   force =     0.00014689    0.00102441    0.00050207
     atom   15 type  3   force =     0.00000000    0.00000000    0.00000000
     atom   16 type  1   force =     0.00123228   -0.00050771    0.00005029
     atom   17 type  1   force =     0.00989637   -0.00876292    0.00171293
     atom   18 type  2   force =    -0.01178596    0.01274547   -0.00240969
     atom   19 type  3   force =     0.00000000    0.00000000    0.00000000
     atom   20 type  1   force =     0.00070102    0.00104354   -0.00044999
     atom   21 type  3   force =     0.00000000    0.00000000    0.00000000
     atom   22 type  1   force =    -0.00073514   -0.00010502   -0.00043246
     atom   23 type  1   force =    -0.01055432   -0.00929234    0.00078383
     atom   24 type  2   force =     0.01453262    0.00987953   -0.00075521
     The Hubbard contrib.    to forces
     atom    1 type  2   force =     0.00000000    0.00000000    0.00000000
     atom    2 type  1   force =     0.00000000    0.00000000    0.00000000
     atom    3 type  1   force =     0.00000000    0.00000000    0.00000000
     atom    4 type  3   force =     0.00000000    0.00000000    0.00000000
     atom    5 type  1   force =     0.00000000    0.00000000    0.00000000
     atom    6 type  3   force =     0.00000000    0.00000000    0.00000000
     atom    7 type  3   force =     0.00000000    0.00000000    0.00000000
     atom    8 type  1   force =     0.00000000    0.00000000    0.00000000
     atom    9 type  3   force =     0.00000000    0.00000000    0.00000000
     atom   10 type  1   force =     0.00000000    0.00000000    0.00000000
     atom   11 type  1   force =     0.00000000    0.00000000    0.00000000
     atom   12 type  2   force =     0.00000000    0.00000000    0.00000000
     atom   13 type  3   force =     0.00000000    0.00000000    0.00000000
     atom   14 type  1   force =     0.00000000    0.00000000    0.00000000
     atom   15 type  3   force =     0.00000000    0.00000000    0.00000000
     atom   16 type  1   force =     0.00000000    0.00000000    0.00000000
     atom   17 type  1   force =     0.00000000    0.00000000    0.00000000
     atom   18 type  2   force =     0.00000000    0.00000000    0.00000000
     atom   19 type  3   force =     0.00000000    0.00000000    0.00000000
     atom   20 type  1   force =     0.00000000    0.00000000    0.00000000
     atom   21 type  3   force =     0.00000000    0.00000000    0.00000000
     atom   22 type  1   force =     0.00000000    0.00000000    0.00000000
     atom   23 type  1   force =     0.00000000    0.00000000    0.00000000
     atom   24 type  2   force =     0.00000000    0.00000000    0.00000000
     The SCF correction term to forces
     atom    1 type  2   force =    -0.00010320    0.00007533   -0.00002379
     atom    2 type  1   force =     0.00002904    0.00000670    0.00000819
     atom    3 type  1   force =    -0.00002449   -0.00003700   -0.00003051
     atom    4 type  3   force =    -0.00000448   -0.00000417   -0.00000159
     atom    5 type  1   force =     0.00001073   -0.00001491   -0.00000006
     atom    6 type  3   force =     0.00000189   -0.00000644   -0.00000220
     atom    7 type  3   force =     0.00000390   -0.00000591    0.00000694
     atom    8 type  1   force =     0.00005737    0.00005350    0.00001142
     atom    9 type  3   force =    -0.00001649    0.00000832   -0.00001159
     atom   10 type  1   force =     0.00001318    0.00008288   -0.00003101
     atom   11 type  1   force =    -0.00002111   -0.00000776   -0.00000284
     atom   12 type  2   force =    -0.00014887   -0.00010080   -0.00004744
     atom   13 type  3   force =     0.00000960   -0.00000497   -0.00000016
     atom   14 type  1   force =     0.00007772    0.00003039    0.00004320
     atom   15 type  3   force =    -0.00000078    0.00000099   -0.00000135
     atom   16 type  1   force =     0.00002581    0.00002675    0.00001393
     atom   17 type  1   force =     0.00004564    0.00001037    0.00002321
     atom   18 type  2   force =     0.00002603   -0.00000826    0.00001370
     atom   19 type  3   force =     0.00001061   -0.00001055    0.00001366
     atom   20 type  1   force =     0.00008497    0.00003479    0.00003810
     atom   21 type  3   force =    -0.00000507    0.00000626   -0.00000536
     atom   22 type  1   force =     0.00004673    0.00006676   -0.00000123
     atom   23 type  1   force =     0.00001044    0.00000899    0.00000698
     atom   24 type  2   force =    -0.00002761   -0.00003398   -0.00001268

     Total force =     0.118462     Total SCF correction =     0.000324

     Writing output data file scf-1278.save
 writing file ./scratch/scf-1278.save/charge-density
 writing file ./scratch/scf-1278.save/charge-density
 writing file ./scratch/scf-1278.save/charge-density
 writing file ./scratch/scf-1278.save/charge-density
 writing file ./scratch/scf-1278.save/charge-density
 writing file ./scratch/scf-1278.save/charge-density
 writing file ./scratch/scf-1278.save/charge-density
 writing file ./scratch/scf-1278.save/charge-density
 writing file ./scratch/scf-1278.save/charge-density
 writing file ./scratch/scf-1278.save/charge-density
 writing file ./scratch/scf-1278.save/charge-density
 writing file ./scratch/scf-1278.save/charge-density
 writing file ./scratch/scf-1278.save/charge-density
 writing file ./scratch/scf-1278.save/charge-density
 writing file ./scratch/scf-1278.save/charge-density
 writing file ./scratch/scf-1278.save/charge-density
 writing file ./scratch/scf-1278.save/charge-density
 writing file ./scratch/scf-1278.save/charge-density
 writing file ./scratch/scf-1278.save/charge-density
 writing file ./scratch/scf-1278.save/charge-density
 writing file ./scratch/scf-1278.save/charge-density
 writing file ./scratch/scf-1278.save/charge-density
 writing file ./scratch/scf-1278.save/charge-density
 writing file ./scratch/scf-1278.save/charge-density
 writing file ./scratch/scf-1278.save/charge-density
 writing file ./scratch/scf-1278.save/charge-density
 writing file ./scratch/scf-1278.save/charge-density
 writing file ./scratch/scf-1278.save/charge-density
 writing file ./scratch/scf-1278.save/charge-density
 writing file ./scratch/scf-1278.save/charge-density
 writing file ./scratch/scf-1278.save/charge-density
 writing file ./scratch/scf-1278.save/charge-density
 
     init_run     :      4.37s CPU      4.60s WALL (       1 calls)
     electrons    :     50.12s CPU     53.07s WALL (       1 calls)
     forces       :      2.34s CPU      2.48s WALL (       1 calls)

     Called by init_run:
     wfcinit      :      1.61s CPU      1.63s WALL (       1 calls)
     wfcinit:atom :      0.01s CPU      0.02s WALL (      16 calls)
     wfcinit:wfcr :      1.49s CPU      1.50s WALL (      16 calls)
     potinit      :      0.89s CPU      0.92s WALL (       1 calls)

     Called by electrons:
     c_bands      :     39.06s CPU     39.46s WALL (      11 calls)
     sum_band     :      6.96s CPU      8.12s WALL (      11 calls)
     v_of_rho     :      0.90s CPU      0.96s WALL (      12 calls)
     v_h          :      0.05s CPU      0.06s WALL (      12 calls)
     v_xc         :      0.92s CPU      0.98s WALL (      13 calls)
     newd         :      1.49s CPU      2.86s WALL (      12 calls)
     PAW_pot      :      1.65s CPU      1.70s WALL (      12 calls)
     mix_rho      :      0.14s CPU      0.14s WALL (      11 calls)

     Called by c_bands:
     init_us_2    :      0.78s CPU      0.87s WALL (     384 calls)
     cegterg      :     36.74s CPU     36.97s WALL (     176 calls)

     Called by sum_band:
     sum_band:bec :      0.03s CPU      0.02s WALL (     176 calls)
     addusdens    :      1.54s CPU      2.66s WALL (      11 calls)

     Called by *egterg:
     h_psi        :     27.42s CPU     27.51s WALL (     861 calls)
     s_psi        :      2.13s CPU      2.02s WALL (     861 calls)
     g_psi        :      0.14s CPU      0.16s WALL (     669 calls)
     cdiaghg      :      3.49s CPU      3.45s WALL (     845 calls)
     cegterg:over :      1.61s CPU      1.69s WALL (     669 calls)
     cegterg:upda :      1.22s CPU      1.27s WALL (     669 calls)
     cegterg:last :      0.46s CPU      0.43s WALL (     192 calls)

     Called by h_psi:
     h_psi:pot    :     27.15s CPU     27.25s WALL (     861 calls)
     h_psi:calbec :      2.30s CPU      2.26s WALL (     861 calls)
     vloc_psi     :     22.90s CPU     23.01s WALL (     861 calls)
     add_vuspsi   :      1.94s CPU      1.98s WALL (     861 calls)

     General routines
     calbec       :      3.02s CPU      3.01s WALL (    1101 calls)
     fft          :      0.70s CPU      0.78s WALL (     199 calls)
     ffts         :      0.03s CPU      0.03s WALL (      23 calls)
     fftw         :     21.42s CPU     21.52s WALL (   55716 calls)
     interpolate  :      0.14s CPU      0.15s WALL (      23 calls)
     davcio       :      0.00s CPU      0.01s WALL (      16 calls)
 
     Parallel routines
     fft_scatter  :      7.66s CPU      7.68s WALL (   55938 calls)

     PAW routines
     PAW_pot      :      1.65s CPU      1.70s WALL (      12 calls)
 
     PWSCF        :  0m57.56s CPU     1m 1.50s WALL

 
   This run was terminated on:  12:52:51  22May2017            

=------------------------------------------------------------------------------=
   JOB DONE.
=------------------------------------------------------------------------------=
