
     Program PWSCF v.6.1 starts on 20May2017 at 15:38:17 

     This program is part of the open-source Quantum ESPRESSO suite
     for quantum simulation of materials; please cite
         "P. Giannozzi et al., J. Phys.:Condens. Matter 21 395502 (2009);
          URL http://www.quantum-espresso.org", 
     in publications or presentations arising from this work. More details at
     http://www.quantum-espresso.org/quote

     Parallel version (MPI & OpenMP), running on      32 processor cores
     Number of MPI processes:                32
     Threads/MPI process:                     1
     R & G space division:  proc/nbgrp/npool/nimage =      32
     Waiting for input...
     Reading input from standard input
Warning: card &IONS ignored
Warning: card     ION_TEMPERATURE   = 'INITIAL' ignored
Warning: card     TEMPW             = 586.D0 ignored
Warning: card     TOLP              = 100.D0 ignored
Warning: card     DELTA_T           = 1.D0 ignored
Warning: card     NRAISE            = 1 ignored
Warning: card / ignored
Warning: card &CELL ignored
Warning: card     CELL_DYNAMICS     = 'BFGS' ignored
Warning: card / ignored

     Current dimensions of program PWSCF are:
     Max number of different atomic species (ntypx) = 10
     Max number of k-points (npk) =  40000
     Max angular momentum in pseudopotentials (lmaxx) =  3
               file C.pbe-n-kjpaw_psl.1.0.0.UPF: wavefunction(s)  2S 2P renormalized
               file Cl.pbe-n-kjpaw_psl.1.0.0.UPF: wavefunction(s)  3S 3P renormalized
               file H.pbe-kjpaw_psl.1.0.0.UPF: wavefunction(s)  1S renormalized

     Subspace diagonalization in iterative solution of the eigenvalue problem:
     a serial algorithm will be used

 
     Parallelization info
     --------------------
     sticks:   dense  smooth     PW     G-vecs:    dense   smooth      PW
     Min         764     305     83                36108     9133    1292
     Max         765     306     84                36110     9135    1293
     Sum       24467    9791   2657              1155489   292295   41363
 


     bravais-lattice index     =            0
     lattice parameter (alat)  =       1.8897  a.u.
     unit-cell volume          =    2163.5316 (a.u.)^3
     number of atoms/cell      =           24
     number of atomic types    =            3
     number of electrons       =        84.00
     number of Kohn-Sham states=           42
     kinetic-energy cutoff     =     100.0000  Ry
     charge density cutoff     =    1000.0000  Ry
     convergence threshold     =      1.0E-07
     mixing beta               =       0.7000
     number of iterations used =            8  plain     mixing
     Exchange-correlation      =  SLA  PW   PBX  PBC ( 1  4  3  4 0 0)

     celldm(1)=   1.889726  celldm(2)=   0.000000  celldm(3)=   0.000000
     celldm(4)=   0.000000  celldm(5)=   0.000000  celldm(6)=   0.000000

     crystal axes: (cart. coord. in units of alat)
               a(1) = (  14.762000   0.000000   0.000000 )  
               a(2) = (   0.000000   5.832000   0.000000 )  
               a(3) = (  -1.563876   0.000000   3.723951 )  

     reciprocal axes: (cart. coord. in units 2 pi/alat)
               b(1) = (  0.067741  0.000000  0.028448 )  
               b(2) = (  0.000000  0.171468  0.000000 )  
               b(3) = (  0.000000  0.000000  0.268532 )  


     PseudoPot. # 1 for  C read from file:
     /global/cscratch1/sd/almno10/.data/PSEUDOPOTENTIALS/C.pbe-n-kjpaw_psl.1.0.0.UPF
     MD5 check sum: 2ba8448e293caca687844dde9a1b88a8
     Pseudo is Projector augmented-wave + core cor, Zval =  4.0
     Generated using "atomic" code by A. Dal Corso  v.5.3.0 svn rev. 11974
     Shape of augmentation charge: PSQ
     Using radial grid of 1073 points,  4 beta functions with: 
                l(1) =   0
                l(2) =   0
                l(3) =   1
                l(4) =   1
     Q(r) pseudized with 0 coefficients 


     PseudoPot. # 2 for Cl read from file:
     /global/cscratch1/sd/almno10/.data/PSEUDOPOTENTIALS/Cl.pbe-n-kjpaw_psl.1.0.0.UPF
     MD5 check sum: dca63699d6b897c5771335df08a09219
     Pseudo is Projector augmented-wave + core cor, Zval =  7.0
     Generated using "atomic" code by A. Dal Corso  v.5.3.0 svn rev. 11974
     Shape of augmentation charge: PSQ
     Using radial grid of 1157 points,  6 beta functions with: 
                l(1) =   0
                l(2) =   0
                l(3) =   1
                l(4) =   1
                l(5) =   2
                l(6) =   2
     Q(r) pseudized with 0 coefficients 


     PseudoPot. # 3 for  H read from file:
     /global/cscratch1/sd/almno10/.data/PSEUDOPOTENTIALS/H.pbe-kjpaw_psl.1.0.0.UPF
     MD5 check sum: bc0feb48a24907a0b97fa6ee2d589a29
     Pseudo is Projector augmented-wave, Zval =  1.0
     Generated using "atomic" code by A. Dal Corso  v.5.3.0 svn rev. 11974
     Shape of augmentation charge: PSQ
     Using radial grid of  929 points,  2 beta functions with: 
                l(1) =   0
                l(2) =   0
     Q(r) pseudized with 0 coefficients 


     atomic species   valence    mass     pseudopotential
        C              4.00    12.01100      C( 1.00)
        Cl             7.00    35.45270     Cl( 1.00)
        H              1.00     1.00790      H( 1.00)

     No symmetry found


                                    s                        frac. trans.

      isym =  1     identity                                     

 cryst.   s( 1) = (     1          0          0      )
                  (     0          1          0      )
                  (     0          0          1      )

 cart.    s( 1) = (  1.0000000  0.0000000 -0.0000000 )
                  (  0.0000000  1.0000000  0.0000000 )
                  (  0.0000000  0.0000000  1.0000000 )


   Cartesian axes

     site n.     atom                  positions (alat units)
         1           Cl  tau(   1) = (  16.4201203   0.7670265   1.9197263  )
         2           C   tau(   2) = (  15.1285533   1.8936165   1.9316110  )
         3           C   tau(   3) = (  15.1618846   3.0877304   2.6509172  )
         4           H   tau(   4) = (  16.0444500   3.4435546   3.1796710  )
         5           C   tau(   5) = (  14.0142655   3.8770075   2.6003692  )
         6           H   tau(   6) = (  13.9789436   4.8178490   3.1466980  )
         7           H   tau(   7) = (   6.4563750   2.4639018   0.8031623  )
         8           C   tau(   8) = (   6.5104923   1.4829511   1.2698850  )
         9           H   tau(   9) = (   4.3924635   1.1152024   1.0955895  )
        10           C   tau(  10) = (   5.3574018   0.7068530   1.3917053  )
        11           C   tau(  11) = (   5.4686799  -0.5483392   1.9891012  )
        12           Cl  tau(  12) = (   4.0320417  -1.5749791   2.1863899  )
        13           H   tau(  13) = (  13.9573701   0.4778505   0.8278389  )
        14           C   tau(  14) = (  13.9528796   1.4414695   1.3339935  )
        15           H   tau(  15) = (  11.9064584   1.8759562   0.8147337  )
        16           C   tau(  16) = (  12.8127097   2.2443127   1.2895574  )
        17           C   tau(  17) = (  12.8611520   3.4560151   1.9392290  )
        18           Cl  tau(  18) = (  11.5752136   4.5994514   1.7553382  )
        19           H   tau(  19) = (   6.7741359  -2.0638222   2.7908058  )
        20           C   tau(  20) = (   6.7086419  -1.0597577   2.3743532  )
        21           H   tau(  21) = (   8.8323958  -0.7178466   2.4738981  )
        22           C   tau(  22) = (   7.8691070  -0.3173919   2.1677302  )
        23           C   tau(  23) = (   7.7497792   0.9660004   1.6405906  )
        24           Cl  tau(  24) = (   9.0892052   2.1376068   1.4999934  )

   Crystallographic axes

     site n.     atom                  positions (cryst. coord.)
         1           Cl  tau(   1) = (  1.1669361  0.1315203  0.5155079  )
         2           C   tau(   2) = (  1.0797815  0.3246942  0.5186993  )
         3           C   tau(   3) = (  1.1025023  0.5294462  0.7118560  )
         4           H   tau(   4) = (  1.1773306  0.5904586  0.8538433  )
         5           C   tau(   5) = (  1.0233229  0.6647818  0.6982823  )
         6           H   tau(   6) = (  1.0364721  0.8261058  0.8449890  )
         7           H   tau(   7) = (  0.4602129  0.4224797  0.2156748  )
         8           C   tau(   8) = (  0.4771563  0.2542783  0.3410047  )
         9           H   tau(   9) = (  0.3287195  0.1912213  0.2942008  )
        10           C   tau(  10) = (  0.4025098  0.1212025  0.3737174  )
        11           C   tau(  11) = (  0.4270427 -0.0940225  0.5341373  )
        12           Cl  tau(  12) = (  0.3353351 -0.2700581  0.5871156  )
        13           H   tau(  13) = (  0.9690436  0.0819360  0.2223012  )
        14           C   tau(  14) = (  0.9831385  0.2471655  0.3582199  )
        15           H   tau(  15) = (  0.8297389  0.3216660  0.2187821  )
        16           C   tau(  16) = (  0.9046376  0.3848273  0.3462874  )
        17           C   tau(  17) = (  0.9264011  0.5925952  0.5207450  )
        18           Cl  tau(  18) = (  0.8340583  0.7886576  0.4713644  )
        19           H   tau(  19) = (  0.5382832 -0.3538790  0.7494206  )
        20           C   tau(  20) = (  0.5219993 -0.1817143  0.6375897  )
        21           H   tau(  21) = (  0.6686974 -0.1230875  0.6643207  )
        22           C   tau(  22) = (  0.5947329 -0.0544225  0.5821049  )
        23           C   tau(  23) = (  0.5716533  0.1656379  0.4405510  )
        24           Cl  tau(  24) = (  0.6583883  0.3665307  0.4027962  )

     number of k points=    16
                       cart. coord. in units 2pi/alat
        k(    1) = (   0.0169354   0.0214335   0.0406785), wk =   0.1250000
        k(    2) = (   0.0169354   0.0214335   0.1078115), wk =   0.1250000
        k(    3) = (   0.0169354   0.0214335  -0.0935875), wk =   0.1250000
        k(    4) = (   0.0169354   0.0214335  -0.0264545), wk =   0.1250000
        k(    5) = (   0.0169354   0.0643004   0.0406785), wk =   0.1250000
        k(    6) = (   0.0169354   0.0643004   0.1078115), wk =   0.1250000
        k(    7) = (   0.0169354   0.0643004  -0.0935875), wk =   0.1250000
        k(    8) = (   0.0169354   0.0643004  -0.0264545), wk =   0.1250000
        k(    9) = (  -0.0169354   0.0214335  -0.0406785), wk =   0.1250000
        k(   10) = (  -0.0169354   0.0214335  -0.1078115), wk =   0.1250000
        k(   11) = (  -0.0169354   0.0214335   0.0935875), wk =   0.1250000
        k(   12) = (  -0.0169354   0.0214335   0.0264545), wk =   0.1250000
        k(   13) = (  -0.0169354   0.0643004  -0.0406785), wk =   0.1250000
        k(   14) = (  -0.0169354   0.0643004  -0.1078115), wk =   0.1250000
        k(   15) = (  -0.0169354   0.0643004   0.0935875), wk =   0.1250000
        k(   16) = (  -0.0169354   0.0643004   0.0264545), wk =   0.1250000

                       cryst. coord.
        k(    1) = (   0.2500000   0.1250000   0.1250000), wk =   0.1250000
        k(    2) = (   0.2500000   0.1250000   0.3750000), wk =   0.1250000
        k(    3) = (   0.2500000   0.1250000  -0.3750000), wk =   0.1250000
        k(    4) = (   0.2500000   0.1250000  -0.1250000), wk =   0.1250000
        k(    5) = (   0.2500000   0.3750000   0.1250000), wk =   0.1250000
        k(    6) = (   0.2500000   0.3750000   0.3750000), wk =   0.1250000
        k(    7) = (   0.2500000   0.3750000  -0.3750000), wk =   0.1250000
        k(    8) = (   0.2500000   0.3750000  -0.1250000), wk =   0.1250000
        k(    9) = (  -0.2500000   0.1250000  -0.1250000), wk =   0.1250000
        k(   10) = (  -0.2500000   0.1250000  -0.3750000), wk =   0.1250000
        k(   11) = (  -0.2500000   0.1250000   0.3750000), wk =   0.1250000
        k(   12) = (  -0.2500000   0.1250000   0.1250000), wk =   0.1250000
        k(   13) = (  -0.2500000   0.3750000  -0.1250000), wk =   0.1250000
        k(   14) = (  -0.2500000   0.3750000  -0.3750000), wk =   0.1250000
        k(   15) = (  -0.2500000   0.3750000   0.3750000), wk =   0.1250000
        k(   16) = (  -0.2500000   0.3750000   0.1250000), wk =   0.1250000

     Dense  grid:  1155489 G-vectors     FFT dimensions: ( 288, 120,  80)

     Smooth grid:   292295 G-vectors     FFT dimensions: ( 180,  72,  50)

     Estimated max dynamical RAM per process >     147.21MB

     Estimated total allocated dynamical RAM >    4710.62MB

     Initial potential from superposition of free atoms

     starting charge   83.99939, renormalised to   84.00000
     Starting wfc are   72 randomized atomic wfcs
     Checking if some PAW data can be deallocated... 
       node    0, deallocated PAW data for type:  1
       node    0, deallocated PAW data for type:  3
       node    1, deallocated PAW data for type:  1
       node    1, deallocated PAW data for type:  3
       node    2, deallocated PAW data for type:  2
       node    2, deallocated PAW data for type:  3
       node    3, deallocated PAW data for type:  2
       node    3, deallocated PAW data for type:  3
       node    4, deallocated PAW data for type:  2
       node    4, deallocated PAW data for type:  3
       node    5, deallocated PAW data for type:  2
       node    5, deallocated PAW data for type:  3
       node    6, deallocated PAW data for type:  1
       node    6, deallocated PAW data for type:  2
       node    7, deallocated PAW data for type:  1
       node    7, deallocated PAW data for type:  2
       node    8, deallocated PAW data for type:  2
       node    8, deallocated PAW data for type:  3
       node    9, deallocated PAW data for type:  2
       node    9, deallocated PAW data for type:  3
       node   10, deallocated PAW data for type:  1
       node   10, deallocated PAW data for type:  2
       node   11, deallocated PAW data for type:  1
       node   11, deallocated PAW data for type:  2
       node   12, deallocated PAW data for type:  1
       node   12, deallocated PAW data for type:  2
       node   13, deallocated PAW data for type:  1
       node   13, deallocated PAW data for type:  2
       node   14, deallocated PAW data for type:  2
       node   14, deallocated PAW data for type:  3
       node   15, deallocated PAW data for type:  2
       node   15, deallocated PAW data for type:  3
       node   16, deallocated PAW data for type:  1
       node   16, deallocated PAW data for type:  2
       node   17, deallocated PAW data for type:  2
       node   17, deallocated PAW data for type:  3
       node   18, deallocated PAW data for type:  2
       node   18, deallocated PAW data for type:  3
       node   19, deallocated PAW data for type:  1
       node   19, deallocated PAW data for type:  3
       node   20, deallocated PAW data for type:  1
       node   20, deallocated PAW data for type:  2
       node   21, deallocated PAW data for type:  2
       node   21, deallocated PAW data for type:  3
       node   22, deallocated PAW data for type:  1
       node   22, deallocated PAW data for type:  2
       node   23, deallocated PAW data for type:  2
       node   23, deallocated PAW data for type:  3
       node   24, deallocated PAW data for type:  2
       node   24, deallocated PAW data for type:  3
       node   25, deallocated PAW data for type:  1
       node   25, deallocated PAW data for type:  3
       node   26, deallocated PAW data for type:  1
       node   26, deallocated PAW data for type:  2
       node   27, deallocated PAW data for type:  2
       node   27, deallocated PAW data for type:  3
       node   28, deallocated PAW data for type:  1
       node   28, deallocated PAW data for type:  2
       node   29, deallocated PAW data for type:  2
       node   29, deallocated PAW data for type:  3
       node   30, deallocated PAW data for type:  2
       node   30, deallocated PAW data for type:  3
       node   31, deallocated PAW data for type:  1
       node   31, deallocated PAW data for type:  3

     total cpu time spent up to now is        5.2 secs

     per-process dynamical memory:    20.7 Mb

     Self-consistent Calculation

     iteration #  1     ecut=   100.00 Ry     beta= 0.70
     Davidson diagonalization with overlap
     ethr =  1.00E-04,  avg # of iterations =  5.0

     total cpu time spent up to now is       11.8 secs

     total energy              =    -547.13496784 Ry
     Harris-Foulkes estimate   =    -549.00167900 Ry
     estimated scf accuracy    <       2.73331333 Ry

     iteration #  2     ecut=   100.00 Ry     beta= 0.70
     Davidson diagonalization with overlap
     ethr =  3.25E-03,  avg # of iterations =  3.0

     total cpu time spent up to now is       16.6 secs

     total energy              =    -547.53974588 Ry
     Harris-Foulkes estimate   =    -548.60984508 Ry
     estimated scf accuracy    <       1.92889118 Ry

     iteration #  3     ecut=   100.00 Ry     beta= 0.70
     Davidson diagonalization with overlap
     ethr =  2.30E-03,  avg # of iterations =  2.9

     total cpu time spent up to now is       20.9 secs

     total energy              =    -548.02056706 Ry
     Harris-Foulkes estimate   =    -548.06118417 Ry
     estimated scf accuracy    <       0.08197654 Ry

     iteration #  4     ecut=   100.00 Ry     beta= 0.70
     Davidson diagonalization with overlap
     ethr =  9.76E-05,  avg # of iterations =  3.8

     total cpu time spent up to now is       25.6 secs

     total energy              =    -548.04730499 Ry
     Harris-Foulkes estimate   =    -548.05718480 Ry
     estimated scf accuracy    <       0.01950196 Ry

     iteration #  5     ecut=   100.00 Ry     beta= 0.70
     Davidson diagonalization with overlap
     ethr =  2.32E-05,  avg # of iterations =  3.0

     total cpu time spent up to now is       29.9 secs

     total energy              =    -548.05132050 Ry
     Harris-Foulkes estimate   =    -548.05171307 Ry
     estimated scf accuracy    <       0.00083384 Ry

     iteration #  6     ecut=   100.00 Ry     beta= 0.70
     Davidson diagonalization with overlap
     ethr =  9.93E-07,  avg # of iterations =  4.0

     total cpu time spent up to now is       34.7 secs

     total energy              =    -548.05152720 Ry
     Harris-Foulkes estimate   =    -548.05167566 Ry
     estimated scf accuracy    <       0.00029084 Ry

     iteration #  7     ecut=   100.00 Ry     beta= 0.70
     Davidson diagonalization with overlap
     ethr =  3.46E-07,  avg # of iterations =  4.0

     total cpu time spent up to now is       39.2 secs

     total energy              =    -548.05159072 Ry
     Harris-Foulkes estimate   =    -548.05165434 Ry
     estimated scf accuracy    <       0.00017364 Ry

     iteration #  8     ecut=   100.00 Ry     beta= 0.70
     Davidson diagonalization with overlap
     ethr =  2.07E-07,  avg # of iterations =  4.0

     total cpu time spent up to now is       43.4 secs

     total energy              =    -548.05162325 Ry
     Harris-Foulkes estimate   =    -548.05162664 Ry
     estimated scf accuracy    <       0.00000869 Ry

     iteration #  9     ecut=   100.00 Ry     beta= 0.70
     Davidson diagonalization with overlap
     ethr =  1.03E-08,  avg # of iterations =  4.0

     total cpu time spent up to now is       48.0 secs

     total energy              =    -548.05162510 Ry
     Harris-Foulkes estimate   =    -548.05162589 Ry
     estimated scf accuracy    <       0.00000171 Ry

     iteration # 10     ecut=   100.00 Ry     beta= 0.70
     Davidson diagonalization with overlap
     ethr =  2.03E-09,  avg # of iterations =  4.0

     total cpu time spent up to now is       52.5 secs

     total energy              =    -548.05162550 Ry
     Harris-Foulkes estimate   =    -548.05162561 Ry
     estimated scf accuracy    <       0.00000027 Ry

     iteration # 11     ecut=   100.00 Ry     beta= 0.70
     Davidson diagonalization with overlap
     ethr =  3.21E-10,  avg # of iterations =  4.0

     total cpu time spent up to now is       57.1 secs

     End of self-consistent calculation

          k = 0.0169 0.0214 0.0407 ( 36525 PWs)   bands (ev):

   -16.1525 -15.9636 -15.5192 -15.1877 -13.9551 -13.8940 -12.3693 -12.3218
   -11.3032 -11.1847  -9.0139  -8.9871  -8.2941  -8.1589  -6.3621  -6.2779
    -5.3454  -5.3245  -5.0657  -4.7674  -4.2647  -4.0911  -3.9363  -3.8825
    -3.2581  -3.1372  -2.7340  -2.6128  -2.4293  -2.3873  -2.2274  -2.0959
    -1.1716  -1.0883  -1.0332  -1.0027  -0.9277  -0.7757   0.0447   0.0805
     0.4775   0.7767

     occupation numbers 
     1.0000   1.0000   1.0000   1.0000   1.0000   1.0000   1.0000   1.0000
     1.0000   1.0000   1.0000   1.0000   1.0000   1.0000   1.0000   1.0000
     1.0000   1.0000   1.0000   1.0000   1.0000   1.0000   1.0000   1.0000
     1.0000   1.0000   1.0000   1.0000   1.0000   1.0000   1.0000   1.0000
     1.0000   1.0000   1.0000   1.0000   1.0000   1.0000   1.0000   1.0000
     1.0000   1.0000

          k = 0.0169 0.0214 0.1078 ( 36561 PWs)   bands (ev):

   -16.0825 -15.8727 -15.4799 -15.1462 -13.9372 -13.8834 -12.3204 -12.2991
   -11.3309 -11.1781  -8.9880  -8.9501  -8.2324  -8.1401  -6.3447  -6.3164
    -5.3460  -5.3216  -5.0757  -4.8767  -4.2977  -4.1164  -4.0851  -4.0301
    -3.7579  -3.6923  -2.8210  -2.7316  -2.5976  -2.4755  -2.3824  -2.3008
    -1.3016  -1.1706  -1.0735  -1.0087  -0.9274  -0.8517  -0.3811  -0.1618
     0.7040   0.7486

     occupation numbers 
     1.0000   1.0000   1.0000   1.0000   1.0000   1.0000   1.0000   1.0000
     1.0000   1.0000   1.0000   1.0000   1.0000   1.0000   1.0000   1.0000
     1.0000   1.0000   1.0000   1.0000   1.0000   1.0000   1.0000   1.0000
     1.0000   1.0000   1.0000   1.0000   1.0000   1.0000   1.0000   1.0000
     1.0000   1.0000   1.0000   1.0000   1.0000   1.0000   1.0000   1.0000
     1.0000   1.0000

          k = 0.0169 0.0214-0.0936 ( 36547 PWs)   bands (ev):

   -16.0865 -15.8657 -15.4794 -15.1501 -13.9322 -13.8917 -12.3246 -12.2929
   -11.3199 -11.1819  -8.9809  -8.9621  -8.2239  -8.1430  -6.3928  -6.2936
    -5.3480  -5.3232  -5.0904  -4.8642  -4.3061  -4.1398  -4.0510  -4.0091
    -3.7407  -3.6910  -2.7806  -2.7063  -2.5936  -2.5202  -2.3898  -2.3571
    -1.2660  -1.1935  -1.0735  -1.0077  -0.9309  -0.8496  -0.3108  -0.2085
     0.6954   0.7549

     occupation numbers 
     1.0000   1.0000   1.0000   1.0000   1.0000   1.0000   1.0000   1.0000
     1.0000   1.0000   1.0000   1.0000   1.0000   1.0000   1.0000   1.0000
     1.0000   1.0000   1.0000   1.0000   1.0000   1.0000   1.0000   1.0000
     1.0000   1.0000   1.0000   1.0000   1.0000   1.0000   1.0000   1.0000
     1.0000   1.0000   1.0000   1.0000   1.0000   1.0000   1.0000   1.0000
     1.0000   1.0000

          k = 0.0169 0.0214-0.0265 ( 36551 PWs)   bands (ev):

   -16.1564 -15.9569 -15.5195 -15.1906 -13.9495 -13.9029 -12.3737 -12.3155
   -11.2930 -11.1876  -9.0244  -8.9826  -8.2915  -8.1535  -6.4039  -6.2595
    -5.3531  -5.3252  -5.0915  -4.7286  -4.3058  -4.0576  -3.9923  -3.7711
    -3.2550  -3.1331  -2.7691  -2.5635  -2.4739  -2.3890  -2.2740  -2.0840
    -1.1615  -1.0875  -1.0217  -0.9887  -0.9189  -0.7953   0.0404   0.0994
     0.4687   0.7837

     occupation numbers 
     1.0000   1.0000   1.0000   1.0000   1.0000   1.0000   1.0000   1.0000
     1.0000   1.0000   1.0000   1.0000   1.0000   1.0000   1.0000   1.0000
     1.0000   1.0000   1.0000   1.0000   1.0000   1.0000   1.0000   1.0000
     1.0000   1.0000   1.0000   1.0000   1.0000   1.0000   1.0000   1.0000
     1.0000   1.0000   1.0000   1.0000   1.0000   1.0000   1.0000   1.0000
     1.0000   1.0000

          k = 0.0169 0.0643 0.0407 ( 36518 PWs)   bands (ev):

   -16.1182 -15.9243 -15.5296 -15.2010 -13.9944 -13.9337 -12.4344 -12.3721
   -11.3225 -11.1922  -8.8999  -8.8769  -8.1564  -8.0441  -6.3812  -6.3172
    -5.3067  -5.2641  -5.0815  -4.9290  -4.3853  -4.2818  -4.1321  -3.9981
    -3.3212  -3.1584  -2.5982  -2.5487  -2.4108  -2.3154  -2.2236  -2.0542
    -1.0959  -1.0060  -0.9595  -0.8907  -0.8260  -0.8027   0.0915   0.1130
     0.5187   0.8033

     occupation numbers 
     1.0000   1.0000   1.0000   1.0000   1.0000   1.0000   1.0000   1.0000
     1.0000   1.0000   1.0000   1.0000   1.0000   1.0000   1.0000   1.0000
     1.0000   1.0000   1.0000   1.0000   1.0000   1.0000   1.0000   1.0000
     1.0000   1.0000   1.0000   1.0000   1.0000   1.0000   1.0000   1.0000
     1.0000   1.0000   1.0000   1.0000   1.0000   1.0000   1.0000   1.0000
     1.0000   1.0000

          k = 0.0169 0.0643 0.1078 ( 36558 PWs)   bands (ev):

   -16.0570 -15.8458 -15.4853 -15.1482 -13.9609 -13.9111 -12.3723 -12.3319
   -11.3680 -11.1942  -8.9013  -8.8973  -8.1741  -8.0799  -6.3512  -6.2962
    -5.3140  -5.2737  -4.9919  -4.8608  -4.3517  -4.2695  -4.1473  -4.0232
    -3.8956  -3.8246  -2.7522  -2.7199  -2.5786  -2.4537  -2.3735  -2.2410
    -1.2791  -1.1485  -1.1064  -1.0096  -0.8955  -0.8441  -0.2544  -0.0703
     0.7180   0.7770

     occupation numbers 
     1.0000   1.0000   1.0000   1.0000   1.0000   1.0000   1.0000   1.0000
     1.0000   1.0000   1.0000   1.0000   1.0000   1.0000   1.0000   1.0000
     1.0000   1.0000   1.0000   1.0000   1.0000   1.0000   1.0000   1.0000
     1.0000   1.0000   1.0000   1.0000   1.0000   1.0000   1.0000   1.0000
     1.0000   1.0000   1.0000   1.0000   1.0000   1.0000   1.0000   1.0000
     1.0000   1.0000

          k = 0.0169 0.0643-0.0936 ( 36547 PWs)   bands (ev):

   -16.0608 -15.8393 -15.4833 -15.1533 -13.9598 -13.9156 -12.3760 -12.3252
   -11.3591 -11.1978  -8.9253  -8.8762  -8.1460  -8.1015  -6.3657  -6.3175
    -5.3151  -5.2760  -4.9764  -4.8645  -4.3813  -4.2673  -4.1528  -3.9847
    -3.8499  -3.8232  -2.8086  -2.6613  -2.5948  -2.5123  -2.3147  -2.2679
    -1.2170  -1.1655  -1.1091  -1.0488  -0.8878  -0.8539  -0.2030  -0.1130
     0.7322   0.7716

     occupation numbers 
     1.0000   1.0000   1.0000   1.0000   1.0000   1.0000   1.0000   1.0000
     1.0000   1.0000   1.0000   1.0000   1.0000   1.0000   1.0000   1.0000
     1.0000   1.0000   1.0000   1.0000   1.0000   1.0000   1.0000   1.0000
     1.0000   1.0000   1.0000   1.0000   1.0000   1.0000   1.0000   1.0000
     1.0000   1.0000   1.0000   1.0000   1.0000   1.0000   1.0000   1.0000
     1.0000   1.0000

          k = 0.0169 0.0643-0.0265 ( 36489 PWs)   bands (ev):

   -16.1219 -15.9184 -15.5279 -15.2053 -13.9930 -13.9384 -12.4380 -12.3652
   -11.3144 -11.1958  -8.9203  -8.8589  -8.1284  -8.0645  -6.4093  -6.3307
    -5.3014  -5.2693  -5.0521  -4.9396  -4.4025  -4.2504  -4.1389  -3.9861
    -3.2909  -3.1886  -2.6082  -2.5078  -2.4201  -2.3564  -2.2027  -2.0634
    -1.0821  -1.0174  -0.9642  -0.8953  -0.8461  -0.7762   0.0791   0.1472
     0.5136   0.8035

     occupation numbers 
     1.0000   1.0000   1.0000   1.0000   1.0000   1.0000   1.0000   1.0000
     1.0000   1.0000   1.0000   1.0000   1.0000   1.0000   1.0000   1.0000
     1.0000   1.0000   1.0000   1.0000   1.0000   1.0000   1.0000   1.0000
     1.0000   1.0000   1.0000   1.0000   1.0000   1.0000   1.0000   1.0000
     1.0000   1.0000   1.0000   1.0000   1.0000   1.0000   1.0000   1.0000
     1.0000   1.0000

          k =-0.0169 0.0214-0.0407 ( 36525 PWs)   bands (ev):

   -16.1554 -15.9593 -15.5164 -15.1923 -13.9514 -13.9010 -12.3726 -12.3158
   -11.2935 -11.1884  -9.0174  -8.9865  -8.2670  -8.1848  -6.3755  -6.2893
    -5.3529  -5.3169  -5.0331  -4.8010  -4.2842  -4.0791  -3.9922  -3.7819
    -3.2354  -3.1367  -2.7452  -2.6096  -2.4539  -2.3820  -2.2646  -2.0811
    -1.1469  -1.0910  -1.0694  -0.9680  -0.9073  -0.8064   0.0434   0.1026
     0.4676   0.7823

     occupation numbers 
     1.0000   1.0000   1.0000   1.0000   1.0000   1.0000   1.0000   1.0000
     1.0000   1.0000   1.0000   1.0000   1.0000   1.0000   1.0000   1.0000
     1.0000   1.0000   1.0000   1.0000   1.0000   1.0000   1.0000   1.0000
     1.0000   1.0000   1.0000   1.0000   1.0000   1.0000   1.0000   1.0000
     1.0000   1.0000   1.0000   1.0000   1.0000   1.0000   1.0000   1.0000
     1.0000   1.0000

          k =-0.0169 0.0214-0.1078 ( 36561 PWs)   bands (ev):

   -16.0860 -15.8672 -15.4773 -15.1514 -13.9348 -13.8890 -12.3245 -12.2927
   -11.3212 -11.1813  -8.9756  -8.9657  -8.2016  -8.1687  -6.3709  -6.3153
    -5.3542  -5.3114  -5.0582  -4.9082  -4.2950  -4.1500  -4.0586  -3.9886
    -3.7460  -3.6862  -2.7987  -2.7473  -2.5648  -2.5189  -2.4034  -2.3085
    -1.3098  -1.1602  -1.0883  -0.9875  -0.9124  -0.8674  -0.3315  -0.1960
     0.6990   0.7539

     occupation numbers 
     1.0000   1.0000   1.0000   1.0000   1.0000   1.0000   1.0000   1.0000
     1.0000   1.0000   1.0000   1.0000   1.0000   1.0000   1.0000   1.0000
     1.0000   1.0000   1.0000   1.0000   1.0000   1.0000   1.0000   1.0000
     1.0000   1.0000   1.0000   1.0000   1.0000   1.0000   1.0000   1.0000
     1.0000   1.0000   1.0000   1.0000   1.0000   1.0000   1.0000   1.0000
     1.0000   1.0000

          k =-0.0169 0.0214 0.0936 ( 36547 PWs)   bands (ev):

   -16.0830 -15.8715 -15.4814 -15.1455 -13.9337 -13.8868 -12.3201 -12.2997
   -11.3302 -11.1782  -8.9896  -8.9499  -8.2409  -8.1286  -6.3787  -6.2841
    -5.3478  -5.3159  -5.1081  -4.8369  -4.3045  -4.1333  -4.0644  -4.0434
    -3.7465  -3.7122  -2.7585  -2.6953  -2.6060  -2.5020  -2.4265  -2.3228
    -1.2596  -1.2061  -1.0588  -1.0157  -0.9536  -0.8262  -0.3757  -0.1626
     0.6940   0.7566

     occupation numbers 
     1.0000   1.0000   1.0000   1.0000   1.0000   1.0000   1.0000   1.0000
     1.0000   1.0000   1.0000   1.0000   1.0000   1.0000   1.0000   1.0000
     1.0000   1.0000   1.0000   1.0000   1.0000   1.0000   1.0000   1.0000
     1.0000   1.0000   1.0000   1.0000   1.0000   1.0000   1.0000   1.0000
     1.0000   1.0000   1.0000   1.0000   1.0000   1.0000   1.0000   1.0000
     1.0000   1.0000

          k =-0.0169 0.0214 0.0265 ( 36551 PWs)   bands (ev):

   -16.1532 -15.9622 -15.5206 -15.1872 -13.9533 -13.8956 -12.3692 -12.3226
   -11.3022 -11.1849  -9.0202  -8.9830  -8.3021  -8.1454  -6.4010  -6.2411
    -5.3480  -5.3240  -5.0931  -4.7206  -4.3224  -4.0437  -3.9440  -3.8671
    -3.2594  -3.1449  -2.7689  -2.5750  -2.4472  -2.3403  -2.2672  -2.1075
    -1.1855  -1.0885  -1.0074  -0.9878  -0.9334  -0.7821   0.0446   0.0788
     0.4762   0.7782

     occupation numbers 
     1.0000   1.0000   1.0000   1.0000   1.0000   1.0000   1.0000   1.0000
     1.0000   1.0000   1.0000   1.0000   1.0000   1.0000   1.0000   1.0000
     1.0000   1.0000   1.0000   1.0000   1.0000   1.0000   1.0000   1.0000
     1.0000   1.0000   1.0000   1.0000   1.0000   1.0000   1.0000   1.0000
     1.0000   1.0000   1.0000   1.0000   1.0000   1.0000   1.0000   1.0000
     1.0000   1.0000

          k =-0.0169 0.0643-0.0407 ( 36518 PWs)   bands (ev):

   -16.1214 -15.9194 -15.5264 -15.2064 -13.9912 -13.9400 -12.4375 -12.3665
   -11.3132 -11.1959  -8.9197  -8.8599  -8.1174  -8.0795  -6.3957  -6.3297
    -5.3033  -5.2668  -5.0433  -4.9793  -4.3938  -4.2839  -4.1070  -3.9646
    -3.2899  -3.1878  -2.6013  -2.5286  -2.4247  -2.3544  -2.2052  -2.0632
    -1.0549  -1.0140  -0.9512  -0.9019  -0.8515  -0.7989   0.0771   0.1451
     0.5153   0.8049

     occupation numbers 
     1.0000   1.0000   1.0000   1.0000   1.0000   1.0000   1.0000   1.0000
     1.0000   1.0000   1.0000   1.0000   1.0000   1.0000   1.0000   1.0000
     1.0000   1.0000   1.0000   1.0000   1.0000   1.0000   1.0000   1.0000
     1.0000   1.0000   1.0000   1.0000   1.0000   1.0000   1.0000   1.0000
     1.0000   1.0000   1.0000   1.0000   1.0000   1.0000   1.0000   1.0000
     1.0000   1.0000

          k =-0.0169 0.0643-0.1078 ( 36558 PWs)   bands (ev):

   -16.0607 -15.8398 -15.4824 -15.1540 -13.9574 -13.9178 -12.3760 -12.3255
   -11.3588 -11.1975  -8.9254  -8.8766  -8.1411  -8.1085  -6.3587  -6.3153
    -5.3174  -5.2684  -4.9674  -4.9105  -4.3538  -4.2534  -4.1693  -3.9820
    -3.8704  -3.8154  -2.7630  -2.6796  -2.5759  -2.4665  -2.3557  -2.3172
    -1.2783  -1.1354  -1.0956  -1.0226  -0.8910  -0.8478  -0.2060  -0.1056
     0.7186   0.7774

     occupation numbers 
     1.0000   1.0000   1.0000   1.0000   1.0000   1.0000   1.0000   1.0000
     1.0000   1.0000   1.0000   1.0000   1.0000   1.0000   1.0000   1.0000
     1.0000   1.0000   1.0000   1.0000   1.0000   1.0000   1.0000   1.0000
     1.0000   1.0000   1.0000   1.0000   1.0000   1.0000   1.0000   1.0000
     1.0000   1.0000   1.0000   1.0000   1.0000   1.0000   1.0000   1.0000
     1.0000   1.0000

          k =-0.0169 0.0643 0.0936 ( 36547 PWs)   bands (ev):

   -16.0571 -15.8456 -15.4855 -15.1481 -13.9619 -13.9102 -12.3720 -12.3318
   -11.3687 -11.1943  -8.9064  -8.8911  -8.1727  -8.0800  -6.3748  -6.2829
    -5.3179  -5.2677  -4.9785  -4.8407  -4.3882  -4.2650  -4.1539  -4.0224
    -3.8769  -3.8281  -2.7704  -2.7211  -2.5644  -2.5212  -2.3143  -2.2267
    -1.2235  -1.1935  -1.1236  -1.0148  -0.8934  -0.8419  -0.2559  -0.0728
     0.7302   0.7723

     occupation numbers 
     1.0000   1.0000   1.0000   1.0000   1.0000   1.0000   1.0000   1.0000
     1.0000   1.0000   1.0000   1.0000   1.0000   1.0000   1.0000   1.0000
     1.0000   1.0000   1.0000   1.0000   1.0000   1.0000   1.0000   1.0000
     1.0000   1.0000   1.0000   1.0000   1.0000   1.0000   1.0000   1.0000
     1.0000   1.0000   1.0000   1.0000   1.0000   1.0000   1.0000   1.0000
     1.0000   1.0000

          k =-0.0169 0.0643 0.0265 ( 36489 PWs)   bands (ev):

   -16.1182 -15.9244 -15.5293 -15.2012 -13.9962 -13.9322 -12.4335 -12.3722
   -11.3231 -11.1933  -8.9049  -8.8695  -8.1510  -8.0478  -6.4131  -6.3028
    -5.3059  -5.2597  -5.0442  -4.9241  -4.4132  -4.2623  -4.1479  -4.0215
    -3.3149  -3.1627  -2.5996  -2.5117  -2.3950  -2.3641  -2.2029  -2.0578
    -1.1311  -1.0181  -0.9320  -0.8795  -0.8528  -0.7751   0.0954   0.1142
     0.5182   0.7999

     occupation numbers 
     1.0000   1.0000   1.0000   1.0000   1.0000   1.0000   1.0000   1.0000
     1.0000   1.0000   1.0000   1.0000   1.0000   1.0000   1.0000   1.0000
     1.0000   1.0000   1.0000   1.0000   1.0000   1.0000   1.0000   1.0000
     1.0000   1.0000   1.0000   1.0000   1.0000   1.0000   1.0000   1.0000
     1.0000   1.0000   1.0000   1.0000   1.0000   1.0000   1.0000   1.0000
     1.0000   1.0000

     highest occupied level (ev):     0.8049

!    total energy              =    -548.05162555 Ry
     Harris-Foulkes estimate   =    -548.05162557 Ry
     estimated scf accuracy    <       0.00000003 Ry

     total all-electron energy =     -4615.895113 Ry

     The total energy is the sum of the following terms:

     one-electron contribution =    -150.96243284 Ry
     hartree contribution      =     106.83196184 Ry
     xc contribution           =    -104.24514219 Ry
     ewald contribution        =    -143.89231444 Ry
     one-center paw contrib.   =    -255.78369792 Ry
      -> PAW hartree energy AE =      19.44937448 Ry
      -> PAW hartree energy PS =     -19.34434647 Ry
      -> PAW xc energy AE      =     -55.70888390 Ry
      -> PAW xc energy PS      =      10.16073436 Ry
      -> total E_H with PAW    =     106.93698986 Ry
      -> total E_XC with PAW   =    -149.79329173 Ry

     convergence has been achieved in  11 iterations
 writing file ./scratch/scf-790.save/charge-density
 writing file ./scratch/scf-790.save/charge-density
 writing file ./scratch/scf-790.save/charge-density
 writing file ./scratch/scf-790.save/charge-density
 writing file ./scratch/scf-790.save/charge-density
 writing file ./scratch/scf-790.save/charge-density
 writing file ./scratch/scf-790.save/charge-density
 writing file ./scratch/scf-790.save/charge-density
 writing file ./scratch/scf-790.save/charge-density
 writing file ./scratch/scf-790.save/charge-density
 writing file ./scratch/scf-790.save/charge-density
 writing file ./scratch/scf-790.save/charge-density
 writing file ./scratch/scf-790.save/charge-density
 writing file ./scratch/scf-790.save/charge-density
 writing file ./scratch/scf-790.save/charge-density
 writing file ./scratch/scf-790.save/charge-density
 writing file ./scratch/scf-790.save/charge-density
 writing file ./scratch/scf-790.save/charge-density
 writing file ./scratch/scf-790.save/charge-density
 writing file ./scratch/scf-790.save/charge-density
 writing file ./scratch/scf-790.save/charge-density
 writing file ./scratch/scf-790.save/charge-density
 writing file ./scratch/scf-790.save/charge-density
 writing file ./scratch/scf-790.save/charge-density
 writing file ./scratch/scf-790.save/charge-density
 writing file ./scratch/scf-790.save/charge-density
 writing file ./scratch/scf-790.save/charge-density
 writing file ./scratch/scf-790.save/charge-density
 writing file ./scratch/scf-790.save/charge-density
 writing file ./scratch/scf-790.save/charge-density
 writing file ./scratch/scf-790.save/charge-density
 writing file ./scratch/scf-790.save/charge-density

     Forces acting on atoms (cartesian axes, Ry/au):

     atom    1 type  2   force =     0.03342696   -0.00489545    0.00389923
     atom    2 type  1   force =    -0.02627844   -0.01311686    0.01626678
     atom    3 type  1   force =    -0.00858509    0.00466576   -0.01844338
     atom    4 type  3   force =     0.00040276   -0.00448953    0.00060456
     atom    5 type  1   force =    -0.00126800    0.00828665    0.02236522
     atom    6 type  3   force =     0.00574801    0.00313440   -0.00255826
     atom    7 type  3   force =    -0.00300869    0.00145813    0.00282601
     atom    8 type  1   force =    -0.00638398   -0.01027211   -0.01682092
     atom    9 type  3   force =     0.00086505   -0.00388391   -0.00214467
     atom   10 type  1   force =    -0.00072012    0.00195545    0.01586112
     atom   11 type  1   force =    -0.00787047   -0.01225735   -0.00608027
     atom   12 type  2   force =     0.01935157    0.01381332   -0.00358451
     atom   13 type  3   force =    -0.00296499   -0.00024565    0.00126084
     atom   14 type  1   force =    -0.00631531    0.00825305   -0.01961583
     atom   15 type  3   force =    -0.00014678    0.00418993   -0.00491083
     atom   16 type  1   force =     0.00459859   -0.03214868    0.00210614
     atom   17 type  1   force =     0.01834098    0.02552494   -0.00723891
     atom   18 type  2   force =    -0.01865118    0.00451937    0.00530830
     atom   19 type  3   force =     0.00166485    0.00318250    0.00345597
     atom   20 type  1   force =    -0.00784679   -0.00895187   -0.00722129
     atom   21 type  3   force =     0.00165860   -0.00095472   -0.00032137
     atom   22 type  1   force =     0.00944690    0.01606830    0.00891994
     atom   23 type  1   force =     0.00186219    0.03208378    0.00079125
     atom   24 type  2   force =    -0.00732663   -0.03591944    0.00527490
     The non-local contrib.  to forces
     atom    1 type  2   force =    -0.28225876    0.27965687    0.00272594
     atom    2 type  1   force =     0.34525670   -0.31878753    0.03657669
     atom    3 type  1   force =    -0.02484044   -0.02900618   -0.07782392
     atom    4 type  3   force =    -0.06324572   -0.02637163   -0.03836855
     atom    5 type  1   force =    -0.03947530   -0.04371444    0.00259783
     atom    6 type  3   force =     0.00242608   -0.06750740   -0.03976641
     atom    7 type  3   force =     0.00403940   -0.07093768    0.03440611
     atom    8 type  1   force =     0.01938799   -0.06560390   -0.00282320
     atom    9 type  3   force =     0.06982181   -0.02986720    0.02136712
     atom   10 type  1   force =     0.04160538   -0.04970813    0.06314072
     atom   11 type  1   force =    -0.41300797   -0.30504025    0.04962364
     atom   12 type  2   force =     0.32016028    0.22902816   -0.04560514
     atom   13 type  3   force =     0.00004883    0.06934279    0.03667560
     atom   14 type  1   force =     0.02561999    0.05877994   -0.01185608
     atom   15 type  3   force =     0.06578731    0.02729190    0.03423948
     atom   16 type  1   force =     0.03052175    0.00771973    0.05644517
     atom   17 type  1   force =    -0.35449004    0.35992288   -0.05299877
     atom   18 type  2   force =     0.27990015   -0.27078964    0.05334441
     atom   19 type  3   force =    -0.00503444    0.07258354   -0.03010661
     atom   20 type  1   force =    -0.03796509    0.05420354   -0.03676040
     atom   21 type  3   force =    -0.06977604    0.02945271   -0.02245352
     atom   22 type  1   force =    -0.03577234    0.07626987   -0.02534807
     atom   23 type  1   force =     0.39339182    0.32464403   -0.03650250
     atom   24 type  2   force =    -0.28021684   -0.28350053    0.02943535
     The ionic contribution  to forces
     atom    1 type  2   force =     5.29553322   -3.90370630    0.40081584
     atom    2 type  1   force =     2.47444291   -0.87307350   -0.03554454
     atom    3 type  1   force =     4.21376756    1.94671995    2.74229230
     atom    4 type  3   force =     1.97109917    0.81627957    1.21670955
     atom    5 type  1   force =     0.78237767    4.04789011    2.08468976
     atom    6 type  3   force =     0.08239367    1.96254904    1.25678599
     atom    7 type  3   force =    -0.35644969    1.97480824   -1.11062473
     atom    8 type  1   force =    -1.15005264    4.17658552   -1.59560794
     atom    9 type  3   force =    -2.11705435    1.05079835   -0.75469890
     atom   10 type  1   force =    -4.44436228    2.24861398   -1.96095686
     atom   11 type  1   force =    -2.55838796   -1.44927567    0.10843581
     atom   12 type  2   force =    -5.81653690   -4.11645400   -0.24313392
     atom   13 type  3   force =    -0.27200797   -1.99957444   -1.25424065
     atom   14 type  1   force =    -1.31865886   -4.11729377   -2.09269949
     atom   15 type  3   force =    -2.02599435   -0.96332009   -1.16479340
     atom   16 type  1   force =    -4.41628419   -2.22054894   -2.78923493
     atom   17 type  1   force =    -2.73658552    1.34442888    0.00175652
     atom   18 type  2   force =    -5.79233024    4.56575840   -1.17481914
     atom   19 type  3   force =     0.36971386   -1.97703872    1.03918442
     atom   20 type  1   force =     1.31296413   -3.99748492    2.11340566
     atom   21 type  3   force =     2.25868111   -0.87582272    0.82801453
     atom   22 type  1   force =     5.02807675   -2.19739130    1.67920303
     atom   23 type  1   force =     3.24295220    1.19731680    0.15165536
     atom   24 type  2   force =     5.97270269    3.35923553    0.55340576
     The local contribution  to forces
     atom    1 type  2   force =    -4.98973898    3.62996746   -0.39944634
     atom    2 type  1   force =    -2.83667926    1.17164425    0.01540498
     atom    3 type  1   force =    -4.19594434   -1.91279927   -2.68265843
     atom    4 type  3   force =    -1.90744226   -0.79439181   -1.17773123
     atom    5 type  1   force =    -0.74443729   -3.99477871   -2.06408266
     atom    6 type  3   force =    -0.07906954   -1.89190393   -1.21957640
     atom    7 type  3   force =     0.34939476   -1.90240812    1.07904137
     atom    8 type  1   force =     1.12404037   -4.12034851    1.58104185
     atom    9 type  3   force =     2.04811757   -1.02482945    0.73119608
     atom   10 type  1   force =     4.40077300   -2.19702686    1.91366391
     atom   11 type  1   force =     2.95250694    1.73433509   -0.16249474
     atom   12 type  2   force =     5.52971603    3.91128278    0.28320397
     atom   13 type  3   force =     0.26898004    1.92998146    1.21882030
     atom   14 type  1   force =     1.28658620    4.06577615    2.08399457
     atom   15 type  3   force =     1.96006330    0.94021824    1.12564504
     atom   16 type  1   force =     4.38897654    2.17957387    2.73415735
     atom   17 type  1   force =     3.09987162   -1.67004085    0.04354057
     atom   18 type  2   force =     5.50432802   -4.30126987    1.12910616
     atom   19 type  3   force =    -0.36302861    1.90764780   -1.00562874
     atom   20 type  1   force =    -1.28327906    3.93344666   -2.08335328
     atom   21 type  3   force =    -2.18723909    0.84541185   -0.80588051
     atom   22 type  1   force =    -4.98149933    2.13732569   -1.64505670
     atom   23 type  1   force =    -3.62358348   -1.48185206   -0.11558449
     atom   24 type  2   force =    -5.71165221   -3.12458955   -0.57627046
     The core correction contribution to forces
     atom    1 type  2   force =     0.01006703   -0.01088278   -0.00012304
     atom    2 type  1   force =    -0.00927477    0.00709876   -0.00014986
     atom    3 type  1   force =    -0.00151506   -0.00017161   -0.00019758
     atom    4 type  3   force =     0.00000000    0.00000000    0.00000000
     atom    5 type  1   force =     0.00029041   -0.00106580   -0.00082075
     atom    6 type  3   force =     0.00000000    0.00000000    0.00000000
     atom    7 type  3   force =     0.00000000    0.00000000    0.00000000
     atom    8 type  1   force =     0.00018098   -0.00094927    0.00056193
     atom    9 type  3   force =     0.00000000    0.00000000    0.00000000
     atom   10 type  1   force =     0.00124037    0.00001857    0.00002615
     atom   11 type  1   force =     0.01100784    0.00774506   -0.00165851
     atom   12 type  2   force =    -0.01387248   -0.00996254    0.00196055
     atom   13 type  3   force =     0.00000000    0.00000000    0.00000000
     atom   14 type  1   force =     0.00001782    0.00095280    0.00089427
     atom   15 type  3   force =     0.00000000    0.00000000    0.00000000
     atom   16 type  1   force =     0.00131244    0.00106741    0.00069658
     atom   17 type  1   force =     0.00949925   -0.00880813    0.00042744
     atom   18 type  2   force =    -0.01065136    0.01086715   -0.00236738
     atom   19 type  3   force =     0.00000000    0.00000000    0.00000000
     atom   20 type  1   force =     0.00032811    0.00087463   -0.00053160
     atom   21 type  3   force =     0.00000000    0.00000000    0.00000000
     atom   22 type  1   force =    -0.00140651   -0.00013772    0.00010449
     atom   23 type  1   force =    -0.01091694   -0.00801492    0.00120212
     atom   24 type  2   force =     0.01180920    0.01291356   -0.00128881
     The Hubbard contrib.    to forces
     atom    1 type  2   force =     0.00000000    0.00000000    0.00000000
     atom    2 type  1   force =     0.00000000    0.00000000    0.00000000
     atom    3 type  1   force =     0.00000000    0.00000000    0.00000000
     atom    4 type  3   force =     0.00000000    0.00000000    0.00000000
     atom    5 type  1   force =     0.00000000    0.00000000    0.00000000
     atom    6 type  3   force =     0.00000000    0.00000000    0.00000000
     atom    7 type  3   force =     0.00000000    0.00000000    0.00000000
     atom    8 type  1   force =     0.00000000    0.00000000    0.00000000
     atom    9 type  3   force =     0.00000000    0.00000000    0.00000000
     atom   10 type  1   force =     0.00000000    0.00000000    0.00000000
     atom   11 type  1   force =     0.00000000    0.00000000    0.00000000
     atom   12 type  2   force =     0.00000000    0.00000000    0.00000000
     atom   13 type  3   force =     0.00000000    0.00000000    0.00000000
     atom   14 type  1   force =     0.00000000    0.00000000    0.00000000
     atom   15 type  3   force =     0.00000000    0.00000000    0.00000000
     atom   16 type  1   force =     0.00000000    0.00000000    0.00000000
     atom   17 type  1   force =     0.00000000    0.00000000    0.00000000
     atom   18 type  2   force =     0.00000000    0.00000000    0.00000000
     atom   19 type  3   force =     0.00000000    0.00000000    0.00000000
     atom   20 type  1   force =     0.00000000    0.00000000    0.00000000
     atom   21 type  3   force =     0.00000000    0.00000000    0.00000000
     atom   22 type  1   force =     0.00000000    0.00000000    0.00000000
     atom   23 type  1   force =     0.00000000    0.00000000    0.00000000
     atom   24 type  2   force =     0.00000000    0.00000000    0.00000000
     The SCF correction term to forces
     atom    1 type  2   force =    -0.00017612    0.00006926   -0.00007299
     atom    2 type  1   force =    -0.00002459    0.00000111   -0.00002032
     atom    3 type  1   force =    -0.00005338   -0.00007717   -0.00005559
     atom    4 type  3   force =    -0.00000900   -0.00000571   -0.00000504
     atom    5 type  1   force =    -0.00002406   -0.00004455   -0.00001879
     atom    6 type  3   force =    -0.00000278   -0.00000336   -0.00000127
     atom    7 type  3   force =     0.00000626   -0.00000436    0.00000343
     atom    8 type  1   force =     0.00005874    0.00004400    0.00000661
     atom    9 type  3   force =    -0.00002055    0.00001434   -0.00000881
     atom   10 type  1   force =     0.00002285    0.00005784   -0.00001264
     atom   11 type  1   force =     0.00001010   -0.00002163    0.00001370
     atom   12 type  2   force =    -0.00011594   -0.00008112   -0.00000981
     atom   13 type  3   force =     0.00001354    0.00000450    0.00000576
     atom   14 type  1   force =     0.00011896    0.00003788    0.00005106
     atom   15 type  3   force =    -0.00000362   -0.00000016   -0.00000179
     atom   16 type  1   force =     0.00007147    0.00003921    0.00004215
     atom   17 type  1   force =     0.00004510    0.00002211    0.00003550
     atom   18 type  2   force =     0.00010168   -0.00004672    0.00004440
     atom   19 type  3   force =     0.00001347   -0.00001016    0.00000706
     atom   20 type  1   force =     0.00010453    0.00000818    0.00001850
     atom   21 type  3   force =    -0.00000796    0.00000340   -0.00000171
     atom   22 type  1   force =     0.00004774    0.00000172    0.00001735
     atom   23 type  1   force =     0.00001802   -0.00001012    0.00002093
     atom   24 type  2   force =     0.00002996    0.00002150   -0.00000678

     Total force =     0.104916     Total SCF correction =     0.000387

     Writing output data file scf-790.save
 writing file ./scratch/scf-790.save/charge-density
 writing file ./scratch/scf-790.save/charge-density
 writing file ./scratch/scf-790.save/charge-density
 writing file ./scratch/scf-790.save/charge-density
 writing file ./scratch/scf-790.save/charge-density
 writing file ./scratch/scf-790.save/charge-density
 writing file ./scratch/scf-790.save/charge-density
 writing file ./scratch/scf-790.save/charge-density
 writing file ./scratch/scf-790.save/charge-density
 writing file ./scratch/scf-790.save/charge-density
 writing file ./scratch/scf-790.save/charge-density
 writing file ./scratch/scf-790.save/charge-density
 writing file ./scratch/scf-790.save/charge-density
 writing file ./scratch/scf-790.save/charge-density
 writing file ./scratch/scf-790.save/charge-density
 writing file ./scratch/scf-790.save/charge-density
 writing file ./scratch/scf-790.save/charge-density
 writing file ./scratch/scf-790.save/charge-density
 writing file ./scratch/scf-790.save/charge-density
 writing file ./scratch/scf-790.save/charge-density
 writing file ./scratch/scf-790.save/charge-density
 writing file ./scratch/scf-790.save/charge-density
 writing file ./scratch/scf-790.save/charge-density
 writing file ./scratch/scf-790.save/charge-density
 writing file ./scratch/scf-790.save/charge-density
 writing file ./scratch/scf-790.save/charge-density
 writing file ./scratch/scf-790.save/charge-density
 writing file ./scratch/scf-790.save/charge-density
 writing file ./scratch/scf-790.save/charge-density
 writing file ./scratch/scf-790.save/charge-density
 writing file ./scratch/scf-790.save/charge-density
 writing file ./scratch/scf-790.save/charge-density
 
     init_run     :      4.36s CPU      4.57s WALL (       1 calls)
     electrons    :     49.18s CPU     51.99s WALL (       1 calls)
     forces       :      2.34s CPU      2.48s WALL (       1 calls)

     Called by init_run:
     wfcinit      :      1.59s CPU      1.60s WALL (       1 calls)
     wfcinit:atom :      0.02s CPU      0.02s WALL (      16 calls)
     wfcinit:wfcr :      1.48s CPU      1.48s WALL (      16 calls)
     potinit      :      0.89s CPU      0.91s WALL (       1 calls)

     Called by electrons:
     c_bands      :     38.34s CPU     38.63s WALL (      11 calls)
     sum_band     :      6.74s CPU      7.91s WALL (      11 calls)
     v_of_rho     :      0.93s CPU      0.96s WALL (      12 calls)
     v_h          :      0.06s CPU      0.06s WALL (      12 calls)
     v_xc         :      0.93s CPU      0.98s WALL (      13 calls)
     newd         :      1.54s CPU      2.87s WALL (      12 calls)
     PAW_pot      :      1.63s CPU      1.69s WALL (      12 calls)
     mix_rho      :      0.14s CPU      0.14s WALL (      11 calls)

     Called by c_bands:
     init_us_2    :      0.85s CPU      0.87s WALL (     384 calls)
     cegterg      :     36.07s CPU     36.24s WALL (     176 calls)

     Called by sum_band:
     sum_band:bec :      0.01s CPU      0.02s WALL (     176 calls)
     addusdens    :      1.52s CPU      2.66s WALL (      11 calls)

     Called by *egterg:
     h_psi        :     26.71s CPU     26.89s WALL (     860 calls)
     s_psi        :      2.11s CPU      2.03s WALL (     860 calls)
     g_psi        :      0.18s CPU      0.16s WALL (     668 calls)
     cdiaghg      :      3.27s CPU      3.41s WALL (     844 calls)
     cegterg:over :      1.64s CPU      1.63s WALL (     668 calls)
     cegterg:upda :      1.31s CPU      1.28s WALL (     668 calls)
     cegterg:last :      0.43s CPU      0.43s WALL (     192 calls)

     Called by h_psi:
     h_psi:pot    :     26.44s CPU     26.61s WALL (     860 calls)
     h_psi:calbec :      2.27s CPU      2.28s WALL (     860 calls)
     vloc_psi     :     22.22s CPU     22.34s WALL (     860 calls)
     add_vuspsi   :      1.94s CPU      1.99s WALL (     860 calls)

     General routines
     calbec       :      3.02s CPU      3.03s WALL (    1100 calls)
     fft          :      0.76s CPU      0.82s WALL (     199 calls)
     ffts         :      0.04s CPU      0.03s WALL (      23 calls)
     fftw         :     20.97s CPU     21.15s WALL (   55530 calls)
     interpolate  :      0.14s CPU      0.15s WALL (      23 calls)
     davcio       :      0.00s CPU      0.01s WALL (      16 calls)
 
     Parallel routines
     fft_scatter  :      7.20s CPU      7.37s WALL (   55752 calls)

     PAW routines
     PAW_pot      :      1.63s CPU      1.69s WALL (      12 calls)
 
     PWSCF        :  0m56.57s CPU     1m 0.21s WALL

 
   This run was terminated on:  15:39:17  20May2017            

=------------------------------------------------------------------------------=
   JOB DONE.
=------------------------------------------------------------------------------=
