
     Program PWSCF v.6.1 starts on 20May2017 at 16:28:46 

     This program is part of the open-source Quantum ESPRESSO suite
     for quantum simulation of materials; please cite
         "P. Giannozzi et al., J. Phys.:Condens. Matter 21 395502 (2009);
          URL http://www.quantum-espresso.org", 
     in publications or presentations arising from this work. More details at
     http://www.quantum-espresso.org/quote

     Parallel version (MPI & OpenMP), running on      32 processor cores
     Number of MPI processes:                32
     Threads/MPI process:                     1
     R & G space division:  proc/nbgrp/npool/nimage =      32
     Waiting for input...
     Reading input from standard input
Warning: card &IONS ignored
Warning: card     ION_TEMPERATURE   = 'INITIAL' ignored
Warning: card     TEMPW             = 586.D0 ignored
Warning: card     TOLP              = 100.D0 ignored
Warning: card     DELTA_T           = 1.D0 ignored
Warning: card     NRAISE            = 1 ignored
Warning: card / ignored
Warning: card &CELL ignored
Warning: card     CELL_DYNAMICS     = 'BFGS' ignored
Warning: card / ignored

     Current dimensions of program PWSCF are:
     Max number of different atomic species (ntypx) = 10
     Max number of k-points (npk) =  40000
     Max angular momentum in pseudopotentials (lmaxx) =  3
               file C.pbe-n-kjpaw_psl.1.0.0.UPF: wavefunction(s)  2S 2P renormalized
               file Cl.pbe-n-kjpaw_psl.1.0.0.UPF: wavefunction(s)  3S 3P renormalized
               file H.pbe-kjpaw_psl.1.0.0.UPF: wavefunction(s)  1S renormalized

     Subspace diagonalization in iterative solution of the eigenvalue problem:
     a serial algorithm will be used

 
     Parallelization info
     --------------------
     sticks:   dense  smooth     PW     G-vecs:    dense   smooth      PW
     Min         764     305     83                36108     9133    1292
     Max         765     306     84                36110     9135    1293
     Sum       24467    9791   2657              1155489   292295   41363
 


     bravais-lattice index     =            0
     lattice parameter (alat)  =       1.8897  a.u.
     unit-cell volume          =    2163.5316 (a.u.)^3
     number of atoms/cell      =           24
     number of atomic types    =            3
     number of electrons       =        84.00
     number of Kohn-Sham states=           42
     kinetic-energy cutoff     =     100.0000  Ry
     charge density cutoff     =    1000.0000  Ry
     convergence threshold     =      1.0E-07
     mixing beta               =       0.7000
     number of iterations used =            8  plain     mixing
     Exchange-correlation      =  SLA  PW   PBX  PBC ( 1  4  3  4 0 0)

     celldm(1)=   1.889726  celldm(2)=   0.000000  celldm(3)=   0.000000
     celldm(4)=   0.000000  celldm(5)=   0.000000  celldm(6)=   0.000000

     crystal axes: (cart. coord. in units of alat)
               a(1) = (  14.762000   0.000000   0.000000 )  
               a(2) = (   0.000000   5.832000   0.000000 )  
               a(3) = (  -1.563876   0.000000   3.723951 )  

     reciprocal axes: (cart. coord. in units 2 pi/alat)
               b(1) = (  0.067741  0.000000  0.028448 )  
               b(2) = (  0.000000  0.171468  0.000000 )  
               b(3) = (  0.000000  0.000000  0.268532 )  


     PseudoPot. # 1 for  C read from file:
     /global/cscratch1/sd/almno10/.data/PSEUDOPOTENTIALS/C.pbe-n-kjpaw_psl.1.0.0.UPF
     MD5 check sum: 2ba8448e293caca687844dde9a1b88a8
     Pseudo is Projector augmented-wave + core cor, Zval =  4.0
     Generated using "atomic" code by A. Dal Corso  v.5.3.0 svn rev. 11974
     Shape of augmentation charge: PSQ
     Using radial grid of 1073 points,  4 beta functions with: 
                l(1) =   0
                l(2) =   0
                l(3) =   1
                l(4) =   1
     Q(r) pseudized with 0 coefficients 


     PseudoPot. # 2 for Cl read from file:
     /global/cscratch1/sd/almno10/.data/PSEUDOPOTENTIALS/Cl.pbe-n-kjpaw_psl.1.0.0.UPF
     MD5 check sum: dca63699d6b897c5771335df08a09219
     Pseudo is Projector augmented-wave + core cor, Zval =  7.0
     Generated using "atomic" code by A. Dal Corso  v.5.3.0 svn rev. 11974
     Shape of augmentation charge: PSQ
     Using radial grid of 1157 points,  6 beta functions with: 
                l(1) =   0
                l(2) =   0
                l(3) =   1
                l(4) =   1
                l(5) =   2
                l(6) =   2
     Q(r) pseudized with 0 coefficients 


     PseudoPot. # 3 for  H read from file:
     /global/cscratch1/sd/almno10/.data/PSEUDOPOTENTIALS/H.pbe-kjpaw_psl.1.0.0.UPF
     MD5 check sum: bc0feb48a24907a0b97fa6ee2d589a29
     Pseudo is Projector augmented-wave, Zval =  1.0
     Generated using "atomic" code by A. Dal Corso  v.5.3.0 svn rev. 11974
     Shape of augmentation charge: PSQ
     Using radial grid of  929 points,  2 beta functions with: 
                l(1) =   0
                l(2) =   0
     Q(r) pseudized with 0 coefficients 


     atomic species   valence    mass     pseudopotential
        C              4.00    12.01100      C( 1.00)
        Cl             7.00    35.45270     Cl( 1.00)
        H              1.00     1.00790      H( 1.00)

     No symmetry found


                                    s                        frac. trans.

      isym =  1     identity                                     

 cryst.   s( 1) = (     1          0          0      )
                  (     0          1          0      )
                  (     0          0          1      )

 cart.    s( 1) = (  1.0000000  0.0000000 -0.0000000 )
                  (  0.0000000  1.0000000  0.0000000 )
                  (  0.0000000  0.0000000  1.0000000 )


   Cartesian axes

     site n.     atom                  positions (alat units)
         1           Cl  tau(   1) = (  16.3857514   1.2697526   1.8606503  )
         2           C   tau(   2) = (  15.0439591   2.4105326   1.7909820  )
         3           C   tau(   3) = (  15.2163325   3.5581960   2.5642031  )
         4           H   tau(   4) = (  16.1836625   3.8171546   2.9920931  )
         5           C   tau(   5) = (  14.1687003   4.4764881   2.6031675  )
         6           H   tau(   6) = (  14.2633086   5.3818545   3.2002963  )
         7           H   tau(   7) = (   6.1686384   1.8601712   0.6799350  )
         8           C   tau(   8) = (   6.3377504   0.9106504   1.1820983  )
         9           H   tau(   9) = (   4.3255033   0.2084930   0.8532309  )
        10           C   tau(  10) = (   5.3012712  -0.0180426   1.2795145  )
        11           C   tau(  11) = (   5.4915290  -1.2462498   1.9112517  )
        12           Cl  tau(  12) = (   4.1775060  -2.3846826   1.7662092  )
        13           H   tau(  13) = (  13.7275813   1.2413470   0.5519790  )
        14           C   tau(  14) = (  13.8359860   2.1472441   1.1456823  )
        15           H   tau(  15) = (  11.8103580   2.7976897   0.7987923  )
        16           C   tau(  16) = (  12.7481544   3.0056680   1.3084359  )
        17           C   tau(  17) = (  12.9252930   4.1509068   2.0633200  )
        18           Cl  tau(  18) = (  11.6685388   5.2689919   2.0361221  )
        19           H   tau(  19) = (   6.8719572  -2.5119301   3.0334927  )
        20           C   tau(  20) = (   6.7145724  -1.5790974   2.4935136  )
        21           H   tau(  21) = (   8.7099865  -0.8554731   2.8618147  )
        22           C   tau(  22) = (   7.7411286  -0.6397110   2.4171441  )
        23           C   tau(  23) = (   7.5671454   0.5654986   1.7398408  )
        24           Cl  tau(  24) = (   9.0634469   1.5867407   1.7301020  )

   Crystallographic axes

     site n.     atom                  positions (cryst. coord.)
         1           Cl  tau(   1) = (  1.1629273  0.2177216  0.4996441  )
         2           C   tau(   2) = (  1.0700503  0.4133286  0.4809359  )
         3           C   tau(   3) = (  1.1037238  0.6101159  0.6885705  )
         4           H   tau(   4) = (  1.1814249  0.6545190  0.8034727  )
         5           C   tau(   5) = (  1.0338641  0.7675734  0.6990337  )
         6           H   tau(   6) = (  1.0572602  0.9228146  0.8593819  )
         7           H   tau(   7) = (  0.4372157  0.3189594  0.1825843  )
         8           C   tau(   8) = (  0.4629571  0.1561472  0.3174312  )
         9           H   tau(   9) = (  0.3172889  0.0357498  0.2291198  )
        10           C   tau(  10) = (  0.3955158 -0.0030937  0.3435905  )
        11           C   tau(  11) = (  0.4263759 -0.2136917  0.5132322  )
        12           Cl  tau(  12) = (  0.3332358 -0.4088962  0.4742836  )
        13           H   tau(  13) = (  0.9456297  0.2128510  0.1482240  )
        14           C   tau(  14) = (  0.9698629  0.3681832  0.3076523  )
        15           H   tau(  15) = (  0.8227755  0.4797136  0.2145013  )
        16           C   tau(  16) = (  0.9008016  0.5153752  0.3513569  )
        17           C   tau(  17) = (  0.9342762  0.7117467  0.5540674  )
        18           Cl  tau(  18) = (  0.8483681  0.9034623  0.5467639  )
        19           H   tau(  19) = (  0.5518137 -0.4307150  0.8145898  )
        20           C   tau(  20) = (  0.5257909 -0.2707643  0.6695881  )
        21           H   tau(  21) = (  0.6714407 -0.1466861  0.7684887  )
        22           C   tau(  22) = (  0.5931588 -0.1096898  0.6490805  )
        23           C   tau(  23) = (  0.5621049  0.0969648  0.4672029  )
        24           Cl  tau(  24) = (  0.6631896  0.2720749  0.4645877  )

     number of k points=    16
                       cart. coord. in units 2pi/alat
        k(    1) = (   0.0169354   0.0214335   0.0406785), wk =   0.1250000
        k(    2) = (   0.0169354   0.0214335   0.1078115), wk =   0.1250000
        k(    3) = (   0.0169354   0.0214335  -0.0935875), wk =   0.1250000
        k(    4) = (   0.0169354   0.0214335  -0.0264545), wk =   0.1250000
        k(    5) = (   0.0169354   0.0643004   0.0406785), wk =   0.1250000
        k(    6) = (   0.0169354   0.0643004   0.1078115), wk =   0.1250000
        k(    7) = (   0.0169354   0.0643004  -0.0935875), wk =   0.1250000
        k(    8) = (   0.0169354   0.0643004  -0.0264545), wk =   0.1250000
        k(    9) = (  -0.0169354   0.0214335  -0.0406785), wk =   0.1250000
        k(   10) = (  -0.0169354   0.0214335  -0.1078115), wk =   0.1250000
        k(   11) = (  -0.0169354   0.0214335   0.0935875), wk =   0.1250000
        k(   12) = (  -0.0169354   0.0214335   0.0264545), wk =   0.1250000
        k(   13) = (  -0.0169354   0.0643004  -0.0406785), wk =   0.1250000
        k(   14) = (  -0.0169354   0.0643004  -0.1078115), wk =   0.1250000
        k(   15) = (  -0.0169354   0.0643004   0.0935875), wk =   0.1250000
        k(   16) = (  -0.0169354   0.0643004   0.0264545), wk =   0.1250000

                       cryst. coord.
        k(    1) = (   0.2500000   0.1250000   0.1250000), wk =   0.1250000
        k(    2) = (   0.2500000   0.1250000   0.3750000), wk =   0.1250000
        k(    3) = (   0.2500000   0.1250000  -0.3750000), wk =   0.1250000
        k(    4) = (   0.2500000   0.1250000  -0.1250000), wk =   0.1250000
        k(    5) = (   0.2500000   0.3750000   0.1250000), wk =   0.1250000
        k(    6) = (   0.2500000   0.3750000   0.3750000), wk =   0.1250000
        k(    7) = (   0.2500000   0.3750000  -0.3750000), wk =   0.1250000
        k(    8) = (   0.2500000   0.3750000  -0.1250000), wk =   0.1250000
        k(    9) = (  -0.2500000   0.1250000  -0.1250000), wk =   0.1250000
        k(   10) = (  -0.2500000   0.1250000  -0.3750000), wk =   0.1250000
        k(   11) = (  -0.2500000   0.1250000   0.3750000), wk =   0.1250000
        k(   12) = (  -0.2500000   0.1250000   0.1250000), wk =   0.1250000
        k(   13) = (  -0.2500000   0.3750000  -0.1250000), wk =   0.1250000
        k(   14) = (  -0.2500000   0.3750000  -0.3750000), wk =   0.1250000
        k(   15) = (  -0.2500000   0.3750000   0.3750000), wk =   0.1250000
        k(   16) = (  -0.2500000   0.3750000   0.1250000), wk =   0.1250000

     Dense  grid:  1155489 G-vectors     FFT dimensions: ( 288, 120,  80)

     Smooth grid:   292295 G-vectors     FFT dimensions: ( 180,  72,  50)

     Estimated max dynamical RAM per process >     147.21MB

     Estimated total allocated dynamical RAM >    4710.62MB

     Initial potential from superposition of free atoms

     starting charge   83.99939, renormalised to   84.00000
     Starting wfc are   72 randomized atomic wfcs
     Checking if some PAW data can be deallocated... 
       node    0, deallocated PAW data for type:  1
       node    0, deallocated PAW data for type:  3
       node    1, deallocated PAW data for type:  1
       node    1, deallocated PAW data for type:  3
       node    2, deallocated PAW data for type:  2
       node    2, deallocated PAW data for type:  3
       node    3, deallocated PAW data for type:  2
       node    3, deallocated PAW data for type:  3
       node    4, deallocated PAW data for type:  2
       node    4, deallocated PAW data for type:  3
       node    5, deallocated PAW data for type:  2
       node    5, deallocated PAW data for type:  3
       node    6, deallocated PAW data for type:  1
       node    6, deallocated PAW data for type:  2
       node    7, deallocated PAW data for type:  1
       node    7, deallocated PAW data for type:  2
       node    8, deallocated PAW data for type:  2
       node    8, deallocated PAW data for type:  3
       node    9, deallocated PAW data for type:  2
       node    9, deallocated PAW data for type:  3
       node   10, deallocated PAW data for type:  1
       node   10, deallocated PAW data for type:  2
       node   11, deallocated PAW data for type:  1
       node   11, deallocated PAW data for type:  2
       node   12, deallocated PAW data for type:  1
       node   12, deallocated PAW data for type:  2
       node   13, deallocated PAW data for type:  1
       node   13, deallocated PAW data for type:  2
       node   14, deallocated PAW data for type:  2
       node   14, deallocated PAW data for type:  3
       node   15, deallocated PAW data for type:  2
       node   15, deallocated PAW data for type:  3
       node   16, deallocated PAW data for type:  1
       node   16, deallocated PAW data for type:  2
       node   17, deallocated PAW data for type:  2
       node   17, deallocated PAW data for type:  3
       node   18, deallocated PAW data for type:  2
       node   18, deallocated PAW data for type:  3
       node   19, deallocated PAW data for type:  1
       node   19, deallocated PAW data for type:  3
       node   20, deallocated PAW data for type:  1
       node   20, deallocated PAW data for type:  2
       node   21, deallocated PAW data for type:  2
       node   21, deallocated PAW data for type:  3
       node   22, deallocated PAW data for type:  1
       node   22, deallocated PAW data for type:  2
       node   23, deallocated PAW data for type:  2
       node   23, deallocated PAW data for type:  3
       node   24, deallocated PAW data for type:  2
       node   24, deallocated PAW data for type:  3
       node   25, deallocated PAW data for type:  1
       node   25, deallocated PAW data for type:  3
       node   26, deallocated PAW data for type:  1
       node   26, deallocated PAW data for type:  2
       node   27, deallocated PAW data for type:  2
       node   27, deallocated PAW data for type:  3
       node   28, deallocated PAW data for type:  1
       node   28, deallocated PAW data for type:  2
       node   29, deallocated PAW data for type:  2
       node   29, deallocated PAW data for type:  3
       node   30, deallocated PAW data for type:  2
       node   30, deallocated PAW data for type:  3
       node   31, deallocated PAW data for type:  1
       node   31, deallocated PAW data for type:  3

     total cpu time spent up to now is        5.3 secs

     per-process dynamical memory:    20.7 Mb

     Self-consistent Calculation

     iteration #  1     ecut=   100.00 Ry     beta= 0.70
     Davidson diagonalization with overlap
     ethr =  1.00E-04,  avg # of iterations =  5.0

     total cpu time spent up to now is       11.9 secs

     total energy              =    -547.11393089 Ry
     Harris-Foulkes estimate   =    -548.99737098 Ry
     estimated scf accuracy    <       2.75108498 Ry

     iteration #  2     ecut=   100.00 Ry     beta= 0.70
     Davidson diagonalization with overlap
     ethr =  3.28E-03,  avg # of iterations =  3.0

     total cpu time spent up to now is       16.7 secs

     total energy              =    -547.51592875 Ry
     Harris-Foulkes estimate   =    -548.61343026 Ry
     estimated scf accuracy    <       1.98556187 Ry

     iteration #  3     ecut=   100.00 Ry     beta= 0.70
     Davidson diagonalization with overlap
     ethr =  2.36E-03,  avg # of iterations =  3.0

     total cpu time spent up to now is       21.1 secs

     total energy              =    -548.00869932 Ry
     Harris-Foulkes estimate   =    -548.05231062 Ry
     estimated scf accuracy    <       0.08724342 Ry

     iteration #  4     ecut=   100.00 Ry     beta= 0.70
     Davidson diagonalization with overlap
     ethr =  1.04E-04,  avg # of iterations =  3.6

     total cpu time spent up to now is       25.8 secs

     total energy              =    -548.03676856 Ry
     Harris-Foulkes estimate   =    -548.04779393 Ry
     estimated scf accuracy    <       0.02191925 Ry

     iteration #  5     ecut=   100.00 Ry     beta= 0.70
     Davidson diagonalization with overlap
     ethr =  2.61E-05,  avg # of iterations =  3.0

     total cpu time spent up to now is       30.2 secs

     total energy              =    -548.04129761 Ry
     Harris-Foulkes estimate   =    -548.04167228 Ry
     estimated scf accuracy    <       0.00082345 Ry

     iteration #  6     ecut=   100.00 Ry     beta= 0.70
     Davidson diagonalization with overlap
     ethr =  9.80E-07,  avg # of iterations =  3.2

     total cpu time spent up to now is       34.8 secs

     total energy              =    -548.04154863 Ry
     Harris-Foulkes estimate   =    -548.04162470 Ry
     estimated scf accuracy    <       0.00014591 Ry

     iteration #  7     ecut=   100.00 Ry     beta= 0.70
     Davidson diagonalization with overlap
     ethr =  1.74E-07,  avg # of iterations =  4.0

     total cpu time spent up to now is       39.5 secs

     total energy              =    -548.04157820 Ry
     Harris-Foulkes estimate   =    -548.04161189 Ry
     estimated scf accuracy    <       0.00007660 Ry

     iteration #  8     ecut=   100.00 Ry     beta= 0.70
     Davidson diagonalization with overlap
     ethr =  9.12E-08,  avg # of iterations =  4.0

     total cpu time spent up to now is       43.9 secs

     total energy              =    -548.04159415 Ry
     Harris-Foulkes estimate   =    -548.04160280 Ry
     estimated scf accuracy    <       0.00002287 Ry

     iteration #  9     ecut=   100.00 Ry     beta= 0.70
     Davidson diagonalization with overlap
     ethr =  2.72E-08,  avg # of iterations =  4.0

     total cpu time spent up to now is       48.3 secs

     total energy              =    -548.04159849 Ry
     Harris-Foulkes estimate   =    -548.04159957 Ry
     estimated scf accuracy    <       0.00000259 Ry

     iteration # 10     ecut=   100.00 Ry     beta= 0.70
     Davidson diagonalization with overlap
     ethr =  3.08E-09,  avg # of iterations =  4.0

     total cpu time spent up to now is       52.7 secs

     total energy              =    -548.04159904 Ry
     Harris-Foulkes estimate   =    -548.04159916 Ry
     estimated scf accuracy    <       0.00000025 Ry

     iteration # 11     ecut=   100.00 Ry     beta= 0.70
     Davidson diagonalization with overlap
     ethr =  3.01E-10,  avg # of iterations =  4.0

     total cpu time spent up to now is       57.4 secs

     End of self-consistent calculation

          k = 0.0169 0.0214 0.0407 ( 36525 PWs)   bands (ev):

   -16.1929 -16.0201 -15.4466 -15.2082 -13.9267 -13.8860 -12.3855 -12.2673
   -11.3293 -11.1432  -9.0310  -8.9223  -8.2797  -8.1148  -6.3235  -6.2755
    -5.3612  -5.2972  -5.0517  -4.8089  -4.2058  -4.1555  -3.9693  -3.9239
    -3.2090  -3.1790  -2.7157  -2.5697  -2.3841  -2.3177  -2.1949  -2.1246
    -1.2012  -1.0950  -1.0559  -0.9661  -0.9107  -0.7255   0.0131   0.1573
     0.5974   0.7796

     occupation numbers 
     1.0000   1.0000   1.0000   1.0000   1.0000   1.0000   1.0000   1.0000
     1.0000   1.0000   1.0000   1.0000   1.0000   1.0000   1.0000   1.0000
     1.0000   1.0000   1.0000   1.0000   1.0000   1.0000   1.0000   1.0000
     1.0000   1.0000   1.0000   1.0000   1.0000   1.0000   1.0000   1.0000
     1.0000   1.0000   1.0000   1.0000   1.0000   1.0000   1.0000   1.0000
     1.0000   1.0000

          k = 0.0169 0.0214 0.1078 ( 36561 PWs)   bands (ev):

   -16.1173 -15.9506 -15.4028 -15.1637 -13.9126 -13.8610 -12.3569 -12.2445
   -11.3245 -11.1413  -8.9983  -8.8885  -8.2337  -8.0831  -6.3481  -6.2935
    -5.3489  -5.3222  -5.0406  -4.9206  -4.3198  -4.1154  -4.0719  -3.9823
    -3.7550  -3.6894  -2.7924  -2.7508  -2.6087  -2.4592  -2.3230  -2.2675
    -1.3376  -1.2094  -1.1620  -0.9972  -0.8855  -0.7932  -0.2957  -0.0902
     0.5920   0.8393

     occupation numbers 
     1.0000   1.0000   1.0000   1.0000   1.0000   1.0000   1.0000   1.0000
     1.0000   1.0000   1.0000   1.0000   1.0000   1.0000   1.0000   1.0000
     1.0000   1.0000   1.0000   1.0000   1.0000   1.0000   1.0000   1.0000
     1.0000   1.0000   1.0000   1.0000   1.0000   1.0000   1.0000   1.0000
     1.0000   1.0000   1.0000   1.0000   1.0000   1.0000   1.0000   1.0000
     1.0000   1.0000

          k = 0.0169 0.0214-0.0936 ( 36547 PWs)   bands (ev):

   -16.1226 -15.9454 -15.4014 -15.1649 -13.9108 -13.8614 -12.3606 -12.2383
   -11.3172 -11.1540  -8.9718  -8.9171  -8.2254  -8.1055  -6.3643  -6.2628
    -5.3399  -5.3170  -5.0887  -4.8664  -4.2771  -4.1797  -4.0481  -4.0120
    -3.7294  -3.6876  -2.7867  -2.6983  -2.6137  -2.4723  -2.3453  -2.2707
    -1.3056  -1.2252  -1.1458  -0.9900  -0.9327  -0.8310  -0.2444  -0.1467
     0.5804   0.8506

     occupation numbers 
     1.0000   1.0000   1.0000   1.0000   1.0000   1.0000   1.0000   1.0000
     1.0000   1.0000   1.0000   1.0000   1.0000   1.0000   1.0000   1.0000
     1.0000   1.0000   1.0000   1.0000   1.0000   1.0000   1.0000   1.0000
     1.0000   1.0000   1.0000   1.0000   1.0000   1.0000   1.0000   1.0000
     1.0000   1.0000   1.0000   1.0000   1.0000   1.0000   1.0000   1.0000
     1.0000   1.0000

          k = 0.0169 0.0214-0.0265 ( 36551 PWs)   bands (ev):

   -16.1980 -16.0146 -15.4466 -15.2086 -13.9259 -13.8854 -12.3896 -12.2612
   -11.3225 -11.1546  -9.0083  -8.9491  -8.2888  -8.1129  -6.3691  -6.2157
    -5.3495  -5.3046  -5.1181  -4.7343  -4.2291  -4.1878  -3.9570  -3.8347
    -3.2123  -3.1719  -2.8065  -2.5143  -2.3771  -2.3214  -2.2116  -2.1027
    -1.1605  -1.1194  -1.0704  -1.0005  -0.8764  -0.7717   0.0476   0.1112
     0.5933   0.7842

     occupation numbers 
     1.0000   1.0000   1.0000   1.0000   1.0000   1.0000   1.0000   1.0000
     1.0000   1.0000   1.0000   1.0000   1.0000   1.0000   1.0000   1.0000
     1.0000   1.0000   1.0000   1.0000   1.0000   1.0000   1.0000   1.0000
     1.0000   1.0000   1.0000   1.0000   1.0000   1.0000   1.0000   1.0000
     1.0000   1.0000   1.0000   1.0000   1.0000   1.0000   1.0000   1.0000
     1.0000   1.0000

          k = 0.0169 0.0643 0.0407 ( 36518 PWs)   bands (ev):

   -16.1613 -15.9763 -15.4552 -15.2266 -13.9799 -13.9347 -12.4333 -12.3081
   -11.3332 -11.1292  -8.9057  -8.8445  -8.1840  -8.0031  -6.3789  -6.3373
    -5.2902  -5.2797  -5.0332  -4.9329  -4.3970  -4.1537  -4.1073  -3.9443
    -3.2882  -3.2443  -2.6767  -2.5977  -2.4843  -2.3717  -2.1897  -2.0507
    -1.0626  -0.9273  -0.9174  -0.8093  -0.7968  -0.7532   0.0329   0.1514
     0.6328   0.7990

     occupation numbers 
     1.0000   1.0000   1.0000   1.0000   1.0000   1.0000   1.0000   1.0000
     1.0000   1.0000   1.0000   1.0000   1.0000   1.0000   1.0000   1.0000
     1.0000   1.0000   1.0000   1.0000   1.0000   1.0000   1.0000   1.0000
     1.0000   1.0000   1.0000   1.0000   1.0000   1.0000   1.0000   1.0000
     1.0000   1.0000   1.0000   1.0000   1.0000   1.0000   1.0000   1.0000
     1.0000   1.0000

          k = 0.0169 0.0643 0.1078 ( 36558 PWs)   bands (ev):

   -16.0973 -15.9169 -15.4035 -15.1751 -13.9423 -13.8981 -12.3908 -12.2656
   -11.3415 -11.1542  -8.9249  -8.8630  -8.1889  -8.0459  -6.3473  -6.2943
    -5.3043  -5.2875  -4.9342  -4.8810  -4.3832  -4.1673  -4.0739  -4.0110
    -3.8974  -3.8281  -2.7872  -2.6774  -2.6097  -2.4648  -2.3518  -2.2771
    -1.3050  -1.1703  -1.0425  -0.9683  -0.9288  -0.7964  -0.1912   0.0041
     0.5981   0.8111

     occupation numbers 
     1.0000   1.0000   1.0000   1.0000   1.0000   1.0000   1.0000   1.0000
     1.0000   1.0000   1.0000   1.0000   1.0000   1.0000   1.0000   1.0000
     1.0000   1.0000   1.0000   1.0000   1.0000   1.0000   1.0000   1.0000
     1.0000   1.0000   1.0000   1.0000   1.0000   1.0000   1.0000   1.0000
     1.0000   1.0000   1.0000   1.0000   1.0000   1.0000   1.0000   1.0000
     1.0000   1.0000

          k = 0.0169 0.0643-0.0936 ( 36547 PWs)   bands (ev):

   -16.1026 -15.9117 -15.4013 -15.1771 -13.9474 -13.8916 -12.3947 -12.2589
   -11.3357 -11.1660  -8.8995  -8.8899  -8.1713  -8.0767  -6.3616  -6.2688
    -5.3080  -5.2865  -4.9719  -4.8202  -4.3457  -4.2345  -4.1045  -3.9814
    -3.8489  -3.8196  -2.8026  -2.6802  -2.6260  -2.4977  -2.3432  -2.2087
    -1.2648  -1.1350  -1.1030  -1.0342  -0.9070  -0.8350  -0.1535  -0.0429
     0.5958   0.8195

     occupation numbers 
     1.0000   1.0000   1.0000   1.0000   1.0000   1.0000   1.0000   1.0000
     1.0000   1.0000   1.0000   1.0000   1.0000   1.0000   1.0000   1.0000
     1.0000   1.0000   1.0000   1.0000   1.0000   1.0000   1.0000   1.0000
     1.0000   1.0000   1.0000   1.0000   1.0000   1.0000   1.0000   1.0000
     1.0000   1.0000   1.0000   1.0000   1.0000   1.0000   1.0000   1.0000
     1.0000   1.0000

          k = 0.0169 0.0643-0.0265 ( 36489 PWs)   bands (ev):

   -16.1663 -15.9712 -15.4539 -15.2279 -13.9850 -13.9284 -12.4374 -12.3004
   -11.3282 -11.1413  -8.8915  -8.8592  -8.1653  -8.0336  -6.4020  -6.3171
    -5.3019  -5.2609  -5.0439  -4.8821  -4.3357  -4.2327  -4.0995  -3.9625
    -3.2797  -3.2447  -2.6836  -2.5437  -2.4780  -2.3863  -2.1767  -2.0648
    -1.0429  -0.9409  -0.9113  -0.8870  -0.8031  -0.7393   0.0651   0.1169
     0.6299   0.7959

     occupation numbers 
     1.0000   1.0000   1.0000   1.0000   1.0000   1.0000   1.0000   1.0000
     1.0000   1.0000   1.0000   1.0000   1.0000   1.0000   1.0000   1.0000
     1.0000   1.0000   1.0000   1.0000   1.0000   1.0000   1.0000   1.0000
     1.0000   1.0000   1.0000   1.0000   1.0000   1.0000   1.0000   1.0000
     1.0000   1.0000   1.0000   1.0000   1.0000   1.0000   1.0000   1.0000
     1.0000   1.0000

          k =-0.0169 0.0214-0.0407 ( 36525 PWs)   bands (ev):

   -16.1971 -16.0164 -15.4435 -15.2109 -13.9285 -13.8827 -12.3890 -12.2613
   -11.3237 -11.1542  -9.0051  -8.9505  -8.2615  -8.1472  -6.3512  -6.2296
    -5.3432  -5.3081  -5.0489  -4.8178  -4.2353  -4.1578  -3.9891  -3.8423
    -3.2058  -3.1680  -2.7451  -2.5477  -2.4084  -2.2881  -2.2086  -2.1055
    -1.1667  -1.1439  -1.0395  -1.0153  -0.8790  -0.7690   0.0465   0.1143
     0.5955   0.7819

     occupation numbers 
     1.0000   1.0000   1.0000   1.0000   1.0000   1.0000   1.0000   1.0000
     1.0000   1.0000   1.0000   1.0000   1.0000   1.0000   1.0000   1.0000
     1.0000   1.0000   1.0000   1.0000   1.0000   1.0000   1.0000   1.0000
     1.0000   1.0000   1.0000   1.0000   1.0000   1.0000   1.0000   1.0000
     1.0000   1.0000   1.0000   1.0000   1.0000   1.0000   1.0000   1.0000
     1.0000   1.0000

          k =-0.0169 0.0214-0.1078 ( 36561 PWs)   bands (ev):

   -16.1221 -15.9464 -15.3994 -15.1665 -13.9134 -13.8586 -12.3607 -12.2379
   -11.3192 -11.1526  -8.9728  -8.9155  -8.2116  -8.1213  -6.3621  -6.2635
    -5.3363  -5.3177  -5.0401  -4.9283  -4.3090  -4.1290  -4.0911  -3.9609
    -3.7391  -3.6884  -2.7847  -2.7514  -2.6015  -2.4589  -2.3227  -2.2619
    -1.3279  -1.2167  -1.1586  -0.9753  -0.9124  -0.8492  -0.2598  -0.1358
     0.5840   0.8499

     occupation numbers 
     1.0000   1.0000   1.0000   1.0000   1.0000   1.0000   1.0000   1.0000
     1.0000   1.0000   1.0000   1.0000   1.0000   1.0000   1.0000   1.0000
     1.0000   1.0000   1.0000   1.0000   1.0000   1.0000   1.0000   1.0000
     1.0000   1.0000   1.0000   1.0000   1.0000   1.0000   1.0000   1.0000
     1.0000   1.0000   1.0000   1.0000   1.0000   1.0000   1.0000   1.0000
     1.0000   1.0000

          k =-0.0169 0.0214 0.0936 ( 36547 PWs)   bands (ev):

   -16.1179 -15.9496 -15.4046 -15.1623 -13.9083 -13.8655 -12.3568 -12.2447
   -11.3228 -11.1427  -8.9979  -8.8892  -8.2402  -8.0748  -6.3363  -6.3090
    -5.3498  -5.3198  -5.0887  -4.8616  -4.2538  -4.1837  -4.0685  -4.0134
    -3.7310  -3.7061  -2.7767  -2.6838  -2.6461  -2.4521  -2.3413  -2.3034
    -1.3102  -1.2164  -1.1583  -1.0045  -0.9025  -0.7831  -0.2870  -0.0923
     0.5912   0.8378

     occupation numbers 
     1.0000   1.0000   1.0000   1.0000   1.0000   1.0000   1.0000   1.0000
     1.0000   1.0000   1.0000   1.0000   1.0000   1.0000   1.0000   1.0000
     1.0000   1.0000   1.0000   1.0000   1.0000   1.0000   1.0000   1.0000
     1.0000   1.0000   1.0000   1.0000   1.0000   1.0000   1.0000   1.0000
     1.0000   1.0000   1.0000   1.0000   1.0000   1.0000   1.0000   1.0000
     1.0000   1.0000

          k =-0.0169 0.0214 0.0265 ( 36551 PWs)   bands (ev):

   -16.1938 -16.0184 -15.4490 -15.2066 -13.9232 -13.8894 -12.3856 -12.2680
   -11.3277 -11.1437  -9.0311  -8.9253  -8.2945  -8.0922  -6.3606  -6.2403
    -5.3612  -5.2948  -5.1260  -4.7277  -4.2502  -4.1297  -3.9596  -3.8961
    -3.2141  -3.1842  -2.8016  -2.5056  -2.3772  -2.2959  -2.2330  -2.1268
    -1.1860  -1.0939  -1.0401  -1.0006  -0.9028  -0.7149   0.0110   0.1549
     0.6020   0.7761

     occupation numbers 
     1.0000   1.0000   1.0000   1.0000   1.0000   1.0000   1.0000   1.0000
     1.0000   1.0000   1.0000   1.0000   1.0000   1.0000   1.0000   1.0000
     1.0000   1.0000   1.0000   1.0000   1.0000   1.0000   1.0000   1.0000
     1.0000   1.0000   1.0000   1.0000   1.0000   1.0000   1.0000   1.0000
     1.0000   1.0000   1.0000   1.0000   1.0000   1.0000   1.0000   1.0000
     1.0000   1.0000

          k =-0.0169 0.0643-0.0407 ( 36518 PWs)   bands (ev):

   -16.1659 -15.9722 -15.4516 -15.2299 -13.9818 -13.9312 -12.4372 -12.3018
   -11.3271 -11.1407  -8.8816  -8.8706  -8.1570  -8.0460  -6.3929  -6.3056
    -5.2982  -5.2622  -5.0400  -4.9329  -4.3976  -4.1652  -4.0882  -3.9299
    -3.2782  -3.2452  -2.7127  -2.5420  -2.4844  -2.3978  -2.1552  -2.0647
    -1.0194  -0.9619  -0.8928  -0.8721  -0.8180  -0.7583   0.0629   0.1153
     0.6341   0.7952

     occupation numbers 
     1.0000   1.0000   1.0000   1.0000   1.0000   1.0000   1.0000   1.0000
     1.0000   1.0000   1.0000   1.0000   1.0000   1.0000   1.0000   1.0000
     1.0000   1.0000   1.0000   1.0000   1.0000   1.0000   1.0000   1.0000
     1.0000   1.0000   1.0000   1.0000   1.0000   1.0000   1.0000   1.0000
     1.0000   1.0000   1.0000   1.0000   1.0000   1.0000   1.0000   1.0000
     1.0000   1.0000

          k =-0.0169 0.0643-0.1078 ( 36558 PWs)   bands (ev):

   -16.1024 -15.9123 -15.3998 -15.1785 -13.9444 -13.8944 -12.3949 -12.2588
   -11.3359 -11.1655  -8.9036  -8.8866  -8.1648  -8.0844  -6.3550  -6.2690
    -5.3042  -5.2848  -4.9543  -4.8685  -4.3542  -4.2077  -4.0937  -3.9684
    -3.8711  -3.8270  -2.7928  -2.6798  -2.5967  -2.4732  -2.3660  -2.2445
    -1.2952  -1.1510  -1.0752  -1.0148  -0.8979  -0.8411  -0.1543  -0.0395
     0.5932   0.8187

     occupation numbers 
     1.0000   1.0000   1.0000   1.0000   1.0000   1.0000   1.0000   1.0000
     1.0000   1.0000   1.0000   1.0000   1.0000   1.0000   1.0000   1.0000
     1.0000   1.0000   1.0000   1.0000   1.0000   1.0000   1.0000   1.0000
     1.0000   1.0000   1.0000   1.0000   1.0000   1.0000   1.0000   1.0000
     1.0000   1.0000   1.0000   1.0000   1.0000   1.0000   1.0000   1.0000
     1.0000   1.0000

          k =-0.0169 0.0643 0.0936 ( 36547 PWs)   bands (ev):

   -16.0976 -15.9163 -15.4048 -15.1740 -13.9445 -13.8961 -12.3906 -12.2655
   -11.3415 -11.1546  -8.9242  -8.8627  -8.1905  -8.0436  -6.3507  -6.2991
    -5.3075  -5.2883  -4.9411  -4.8476  -4.3323  -4.2371  -4.1169  -3.9924
    -3.8686  -3.8229  -2.8110  -2.6771  -2.5861  -2.5258  -2.3205  -2.2530
    -1.2743  -1.1700  -1.0794  -0.9702  -0.9095  -0.8112  -0.1924   0.0024
     0.6055   0.8092

     occupation numbers 
     1.0000   1.0000   1.0000   1.0000   1.0000   1.0000   1.0000   1.0000
     1.0000   1.0000   1.0000   1.0000   1.0000   1.0000   1.0000   1.0000
     1.0000   1.0000   1.0000   1.0000   1.0000   1.0000   1.0000   1.0000
     1.0000   1.0000   1.0000   1.0000   1.0000   1.0000   1.0000   1.0000
     1.0000   1.0000   1.0000   1.0000   1.0000   1.0000   1.0000   1.0000
     1.0000   1.0000

          k =-0.0169 0.0643 0.0265 ( 36489 PWs)   bands (ev):

   -16.1617 -15.9756 -15.4566 -15.2253 -13.9833 -13.9316 -12.4329 -12.3078
   -11.3337 -11.1300  -8.9067  -8.8431  -8.1824  -8.0000  -6.4082  -6.3260
    -5.2933  -5.2770  -5.0273  -4.8966  -4.3695  -4.2058  -4.0906  -3.9807
    -3.2869  -3.2481  -2.6996  -2.5084  -2.4696  -2.4192  -2.1871  -2.0664
    -1.0669  -0.9630  -0.8983  -0.8265  -0.8081  -0.7042   0.0346   0.1525
     0.6351   0.7935

     occupation numbers 
     1.0000   1.0000   1.0000   1.0000   1.0000   1.0000   1.0000   1.0000
     1.0000   1.0000   1.0000   1.0000   1.0000   1.0000   1.0000   1.0000
     1.0000   1.0000   1.0000   1.0000   1.0000   1.0000   1.0000   1.0000
     1.0000   1.0000   1.0000   1.0000   1.0000   1.0000   1.0000   1.0000
     1.0000   1.0000   1.0000   1.0000   1.0000   1.0000   1.0000   1.0000
     1.0000   1.0000

     highest occupied level (ev):     0.8506

!    total energy              =    -548.04159910 Ry
     Harris-Foulkes estimate   =    -548.04159913 Ry
     estimated scf accuracy    <       0.00000004 Ry

     total all-electron energy =     -4615.885087 Ry

     The total energy is the sum of the following terms:

     one-electron contribution =    -151.32018170 Ry
     hartree contribution      =     107.04575114 Ry
     xc contribution           =    -104.25011195 Ry
     ewald contribution        =    -143.73280593 Ry
     one-center paw contrib.   =    -255.78425066 Ry
      -> PAW hartree energy AE =      19.21230106 Ry
      -> PAW hartree energy PS =     -19.10759493 Ry
      -> PAW xc energy AE      =     -55.66454968 Ry
      -> PAW xc energy PS      =      10.11779034 Ry
      -> total E_H with PAW    =     107.15045727 Ry
      -> total E_XC with PAW   =    -149.79687130 Ry

     convergence has been achieved in  11 iterations
 writing file ./scratch/scf-832.save/charge-density
 writing file ./scratch/scf-832.save/charge-density
 writing file ./scratch/scf-832.save/charge-density
 writing file ./scratch/scf-832.save/charge-density
 writing file ./scratch/scf-832.save/charge-density
 writing file ./scratch/scf-832.save/charge-density
 writing file ./scratch/scf-832.save/charge-density
 writing file ./scratch/scf-832.save/charge-density
 writing file ./scratch/scf-832.save/charge-density
 writing file ./scratch/scf-832.save/charge-density
 writing file ./scratch/scf-832.save/charge-density
 writing file ./scratch/scf-832.save/charge-density
 writing file ./scratch/scf-832.save/charge-density
 writing file ./scratch/scf-832.save/charge-density
 writing file ./scratch/scf-832.save/charge-density
 writing file ./scratch/scf-832.save/charge-density
 writing file ./scratch/scf-832.save/charge-density
 writing file ./scratch/scf-832.save/charge-density
 writing file ./scratch/scf-832.save/charge-density
 writing file ./scratch/scf-832.save/charge-density
 writing file ./scratch/scf-832.save/charge-density
 writing file ./scratch/scf-832.save/charge-density
 writing file ./scratch/scf-832.save/charge-density
 writing file ./scratch/scf-832.save/charge-density
 writing file ./scratch/scf-832.save/charge-density
 writing file ./scratch/scf-832.save/charge-density
 writing file ./scratch/scf-832.save/charge-density
 writing file ./scratch/scf-832.save/charge-density
 writing file ./scratch/scf-832.save/charge-density
 writing file ./scratch/scf-832.save/charge-density
 writing file ./scratch/scf-832.save/charge-density
 writing file ./scratch/scf-832.save/charge-density

     Forces acting on atoms (cartesian axes, Ry/au):

     atom    1 type  2   force =    -0.01295767   -0.00139525   -0.01762360
     atom    2 type  1   force =     0.00964200    0.00011090    0.02794223
     atom    3 type  1   force =    -0.00872718    0.02102727   -0.02932164
     atom    4 type  3   force =    -0.00404338   -0.00692403    0.00537225
     atom    5 type  1   force =    -0.00669967   -0.00609399    0.03699081
     atom    6 type  3   force =     0.00390890    0.00406430   -0.00514865
     atom    7 type  3   force =     0.00271898   -0.00092208   -0.00147029
     atom    8 type  1   force =     0.01517925    0.00475845    0.00078261
     atom    9 type  3   force =     0.00131094    0.00302056   -0.00315104
     atom   10 type  1   force =     0.00032141    0.00401078   -0.00040626
     atom   11 type  1   force =    -0.00114238    0.00220683   -0.01917396
     atom   12 type  2   force =     0.00141491   -0.00118642    0.01787906
     atom   13 type  3   force =    -0.00062948   -0.00040061   -0.00120335
     atom   14 type  1   force =     0.00589021   -0.02617976    0.00246232
     atom   15 type  3   force =    -0.00205571   -0.00071548    0.00120510
     atom   16 type  1   force =     0.02551971   -0.02222877   -0.01117007
     atom   17 type  1   force =     0.03499364   -0.00880527   -0.02681129
     atom   18 type  2   force =    -0.04803795    0.04281365    0.01421531
     atom   19 type  3   force =    -0.00193080   -0.00067483   -0.00412752
     atom   20 type  1   force =    -0.00747022    0.00795533    0.00536357
     atom   21 type  3   force =    -0.00003073   -0.00245168    0.00220315
     atom   22 type  1   force =     0.00489274   -0.00727759   -0.00084828
     atom   23 type  1   force =     0.03419430    0.00236649    0.01682155
     atom   24 type  2   force =    -0.04626181   -0.00707883   -0.01078200
     The non-local contrib.  to forces
     atom    1 type  2   force =    -0.30328495    0.24789802   -0.03967846
     atom    2 type  1   force =     0.37643280   -0.35235054    0.02138205
     atom    3 type  1   force =    -0.04416874   -0.00157574   -0.08384793
     atom    4 type  3   force =    -0.07006446   -0.01917422   -0.03063951
     atom    5 type  1   force =    -0.06897025   -0.06498554    0.02909009
     atom    6 type  3   force =    -0.00704255   -0.06493018   -0.04362021
     atom    7 type  3   force =     0.01301946   -0.06900362    0.03660363
     atom    8 type  1   force =     0.07946753   -0.05292302    0.04139194
     atom    9 type  3   force =     0.07031479   -0.01655129    0.03064730
     atom   10 type  1   force =     0.04334116   -0.01507169    0.03298737
     atom   11 type  1   force =    -0.36124591   -0.32103883   -0.04062812
     atom   12 type  2   force =     0.30189126    0.26054435    0.05112601
     atom   13 type  3   force =     0.00817584    0.06537629    0.04299670
     atom   14 type  1   force =     0.06946620    0.02183224    0.04438809
     atom   15 type  3   force =     0.06747173    0.01536516    0.03721486
     atom   16 type  1   force =     0.05128060   -0.01591930    0.02167131
     atom   17 type  1   force =    -0.32647151    0.32432446   -0.02742715
     atom   18 type  2   force =     0.28997209   -0.25965496    0.02905052
     atom   19 type  3   force =    -0.01191730    0.06701064   -0.03945033
     atom   20 type  1   force =    -0.06109086    0.05810828   -0.02324895
     atom   21 type  3   force =    -0.07047453    0.01548041   -0.03228698
     atom   22 type  1   force =    -0.04122230    0.02268536   -0.04144732
     atom   23 type  1   force =     0.42151101    0.32294706    0.00055274
     atom   24 type  2   force =    -0.33895078   -0.19929065   -0.01043074
     The ionic contribution  to forces
     atom    1 type  2   force =     5.32920001   -4.60659356    0.65215546
     atom    2 type  1   force =     2.00941353   -1.84525024   -0.42305833
     atom    3 type  1   force =     4.10768058    1.48586394    2.65458322
     atom    4 type  3   force =     2.08176131    0.76022269    0.95502445
     atom    5 type  1   force =     1.38266262    4.14860685    1.89449031
     atom    6 type  3   force =     0.39197315    1.89130164    1.32901056
     atom    7 type  3   force =    -0.35644719    1.84705261   -1.17410987
     atom    8 type  1   force =    -0.93922384    3.95521591   -2.10839310
     atom    9 type  3   force =    -2.17295599    0.59816827   -1.01412805
     atom   10 type  1   force =    -4.17444399    1.66273798   -2.05290299
     atom   11 type  1   force =    -1.89675994   -1.57983972    0.38876195
     atom   12 type  2   force =    -4.76909234   -3.55859483   -0.43926900
     atom   13 type  3   force =    -0.53706437   -1.85720736   -1.37486334
     atom   14 type  1   force =    -1.66372878   -3.77730349   -2.85535043
     atom   15 type  3   force =    -2.30721196   -0.59085460   -1.27283209
     atom   16 type  1   force =    -5.11920415   -1.89493186   -2.59094516
     atom   17 type  1   force =    -2.51362550    1.21511517    0.37369138
     atom   18 type  2   force =    -6.66589012    4.36834981   -0.90308288
     atom   19 type  3   force =     0.62899731   -1.86105553    1.31593834
     atom   20 type  1   force =     1.86420222   -4.07240612    2.43757230
     atom   21 type  3   force =     2.20580389   -0.72127508    1.10195442
     atom   22 type  1   force =     4.63146711   -1.71913924    2.49108406
     atom   23 type  1   force =     2.66521374    2.12784532   -0.01405717
     atom   24 type  2   force =     5.81727273    4.02397144    0.62872599
     The local contribution  to forces
     atom    1 type  2   force =    -5.05161848    4.36751876   -0.63222095
     atom    2 type  1   force =    -2.36636216    2.18862677    0.42922705
     atom    3 type  1   force =    -4.07106567   -1.46298712   -2.59962474
     atom    4 type  3   force =    -2.01571882   -0.74796598   -0.91900291
     atom    5 type  1   force =    -1.32076136   -4.08865952   -1.88564872
     atom    6 type  3   force =    -0.38100572   -1.82229725   -1.29052980
     atom    7 type  3   force =     0.34613468   -1.77898434    1.13603738
     atom    8 type  1   force =     0.87569565   -3.89645832    2.06735155
     atom    9 type  3   force =     2.10397831   -0.57860416    0.98034078
     atom   10 type  1   force =     4.13039443   -1.64313953    2.01920139
     atom   11 type  1   force =     2.24749120    1.89481724   -0.36755575
     atom   12 type  2   force =     4.48086024    3.30744334    0.40858958
     atom   13 type  3   force =     0.52825420    1.79143235    1.33066368
     atom   14 type  1   force =     1.60090524    3.72817182    2.81270517
     atom   15 type  3   force =     2.23769995    0.57477452    1.23682926
     atom   16 type  1   force =     5.09213933    1.88721522    2.55742935
     atom   17 type  1   force =     2.86698002   -1.54068985   -0.37228219
     atom   18 type  2   force =     6.33745656   -4.07452615    0.88985487
     atom   19 type  3   force =    -0.61903520    1.79337323   -1.28062936
     atom   20 type  1   force =    -1.81130030    4.02105494   -2.40840528
     atom   21 type  3   force =    -2.13535916    0.70333731   -1.06746320
     atom   22 type  1   force =    -4.58447937    1.68891214   -2.45011033
     atom   23 type  1   force =    -3.04159048   -2.43938132    0.02962628
     atom   24 type  2   force =    -5.54049477   -3.84046182   -0.62984382
     The core correction contribution to forces
     atom    1 type  2   force =     0.01293282   -0.01031287    0.00219584
     atom    2 type  1   force =    -0.00980118    0.00906314    0.00041175
     atom    3 type  1   force =    -0.00106647   -0.00023706   -0.00037220
     atom    4 type  3   force =     0.00000000    0.00000000    0.00000000
     atom    5 type  1   force =     0.00043956   -0.00100526   -0.00090218
     atom    6 type  3   force =     0.00000000    0.00000000    0.00000000
     atom    7 type  3   force =     0.00000000    0.00000000    0.00000000
     atom    8 type  1   force =    -0.00087244   -0.00111044    0.00040246
     atom    9 type  3   force =     0.00000000    0.00000000    0.00000000
     atom   10 type  1   force =     0.00100759   -0.00052992    0.00030176
     atom   11 type  1   force =     0.00931060    0.00830601    0.00020620
     atom   12 type  2   force =    -0.01212087   -0.01046456   -0.00257515
     atom   13 type  3   force =     0.00000000    0.00000000    0.00000000
     atom   14 type  1   force =    -0.00083613    0.00109113    0.00068787
     atom   15 type  3   force =     0.00000000    0.00000000    0.00000000
     atom   16 type  1   force =     0.00124967    0.00135454    0.00063412
     atom   17 type  1   force =     0.00805750   -0.00757859   -0.00083237
     atom   18 type  2   force =    -0.00961464    0.00866563   -0.00163122
     atom   19 type  3   force =     0.00000000    0.00000000    0.00000000
     atom   20 type  1   force =     0.00057181    0.00118553   -0.00061149
     atom   21 type  3   force =     0.00000000    0.00000000    0.00000000
     atom   22 type  1   force =    -0.00097378    0.00024396   -0.00041168
     atom   23 type  1   force =    -0.01108781   -0.00901594    0.00063311
     atom   24 type  2   force =     0.01581690    0.00871933    0.00074797
     The Hubbard contrib.    to forces
     atom    1 type  2   force =     0.00000000    0.00000000    0.00000000
     atom    2 type  1   force =     0.00000000    0.00000000    0.00000000
     atom    3 type  1   force =     0.00000000    0.00000000    0.00000000
     atom    4 type  3   force =     0.00000000    0.00000000    0.00000000
     atom    5 type  1   force =     0.00000000    0.00000000    0.00000000
     atom    6 type  3   force =     0.00000000    0.00000000    0.00000000
     atom    7 type  3   force =     0.00000000    0.00000000    0.00000000
     atom    8 type  1   force =     0.00000000    0.00000000    0.00000000
     atom    9 type  3   force =     0.00000000    0.00000000    0.00000000
     atom   10 type  1   force =     0.00000000    0.00000000    0.00000000
     atom   11 type  1   force =     0.00000000    0.00000000    0.00000000
     atom   12 type  2   force =     0.00000000    0.00000000    0.00000000
     atom   13 type  3   force =     0.00000000    0.00000000    0.00000000
     atom   14 type  1   force =     0.00000000    0.00000000    0.00000000
     atom   15 type  3   force =     0.00000000    0.00000000    0.00000000
     atom   16 type  1   force =     0.00000000    0.00000000    0.00000000
     atom   17 type  1   force =     0.00000000    0.00000000    0.00000000
     atom   18 type  2   force =     0.00000000    0.00000000    0.00000000
     atom   19 type  3   force =     0.00000000    0.00000000    0.00000000
     atom   20 type  1   force =     0.00000000    0.00000000    0.00000000
     atom   21 type  3   force =     0.00000000    0.00000000    0.00000000
     atom   22 type  1   force =     0.00000000    0.00000000    0.00000000
     atom   23 type  1   force =     0.00000000    0.00000000    0.00000000
     atom   24 type  2   force =     0.00000000    0.00000000    0.00000000
     The SCF correction term to forces
     atom    1 type  2   force =    -0.00018673    0.00009430   -0.00007576
     atom    2 type  1   force =    -0.00004065    0.00002168   -0.00002058
     atom    3 type  1   force =    -0.00010654   -0.00003685   -0.00006026
     atom    4 type  3   force =    -0.00002106   -0.00000662   -0.00001007
     atom    5 type  1   force =    -0.00006990   -0.00005062   -0.00003898
     atom    6 type  3   force =    -0.00001564   -0.00001001   -0.00000949
     atom    7 type  3   force =     0.00001237    0.00001318   -0.00000172
     atom    8 type  1   force =     0.00011269    0.00003423    0.00002948
     atom    9 type  3   force =    -0.00002583    0.00000764   -0.00001135
     atom   10 type  1   force =     0.00002256    0.00001385    0.00000592
     atom   11 type  1   force =     0.00006203   -0.00003796    0.00004148
     atom   12 type  2   force =    -0.00012304   -0.00011481    0.00000733
     atom   13 type  3   force =     0.00000519   -0.00000198   -0.00000068
     atom   14 type  1   force =     0.00008402    0.00002845    0.00003133
     atom   15 type  3   force =    -0.00001508   -0.00000065   -0.00000722
     atom   16 type  1   force =     0.00005460    0.00005255    0.00004003
     atom   17 type  1   force =     0.00005348    0.00002344    0.00003876
     atom   18 type  2   force =     0.00003851   -0.00002078    0.00002373
     atom   19 type  3   force =     0.00002474   -0.00000326    0.00001355
     atom   20 type  1   force =     0.00014725    0.00001260    0.00005671
     atom   21 type  3   force =    -0.00000059    0.00000558   -0.00000138
     atom   22 type  1   force =     0.00010142    0.00002010    0.00003671
     atom   23 type  1   force =     0.00014818   -0.00002873    0.00006632
     atom   24 type  2   force =     0.00009445   -0.00001722    0.00001830

     Total force =     0.133125     Total SCF correction =     0.000479

     Writing output data file scf-832.save
 writing file ./scratch/scf-832.save/charge-density
 writing file ./scratch/scf-832.save/charge-density
 writing file ./scratch/scf-832.save/charge-density
 writing file ./scratch/scf-832.save/charge-density
 writing file ./scratch/scf-832.save/charge-density
 writing file ./scratch/scf-832.save/charge-density
 writing file ./scratch/scf-832.save/charge-density
 writing file ./scratch/scf-832.save/charge-density
 writing file ./scratch/scf-832.save/charge-density
 writing file ./scratch/scf-832.save/charge-density
 writing file ./scratch/scf-832.save/charge-density
 writing file ./scratch/scf-832.save/charge-density
 writing file ./scratch/scf-832.save/charge-density
 writing file ./scratch/scf-832.save/charge-density
 writing file ./scratch/scf-832.save/charge-density
 writing file ./scratch/scf-832.save/charge-density
 writing file ./scratch/scf-832.save/charge-density
 writing file ./scratch/scf-832.save/charge-density
 writing file ./scratch/scf-832.save/charge-density
 writing file ./scratch/scf-832.save/charge-density
 writing file ./scratch/scf-832.save/charge-density
 writing file ./scratch/scf-832.save/charge-density
 writing file ./scratch/scf-832.save/charge-density
 writing file ./scratch/scf-832.save/charge-density
 writing file ./scratch/scf-832.save/charge-density
 writing file ./scratch/scf-832.save/charge-density
 writing file ./scratch/scf-832.save/charge-density
 writing file ./scratch/scf-832.save/charge-density
 writing file ./scratch/scf-832.save/charge-density
 writing file ./scratch/scf-832.save/charge-density
 writing file ./scratch/scf-832.save/charge-density
 writing file ./scratch/scf-832.save/charge-density
 
     init_run     :      4.40s CPU      4.61s WALL (       1 calls)
     electrons    :     49.47s CPU     52.30s WALL (       1 calls)
     forces       :      2.35s CPU      2.48s WALL (       1 calls)

     Called by init_run:
     wfcinit      :      1.60s CPU      1.62s WALL (       1 calls)
     wfcinit:atom :      0.01s CPU      0.02s WALL (      16 calls)
     wfcinit:wfcr :      1.49s CPU      1.50s WALL (      16 calls)
     potinit      :      0.89s CPU      0.92s WALL (       1 calls)

     Called by electrons:
     c_bands      :     38.54s CPU     38.81s WALL (      11 calls)
     sum_band     :      6.86s CPU      8.03s WALL (      11 calls)
     v_of_rho     :      0.94s CPU      0.97s WALL (      12 calls)
     v_h          :      0.07s CPU      0.06s WALL (      12 calls)
     v_xc         :      0.94s CPU      0.98s WALL (      13 calls)
     newd         :      1.48s CPU      2.87s WALL (      12 calls)
     PAW_pot      :      1.64s CPU      1.70s WALL (      12 calls)
     mix_rho      :      0.14s CPU      0.14s WALL (      11 calls)

     Called by c_bands:
     init_us_2    :      0.82s CPU      0.88s WALL (     384 calls)
     cegterg      :     36.21s CPU     36.44s WALL (     176 calls)

     Called by sum_band:
     sum_band:bec :      0.02s CPU      0.02s WALL (     176 calls)
     addusdens    :      1.52s CPU      2.65s WALL (      11 calls)

     Called by *egterg:
     h_psi        :     27.12s CPU     27.20s WALL (     846 calls)
     s_psi        :      1.96s CPU      2.00s WALL (     846 calls)
     g_psi        :      0.16s CPU      0.16s WALL (     654 calls)
     cdiaghg      :      3.39s CPU      3.33s WALL (     830 calls)
     cegterg:over :      1.66s CPU      1.65s WALL (     654 calls)
     cegterg:upda :      1.20s CPU      1.25s WALL (     654 calls)
     cegterg:last :      0.41s CPU      0.43s WALL (     192 calls)

     Called by h_psi:
     h_psi:pot    :     26.84s CPU     26.93s WALL (     846 calls)
     h_psi:calbec :      2.32s CPU      2.23s WALL (     846 calls)
     vloc_psi     :     22.44s CPU     22.74s WALL (     846 calls)
     add_vuspsi   :      2.08s CPU      1.96s WALL (     846 calls)

     General routines
     calbec       :      3.06s CPU      2.98s WALL (    1086 calls)
     fft          :      0.74s CPU      0.81s WALL (     199 calls)
     ffts         :      0.03s CPU      0.03s WALL (      23 calls)
     fftw         :     21.05s CPU     21.52s WALL (   55634 calls)
     interpolate  :      0.15s CPU      0.15s WALL (      23 calls)
     davcio       :      0.00s CPU      0.01s WALL (      16 calls)
 
     Parallel routines
     fft_scatter  :      7.17s CPU      7.77s WALL (   55856 calls)

     PAW routines
     PAW_pot      :      1.64s CPU      1.70s WALL (      12 calls)
 
     PWSCF        :  0m56.90s CPU     1m 0.53s WALL

 
   This run was terminated on:  16:29:46  20May2017            

=------------------------------------------------------------------------------=
   JOB DONE.
=------------------------------------------------------------------------------=
