
     Program PWSCF v.5.3.0 (svn rev. 11974) starts on 24May2016 at  2:34:44 

     This program is part of the open-source Quantum ESPRESSO suite
     for quantum simulation of materials; please cite
         "P. Giannozzi et al., J. Phys.:Condens. Matter 21 395502 (2009);
          URL http://www.quantum-espresso.org", 
     in publications or presentations arising from this work. More details at
     http://www.quantum-espresso.org/quote

     Parallel version (MPI), running on     8 processors
     R & G space division:  proc/nbgrp/npool/nimage =       8
     Waiting for input...
     Reading input from standard input
Warning: card     &CELL ignored
Warning: card CELL_DYNAMICS='BFGS' ignored
Warning: card / ignored

     Current dimensions of program PWSCF are:
     Max number of different atomic species (ntypx) = 10
     Max number of k-points (npk) =  40000
     Max angular momentum in pseudopotentials (lmaxx) =  3
               file N.pbe-n-kjpaw_psl.1.0.0.UPF: wavefunction(s)  2S renormalized
               file C.pbe-n-kjpaw_psl.1.0.0.UPF: wavefunction(s)  2S 2P renormalized
               file H.pbe-kjpaw_psl.1.0.0.UPF: wavefunction(s)  1S renormalized
               file O.pbe-n-kjpaw_psl.1.0.0.UPF: wavefunction(s)  2S 2P renormalized

     gamma-point specific algorithms are used

     Subspace diagonalization in iterative solution of the eigenvalue problem:
     a serial algorithm will be used


     Parallelization info
     --------------------
     sticks:   dense  smooth     PW     G-vecs:    dense   smooth      PW
     Min        2554    1024    256               233058    58924    7372
     Max        2556    1026    258               233066    59002    7378
     Sum       20445    8195   2057              1864503   471741   58997
     Tot       10223    4098   1029


     Title: 
     RDX-scf-pbe-n-kjpaw-kp242-ec-100-nofor-nostress-conv-em4                   


     bravais-lattice index     =            0
     lattice parameter (alat)  =       1.8897  a.u.
     unit-cell volume          =    3491.9260 (a.u.)^3
     number of atoms/cell      =           56
     number of atomic types    =            4
     number of electrons       =       224.00
     number of Kohn-Sham states=          112
     kinetic-energy cutoff     =     100.0000  Ry
     charge density cutoff     =    1000.0000  Ry
     convergence threshold     =      1.0E-06
     mixing beta               =       0.7000
     number of iterations used =            8  plain     mixing
     Exchange-correlation      =  SLA  PW   PBX  PBC ( 1  4  3  4 0 0)
     nstep                     =          200


     celldm(1)=   1.889726  celldm(2)=   0.000000  celldm(3)=   0.000000
     celldm(4)=   0.000000  celldm(5)=   0.000000  celldm(6)=   0.000000

     crystal axes: (cart. coord. in units of alat)
               a(1) = (   6.525500   0.000000   0.000000 )  
               a(2) = (   0.000000  11.036900   0.000000 )  
               a(3) = (  -1.615186   0.000000   7.184683 )  

     reciprocal axes: (cart. coord. in units 2 pi/alat)
               b(1) = (  0.153245 -0.000000  0.034451 )  
               b(2) = (  0.000000  0.090605 -0.000000 )  
               b(3) = (  0.000000  0.000000  0.139185 )  


     PseudoPot. # 1 for  N read from file:
     /users/majewski/.data/PSEUDOPOTENTIALS/N.pbe-n-kjpaw_psl.1.0.0.UPF
     MD5 check sum: c21df8f53e59d08c3548513d559cdda6
     Pseudo is Projector augmented-wave + core cor, Zval =  5.0
     Generated using "atomic" code by A. Dal Corso  v.5.3.0 svn rev. 11974
     Shape of augmentation charge: PSQ
     Using radial grid of 1085 points,  4 beta functions with: 
                l(1) =   0
                l(2) =   0
                l(3) =   1
                l(4) =   1
     Q(r) pseudized with 0 coefficients 


     PseudoPot. # 2 for  C read from file:
     /users/majewski/.data/PSEUDOPOTENTIALS/C.pbe-n-kjpaw_psl.1.0.0.UPF
     MD5 check sum: 2ba8448e293caca687844dde9a1b88a8
     Pseudo is Projector augmented-wave + core cor, Zval =  4.0
     Generated using "atomic" code by A. Dal Corso  v.5.3.0 svn rev. 11974
     Shape of augmentation charge: PSQ
     Using radial grid of 1073 points,  4 beta functions with: 
                l(1) =   0
                l(2) =   0
                l(3) =   1
                l(4) =   1
     Q(r) pseudized with 0 coefficients 


     PseudoPot. # 3 for  H read from file:
     /users/majewski/.data/PSEUDOPOTENTIALS/H.pbe-kjpaw_psl.1.0.0.UPF
     MD5 check sum: bc0feb48a24907a0b97fa6ee2d589a29
     Pseudo is Projector augmented-wave, Zval =  1.0
     Generated using "atomic" code by A. Dal Corso  v.5.3.0 svn rev. 11974
     Shape of augmentation charge: PSQ
     Using radial grid of  929 points,  2 beta functions with: 
                l(1) =   0
                l(2) =   0
     Q(r) pseudized with 0 coefficients 


     PseudoPot. # 4 for  O read from file:
     /users/majewski/.data/PSEUDOPOTENTIALS/O.pbe-n-kjpaw_psl.1.0.0.UPF
     MD5 check sum: 9c0ade6c043cf4a781bde3908a3a8206
     Pseudo is Projector augmented-wave + core cor, Zval =  6.0
     Generated using "atomic" code by A. Dal Corso  v.5.3.0 svn rev. 11974
     Shape of augmentation charge: PSQ
     Using radial grid of 1095 points,  4 beta functions with: 
                l(1) =   0
                l(2) =   0
                l(3) =   1
                l(4) =   1
     Q(r) pseudized with 0 coefficients 


     atomic species   valence    mass     pseudopotential
        N              5.00    14.00670      N( 1.00)
        C              4.00    12.01100      C( 1.00)
        H              1.00     1.00790      H( 1.00)
        O              6.00    15.99940      O( 1.00)

      2 Sym. Ops., with inversion, found
          (note:  2 additional sym.ops. were found but ignored
           their fractional translations are incommensurate with FFT grid)

                                    s                        frac. trans.

      isym =  1     identity                                     

 cryst.   s( 1) = (     1          0          0      )
                  (     0          1          0      )
                  (     0          0          1      )

 cart.    s( 1) = (  1.0000000  0.0000000  0.0000000 )
                  (  0.0000000  1.0000000  0.0000000 )
                  (  0.0000000  0.0000000  1.0000000 )


      isym =  2     inversion                                    

 cryst.   s( 2) = (    -1          0          0      )
                  (     0         -1          0      )
                  (     0          0         -1      )

 cart.    s( 2) = ( -1.0000000  0.0000000 -0.0000000 )
                  (  0.0000000 -1.0000000  0.0000000 )
                  (  0.0000000  0.0000000 -1.0000000 )


   Cartesian axes

     site n.     atom                  positions (alat units)
         1           N   tau(   1) = (  -0.8668413   6.8692562   3.3186051  )
         2           O   tau(   2) = (   1.0599706   7.9401666   3.1425804  )
         3           N   tau(   3) = (   0.0533091   7.7556296   3.8208145  )
         4           N   tau(   4) = (  -2.0680987   5.7890748   5.0659200  )
         5           O   tau(   5) = (  -3.2533088   4.7280976   6.6225535  )
         6           N   tau(   6) = (  -3.2451729   5.5281625   5.7010460  )
         7           O   tau(   7) = (  -0.1871403   8.2413636   4.9136048  )
         8           C   tau(   8) = (  -2.1362925   6.7804091   3.9788775  )
         9           H   tau(   9) = (  -2.8191539   6.5194968   3.3415961  )
        10           H   tau(  10) = (  -2.3765906   7.6474680   4.3424225  )
        11           O   tau(  11) = (  -4.2135894   6.1790085   5.3101993  )
        12           C   tau(  12) = (  -0.5998445   6.2495343   2.0325468  )
        13           H   tau(  13) = (  -1.4176786   5.8230684   1.7315086  )
        14           H   tau(  14) = (  -0.3318567   6.8947514   1.3600605  )
        15           H   tau(  15) = (   2.1233004  -1.3763014   4.9524020  )
        16           H   tau(  16) = (   1.0374785  -0.3046184   5.3238502  )
        17           C   tau(  17) = (   1.8553126  -0.7310843   5.6248884  )
        18           O   tau(  18) = (  -1.7584323  -0.6605585   8.9025408  )
        19           H   tau(  19) = (   0.0785665  -2.1290180   7.9347640  )
        20           H   tau(  20) = (  -0.3639967  -1.0010468   6.9339376  )
        21           C   tau(  21) = (   0.3188646  -1.2619591   7.5712190  )
        22           O   tau(  22) = (   2.2680169  -2.7229136   8.5059463  )
        23           N   tau(  23) = (  -0.7900158  -0.0097125   9.2933876  )
        24           O   tau(  24) = (  -0.7981517   0.7903524  10.2148950  )
        25           N   tau(  25) = (   0.3870584  -0.2706248   8.6582616  )
        26           N   tau(  26) = (   2.5084662  -2.2371796   7.4131560  )
        27           O   tau(  27) = (   3.5151277  -2.4217166   6.7349219  )
        28           N   tau(  28) = (   1.5883158  -1.3508062   6.9109467  )
        29           H   tau(  29) = (  -1.2833291   4.1421486   5.8246226  )
        30           H   tau(  30) = (  -0.1975072   5.2138316   5.4531745  )
        31           C   tau(  31) = (  -1.0153413   4.7873657   5.1521362  )
        32           O   tau(  32) = (   2.5984037   4.8578915   1.8744838  )
        33           H   tau(  33) = (   0.7614048   3.3894320   2.8422606  )
        34           H   tau(  34) = (   1.2039681   4.5174032   3.8430870  )
        35           C   tau(  35) = (   0.5211068   4.2564909   3.2058056  )
        36           O   tau(  36) = (  -1.4280455   2.7955364   2.2710783  )
        37           N   tau(  37) = (   1.6299871   5.5087375   1.4836371  )
        38           O   tau(  38) = (   1.6381231   6.3088024   0.5621296  )
        39           N   tau(  39) = (   0.4529129   5.2478252   2.1187630  )
        40           N   tau(  40) = (  -1.6684949   3.2812704   3.3638686  )
        41           O   tau(  41) = (  -2.6751564   3.0967334   4.0421027  )
        42           N   tau(  42) = (  -0.7483445   4.1676438   3.8660780  )
        43           H   tau(  43) = (   1.1718280   1.3763014   9.4169641  )
        44           H   tau(  44) = (   2.2576499   0.3046184   9.0455160  )
        45           C   tau(  45) = (   1.4398158   0.7310843   8.7444778  )
        46           O   tau(  46) = (   5.0535608   0.6605585   5.4668254  )
        47           H   tau(  47) = (   3.2165619   2.1290180   6.4346022  )
        48           H   tau(  48) = (   3.6591252   1.0010468   7.4354285  )
        49           C   tau(  49) = (   2.9762639   1.2619591   6.7981471  )
        50           O   tau(  50) = (   1.0271116   2.7229136   5.8634199  )
        51           N   tau(  51) = (   4.0851442   0.0097125   5.0759786  )
        52           O   tau(  52) = (   4.0932802  -0.7903524   4.1544711  )
        53           N   tau(  53) = (   2.9080700   0.2706248   5.7111046  )
        54           N   tau(  54) = (   0.7866622   2.2371796   6.9562102  )
        55           O   tau(  55) = (  -0.2199993   2.4217166   7.6344442  )
        56           N   tau(  56) = (   1.7068126   1.3508062   7.4584195  )

   Crystallographic axes

     site n.     atom                  positions (cryst. coord.)
         1           N   tau(   1) = ( -0.0185100  0.6223900  0.4619000  )
         2           O   tau(   2) = (  0.2707000  0.7194200  0.4374000  )
         3           N   tau(   3) = (  0.1398000  0.7027000  0.5318000  )
         4           N   tau(   4) = ( -0.1424000  0.5245200  0.7051000  )
         5           O   tau(   5) = ( -0.2704000  0.4283900  0.9217600  )
         6           N   tau(   6) = ( -0.3009000  0.5008800  0.7935000  )
         7           O   tau(   7) = (  0.1406000  0.7467100  0.6839000  )
         8           C   tau(   8) = ( -0.1903000  0.6143400  0.5538000  )
         9           H   tau(   9) = ( -0.3169000  0.5907000  0.4651000  )
        10           H   tau(  10) = ( -0.2146000  0.6929000  0.6044000  )
        11           O   tau(  11) = ( -0.4627700  0.5598500  0.7391000  )
        12           C   tau(  12) = ( -0.0219000  0.5662400  0.2829000  )
        13           H   tau(  13) = ( -0.1576000  0.5276000  0.2410000  )
        14           H   tau(  14) = ( -0.0040000  0.6247000  0.1893000  )
        15           H   tau(  15) = (  0.4960000 -0.1247000  0.6893000  )
        16           H   tau(  16) = (  0.3424000 -0.0276000  0.7410000  )
        17           C   tau(  17) = (  0.4781000 -0.0662400  0.7829000  )
        18           O   tau(  18) = (  0.0372300 -0.0598500  1.2391000  )
        19           H   tau(  19) = (  0.2854000 -0.1929000  1.1044000  )
        20           H   tau(  20) = (  0.1831000 -0.0907000  0.9651000  )
        21           C   tau(  21) = (  0.3097000 -0.1143400  1.0538000  )
        22           O   tau(  22) = (  0.6406000 -0.2467100  1.1839000  )
        23           N   tau(  23) = (  0.1991000 -0.0008800  1.2935000  )
        24           O   tau(  24) = (  0.2296000  0.0716100  1.4217600  )
        25           N   tau(  25) = (  0.3576000 -0.0245200  1.2051000  )
        26           N   tau(  26) = (  0.6398000 -0.2027000  1.0318000  )
        27           O   tau(  27) = (  0.7707000 -0.2194200  0.9374000  )
        28           N   tau(  28) = (  0.4814900 -0.1223900  0.9619000  )
        29           H   tau(  29) = (  0.0040000  0.3753000  0.8107000  )
        30           H   tau(  30) = (  0.1576000  0.4724000  0.7590000  )
        31           C   tau(  31) = (  0.0219000  0.4337600  0.7171000  )
        32           O   tau(  32) = (  0.4627700  0.4401500  0.2609000  )
        33           H   tau(  33) = (  0.2146000  0.3071000  0.3956000  )
        34           H   tau(  34) = (  0.3169000  0.4093000  0.5349000  )
        35           C   tau(  35) = (  0.1903000  0.3856600  0.4462000  )
        36           O   tau(  36) = ( -0.1406000  0.2532900  0.3161000  )
        37           N   tau(  37) = (  0.3009000  0.4991200  0.2065000  )
        38           O   tau(  38) = (  0.2704000  0.5716100  0.0782400  )
        39           N   tau(  39) = (  0.1424000  0.4754800  0.2949000  )
        40           N   tau(  40) = ( -0.1398000  0.2973000  0.4682000  )
        41           O   tau(  41) = ( -0.2707000  0.2805800  0.5626000  )
        42           N   tau(  42) = (  0.0185100  0.3776100  0.5381000  )
        43           H   tau(  43) = (  0.5040000  0.1247000  1.3107000  )
        44           H   tau(  44) = (  0.6576000  0.0276000  1.2590000  )
        45           C   tau(  45) = (  0.5219000  0.0662400  1.2171000  )
        46           O   tau(  46) = (  0.9627700  0.0598500  0.7609000  )
        47           H   tau(  47) = (  0.7146000  0.1929000  0.8956000  )
        48           H   tau(  48) = (  0.8169000  0.0907000  1.0349000  )
        49           C   tau(  49) = (  0.6903000  0.1143400  0.9462000  )
        50           O   tau(  50) = (  0.3594000  0.2467100  0.8161000  )
        51           N   tau(  51) = (  0.8009000  0.0008800  0.7065000  )
        52           O   tau(  52) = (  0.7704000 -0.0716100  0.5782400  )
        53           N   tau(  53) = (  0.6424000  0.0245200  0.7949000  )
        54           N   tau(  54) = (  0.3602000  0.2027000  0.9682000  )
        55           O   tau(  55) = (  0.2293000  0.2194200  1.0626000  )
        56           N   tau(  56) = (  0.5185100  0.1223900  1.0381000  )

     number of k points=     1
                       cart. coord. in units 2pi/alat
        k(    1) = (   0.0000000   0.0000000   0.0000000), wk =   2.0000000

                       cryst. coord.
        k(    1) = (   0.0000000   0.0000000   0.0000000), wk =   2.0000000

     Dense  grid:   932252 G-vectors     FFT dimensions: ( 125, 216, 144)

     Smooth grid:   235871 G-vectors     FFT dimensions: (  80, 135,  90)

     Largest allocated arrays     est. size (Mb)     dimensions
        Kohn-Sham Wavefunctions         6.30 Mb     (    3687,  112)
        NL pseudopotentials            19.80 Mb     (    3687,  352)
        Each V/rho on FFT grid          7.42 Mb     (  486000)
        Each G-vector array             0.89 Mb     (  116529)
        G-vector shells                 0.85 Mb     (  111424)
     Largest temporary arrays     est. size (Mb)     dimensions
        Auxiliary wavefunctions        12.60 Mb     (    3687,  448)
        Each subspace H/S matrix        1.53 Mb     (     448,  448)
        Each <psi_i|beta_j> matrix      0.30 Mb     (     352,  112)
        Arrays for rho mixing          59.33 Mb     (  486000,    8)

     Initial potential from superposition of free atoms

     starting charge  223.99937, renormalised to  224.00000
     Starting wfc are  176 randomized atomic wfcs
     Checking if some PAW data can be deallocated... 
       node    0, deallocated PAW data for type:  2
       node    0, deallocated PAW data for type:  3
       node    1, deallocated PAW data for type:  1
       node    2, deallocated PAW data for type:  1
       node    3, deallocated PAW data for type:  2
       node    3, deallocated PAW data for type:  3
       node    4, deallocated PAW data for type:  1
       node    5, deallocated PAW data for type:  2
       node    5, deallocated PAW data for type:  3
       node    6, deallocated PAW data for type:  1
       node    7, deallocated PAW data for type:  2
       node    7, deallocated PAW data for type:  3

     total cpu time spent up to now is       72.4 secs

     per-process dynamical memory:   141.3 Mb

     Self-consistent Calculation

     iteration #  1     ecut=   100.00 Ry     beta=0.70
     Davidson diagonalization with overlap
     ethr =  1.00E-02,  avg # of iterations =  3.0

     total cpu time spent up to now is      107.1 secs

     total energy              =   -1279.59617867 Ry
     Harris-Foulkes estimate   =   -1283.96718101 Ry
     estimated scf accuracy    <       6.73546864 Ry

     iteration #  2     ecut=   100.00 Ry     beta=0.70
     Davidson diagonalization with overlap
     ethr =  3.01E-03,  avg # of iterations =  4.0

     total cpu time spent up to now is      144.5 secs

     total energy              =   -1280.28159589 Ry
     Harris-Foulkes estimate   =   -1283.76067906 Ry
     estimated scf accuracy    <       6.99506058 Ry

     iteration #  3     ecut=   100.00 Ry     beta=0.70
     Davidson diagonalization with overlap
     ethr =  3.01E-03,  avg # of iterations =  5.0

     total cpu time spent up to now is      176.5 secs

     total energy              =   -1281.78977413 Ry
     Harris-Foulkes estimate   =   -1282.02784106 Ry
     estimated scf accuracy    <       0.44472984 Ry

     iteration #  4     ecut=   100.00 Ry     beta=0.70
     Davidson diagonalization with overlap
     ethr =  1.99E-04,  avg # of iterations =  5.0

     total cpu time spent up to now is      211.8 secs

     total energy              =   -1281.93469834 Ry
     Harris-Foulkes estimate   =   -1282.02324635 Ry
     estimated scf accuracy    <       0.19514526 Ry

     iteration #  5     ecut=   100.00 Ry     beta=0.70
     Davidson diagonalization with overlap
     ethr =  8.71E-05,  avg # of iterations =  4.0

     total cpu time spent up to now is      243.3 secs

     total energy              =   -1281.97492516 Ry
     Harris-Foulkes estimate   =   -1281.98324812 Ry
     estimated scf accuracy    <       0.02020879 Ry

     iteration #  6     ecut=   100.00 Ry     beta=0.70
     Davidson diagonalization with overlap
     ethr =  9.02E-06,  avg # of iterations =  8.0

     total cpu time spent up to now is      274.6 secs

     total energy              =   -1281.97820102 Ry
     Harris-Foulkes estimate   =   -1281.97981944 Ry
     estimated scf accuracy    <       0.00362237 Ry

     iteration #  7     ecut=   100.00 Ry     beta=0.70
     Davidson diagonalization with overlap
     ethr =  1.62E-06,  avg # of iterations =  5.0

     total cpu time spent up to now is      308.6 secs

     total energy              =   -1281.97955792 Ry
     Harris-Foulkes estimate   =   -1281.97975741 Ry
     estimated scf accuracy    <       0.00047522 Ry

     iteration #  8     ecut=   100.00 Ry     beta=0.70
     Davidson diagonalization with overlap
     ethr =  2.12E-07,  avg # of iterations =  5.0

     total cpu time spent up to now is      340.2 secs

     total energy              =   -1281.97964283 Ry
     Harris-Foulkes estimate   =   -1281.97970882 Ry
     estimated scf accuracy    <       0.00015670 Ry

     iteration #  9     ecut=   100.00 Ry     beta=0.70
     Davidson diagonalization with overlap
     ethr =  7.00E-08,  avg # of iterations =  6.0

     total cpu time spent up to now is      370.5 secs

     total energy              =   -1281.97967697 Ry
     Harris-Foulkes estimate   =   -1281.97968711 Ry
     estimated scf accuracy    <       0.00002723 Ry

     iteration # 10     ecut=   100.00 Ry     beta=0.70
     Davidson diagonalization with overlap
     ethr =  1.22E-08,  avg # of iterations =  5.0

     total cpu time spent up to now is      401.7 secs

     total energy              =   -1281.97968319 Ry
     Harris-Foulkes estimate   =   -1281.97968447 Ry
     estimated scf accuracy    <       0.00000269 Ry

     iteration # 11     ecut=   100.00 Ry     beta=0.70
     Davidson diagonalization with overlap
     ethr =  1.20E-09,  avg # of iterations =  5.0

     total cpu time spent up to now is      436.5 secs

     total energy              =   -1281.97968372 Ry
     Harris-Foulkes estimate   =   -1281.97968454 Ry
     estimated scf accuracy    <       0.00000221 Ry

     iteration # 12     ecut=   100.00 Ry     beta=0.70
     Davidson diagonalization with overlap
     ethr =  9.88E-10,  avg # of iterations =  6.0

     total cpu time spent up to now is      465.9 secs

     End of self-consistent calculation

          k = 0.0000 0.0000 0.0000 ( 29499 PWs)   bands (ev):

   -24.0476 -24.0187 -24.0131 -23.9983 -23.7649 -23.7534 -23.7533 -23.7515
   -19.2692 -19.2624 -19.2584 -19.2444 -18.9593 -18.9590 -18.9534 -18.9525
   -18.3322 -18.2945 -17.3183 -17.2463 -17.1371 -17.1363 -16.1190 -16.0977
   -12.1916 -12.1877 -12.1803 -12.0270 -12.0034 -11.9052 -11.8691 -11.8417
    -8.9630  -8.8798  -8.3665  -8.3254  -7.6390  -7.6065  -7.5553  -7.4981
    -6.9040  -6.8109  -6.6941  -6.6030  -6.5878  -6.4703  -6.4400  -6.3289
    -6.2092  -6.1583  -6.1158  -6.0778  -6.0424  -5.9523  -5.8120  -5.7727
    -5.6986  -5.6837  -5.6572  -5.6169  -5.1808  -5.0970  -5.0346  -4.9936
    -4.5817  -4.5336  -4.5085  -4.5043  -4.3722  -4.2335  -3.9451  -3.8804
    -3.8330  -3.6598  -3.6342  -3.5890  -3.2414  -3.1768  -3.1456  -3.1301
    -0.8577  -0.8525  -0.3833  -0.3785  -0.2803  -0.2087  -0.2070  -0.1107
    -0.1054  -0.0756   0.0950   0.1274   0.1283   0.1662   0.2782   0.3436
     0.3715   0.3793   0.5434   0.6452   0.6999   0.7789   0.7923   0.8218
     0.8339   0.9595   0.9908   1.0568   1.1419   1.2884   1.3082   1.3211

     occupation numbers 
     1.0000   1.0000   1.0000   1.0000   1.0000   1.0000   1.0000   1.0000
     1.0000   1.0000   1.0000   1.0000   1.0000   1.0000   1.0000   1.0000
     1.0000   1.0000   1.0000   1.0000   1.0000   1.0000   1.0000   1.0000
     1.0000   1.0000   1.0000   1.0000   1.0000   1.0000   1.0000   1.0000
     1.0000   1.0000   1.0000   1.0000   1.0000   1.0000   1.0000   1.0000
     1.0000   1.0000   1.0000   1.0000   1.0000   1.0000   1.0000   1.0000
     1.0000   1.0000   1.0000   1.0000   1.0000   1.0000   1.0000   1.0000
     1.0000   1.0000   1.0000   1.0000   1.0000   1.0000   1.0000   1.0000
     1.0000   1.0000   1.0000   1.0000   1.0000   1.0000   1.0000   1.0000
     1.0000   1.0000   1.0000   1.0000   1.0000   1.0000   1.0000   1.0000
     1.0000   1.0000   1.0000   1.0000   1.0000   1.0000   1.0000   1.0000
     1.0000   1.0000   1.0000   1.0000   1.0000   1.0000   1.0000   1.0000
     1.0000   1.0000   1.0000   1.0000   1.0000   1.0000   1.0000   1.0000
     1.0000   1.0000   1.0000   1.0000   1.0000   1.0000   1.0000   1.0000

     highest occupied level (ev):     1.3211

!    total energy              =   -1281.97968397 Ry
     Harris-Foulkes estimate   =   -1281.97968410 Ry
     estimated scf accuracy    <       0.00000016 Ry

     total all-electron energy =     -4786.423432 Ry

     The total energy is the sum of the following terms:

     one-electron contribution =    -654.43843572 Ry
     hartree contribution      =     424.91610818 Ry
     xc contribution           =    -260.41923340 Ry
     ewald contribution        =    -461.63880349 Ry
     one-center paw contrib.   =    -330.39931954 Ry

     convergence has been achieved in  12 iterations

     Forces acting on atoms (Ry/au):

     atom    1 type  1   force =    -0.00897854   -0.00582185   -0.01595181
     atom    2 type  4   force =     0.03451147    0.00686453   -0.02380589
     atom    3 type  1   force =    -0.00470923   -0.01076906   -0.01136367
     atom    4 type  1   force =     0.01674927   -0.00219808    0.00751520
     atom    5 type  4   force =     0.00272706   -0.03937830    0.03999652
     atom    6 type  1   force =     0.01334946    0.00962740   -0.01256107
     atom    7 type  4   force =    -0.01037269    0.02254288    0.04577083
     atom    8 type  2   force =     0.19333495   -0.12581221    0.06158461
     atom    9 type  3   force =    -0.15290020   -0.06600583   -0.15754411
     atom   10 type  3   force =    -0.05106068    0.20085517    0.09234171
     atom   11 type  4   force =    -0.04600382    0.02355939   -0.02098531
     atom   12 type  2   force =     0.11923509   -0.05710533    0.21049009
     atom   13 type  3   force =    -0.19846937   -0.10210887   -0.06356726
     atom   14 type  3   force =     0.06689200    0.15558865   -0.15281703
     atom   15 type  3   force =     0.06689216   -0.15558999   -0.15281499
     atom   16 type  3   force =    -0.19846945    0.10210774   -0.06356513
     atom   17 type  2   force =     0.11923684    0.05710893    0.21050514
     atom   18 type  4   force =    -0.04599223   -0.02353955   -0.02100459
     atom   19 type  3   force =    -0.05106017   -0.20085065    0.09233908
     atom   20 type  3   force =    -0.15289734    0.06600658   -0.15754353
     atom   21 type  2   force =     0.19334371    0.12582363    0.06157965
     atom   22 type  4   force =    -0.01036967   -0.02251322    0.04574290
     atom   23 type  1   force =     0.01333845   -0.00963671   -0.01260467
     atom   24 type  4   force =     0.00273177    0.03937546    0.03996683
     atom   25 type  1   force =     0.01676918    0.00218920    0.00749592
     atom   26 type  1   force =    -0.00465694    0.01081715   -0.01148439
     atom   27 type  4   force =     0.03448790   -0.00683394   -0.02381611
     atom   28 type  1   force =    -0.00897321    0.00583298   -0.01596597
     atom   29 type  3   force =    -0.06689200   -0.15558865    0.15281703
     atom   30 type  3   force =     0.19846937    0.10210887    0.06356726
     atom   31 type  2   force =    -0.11923509    0.05710533   -0.21049009
     atom   32 type  4   force =     0.04600382   -0.02355939    0.02098531
     atom   33 type  3   force =     0.05106068   -0.20085517   -0.09234171
     atom   34 type  3   force =     0.15290020    0.06600583    0.15754411
     atom   35 type  2   force =    -0.19333495    0.12581221   -0.06158461
     atom   36 type  4   force =     0.01037269   -0.02254288   -0.04577083
     atom   37 type  1   force =    -0.01334946   -0.00962740    0.01256107
     atom   38 type  4   force =    -0.00272706    0.03937830   -0.03999652
     atom   39 type  1   force =    -0.01674927    0.00219808   -0.00751520
     atom   40 type  1   force =     0.00470923    0.01076906    0.01136367
     atom   41 type  4   force =    -0.03451147   -0.00686453    0.02380589
     atom   42 type  1   force =     0.00897854    0.00582185    0.01595181
     atom   43 type  3   force =    -0.06689216    0.15558999    0.15281499
     atom   44 type  3   force =     0.19846945   -0.10210774    0.06356513
     atom   45 type  2   force =    -0.11923684   -0.05710893   -0.21050514
     atom   46 type  4   force =     0.04599223    0.02353955    0.02100459
     atom   47 type  3   force =     0.05106017    0.20085065   -0.09233908
     atom   48 type  3   force =     0.15289734   -0.06600658    0.15754353
     atom   49 type  2   force =    -0.19334371   -0.12582363   -0.06157965
     atom   50 type  4   force =     0.01036967    0.02251322   -0.04574290
     atom   51 type  1   force =    -0.01333845    0.00963671    0.01260467
     atom   52 type  4   force =    -0.00273177   -0.03937546   -0.03996683
     atom   53 type  1   force =    -0.01676918   -0.00218920   -0.00749592
     atom   54 type  1   force =     0.00465694   -0.01081715    0.01148439
     atom   55 type  4   force =    -0.03448790    0.00683394    0.02381611
     atom   56 type  1   force =     0.00897321   -0.00583298    0.01596597
     The non-local contrib.  to forces
     atom    1 type  1   force =     0.16870075    0.37607516    0.11077622
     atom    2 type  4   force =    -2.40579965   -0.45665467    1.53935762
     atom    3 type  1   force =     0.04823985   -0.03125073    0.05961734
     atom    4 type  1   force =    -0.57199776   -0.41690333   -0.12277253
     atom    5 type  4   force =     0.14538851    1.88559337   -2.23572587
     atom    6 type  1   force =    -0.01005914    0.06390341    0.06167028
     atom    7 type  4   force =     0.54647836   -1.16277893   -2.63256507
     atom    8 type  2   force =     0.64826599   -0.44987742    0.18555732
     atom    9 type  3   force =     0.08168272    0.02758486    0.07200652
     atom   10 type  3   force =     0.02984499   -0.10128714   -0.04141252
     atom   11 type  4   force =     2.26536149   -1.48516961    0.83694566
     atom   12 type  2   force =     0.38002901   -0.17557690    0.69675997
     atom   13 type  3   force =     0.09356026    0.04854682    0.03913552
     atom   14 type  3   force =    -0.02945115   -0.07509876    0.08001844
     atom   15 type  3   force =    -0.02945115    0.07509869    0.08001846
     atom   16 type  3   force =     0.09356017   -0.04854680    0.03913543
     atom   17 type  2   force =     0.38003204    0.17558463    0.69675965
     atom   18 type  4   force =     2.26537619    1.48516519    0.83692312
     atom   19 type  3   force =     0.02984488    0.10128692   -0.04141235
     atom   20 type  3   force =     0.08168284   -0.02758484    0.07200660
     atom   21 type  2   force =     0.64828150    0.44987454    0.18555524
     atom   22 type  4   force =     0.54648959    1.16281906   -2.63263465
     atom   23 type  1   force =    -0.01005934   -0.06396671    0.06163776
     atom   24 type  4   force =     0.14538755   -1.88558711   -2.23578348
     atom   25 type  1   force =    -0.57196592    0.41687474   -0.12278640
     atom   26 type  1   force =     0.04829998    0.03131842    0.05943818
     atom   27 type  4   force =    -2.40580219    0.45668096    1.53932418
     atom   28 type  1   force =     0.16868493   -0.37606484    0.11076397
     atom   29 type  3   force =     0.02945115    0.07509876   -0.08001844
     atom   30 type  3   force =    -0.09356026   -0.04854682   -0.03913552
     atom   31 type  2   force =    -0.38002901    0.17557690   -0.69675997
     atom   32 type  4   force =    -2.26536149    1.48516961   -0.83694566
     atom   33 type  3   force =    -0.02984499    0.10128714    0.04141252
     atom   34 type  3   force =    -0.08168272   -0.02758486   -0.07200652
     atom   35 type  2   force =    -0.64826599    0.44987742   -0.18555732
     atom   36 type  4   force =    -0.54647836    1.16277893    2.63256507
     atom   37 type  1   force =     0.01005914   -0.06390341   -0.06167028
     atom   38 type  4   force =    -0.14538851   -1.88559337    2.23572587
     atom   39 type  1   force =     0.57199776    0.41690333    0.12277253
     atom   40 type  1   force =    -0.04823985    0.03125073   -0.05961734
     atom   41 type  4   force =     2.40579965    0.45665467   -1.53935762
     atom   42 type  1   force =    -0.16870075   -0.37607516   -0.11077622
     atom   43 type  3   force =     0.02945115   -0.07509869   -0.08001846
     atom   44 type  3   force =    -0.09356017    0.04854680   -0.03913543
     atom   45 type  2   force =    -0.38003204   -0.17558463   -0.69675965
     atom   46 type  4   force =    -2.26537619   -1.48516519   -0.83692312
     atom   47 type  3   force =    -0.02984488   -0.10128692    0.04141235
     atom   48 type  3   force =    -0.08168284    0.02758484   -0.07200660
     atom   49 type  2   force =    -0.64828150   -0.44987454   -0.18555524
     atom   50 type  4   force =    -0.54648959   -1.16281906    2.63263465
     atom   51 type  1   force =     0.01005934    0.06396671   -0.06163776
     atom   52 type  4   force =    -0.14538755    1.88558711    2.23578348
     atom   53 type  1   force =     0.57196592   -0.41687474    0.12278640
     atom   54 type  1   force =    -0.04829998   -0.03131842   -0.05943818
     atom   55 type  4   force =     2.40580219   -0.45668096   -1.53932418
     atom   56 type  1   force =    -0.16868493    0.37606484   -0.11076397
     The ionic contribution  to forces
     atom    1 type  1   force =    -2.98574241    0.28768524   -1.98995955
     atom    2 type  4   force =    12.32605624    4.46897253   -6.05307582
     atom    3 type  1   force =    -0.22198844    1.74709182    0.03104347
     atom    4 type  1   force =     2.72398529    2.76015808    2.00356854
     atom    5 type  4   force =    -1.38510603   -8.79391461   11.50298923
     atom    6 type  1   force =    -0.41177865    0.08160974    1.10576084
     atom    7 type  4   force =    -2.11153922    6.39162145   12.56330285
     atom    8 type  2   force =    -4.06343486    3.26529007   -1.16466039
     atom    9 type  3   force =    -2.33212389   -0.14105590   -2.07121141
     atom   10 type  3   force =    -1.27980373    2.89156196    0.78930334
     atom   11 type  4   force =   -11.29512376    6.38826800   -2.14928522
     atom   12 type  2   force =    -2.89324934    1.04598259   -4.77600606
     atom   13 type  3   force =    -2.63719007   -1.06735352   -1.62107703
     atom   14 type  3   force =     0.24455193    2.08108242   -2.54111395
     atom   15 type  3   force =     0.24455193   -2.08108242   -2.54111395
     atom   16 type  3   force =    -2.63719007    1.06735352   -1.62107703
     atom   17 type  2   force =    -2.89324934   -1.04598259   -4.77600606
     atom   18 type  4   force =   -11.29512376   -6.38826800   -2.14928522
     atom   19 type  3   force =    -1.27980373   -2.89156196    0.78930334
     atom   20 type  3   force =    -2.33212389    0.14105590   -2.07121141
     atom   21 type  2   force =    -4.06343486   -3.26529007   -1.16466039
     atom   22 type  4   force =    -2.11153922   -6.39162145   12.56330285
     atom   23 type  1   force =    -0.41177865   -0.08160974    1.10576084
     atom   24 type  4   force =    -1.38510603    8.79391461   11.50298923
     atom   25 type  1   force =     2.72398529   -2.76015808    2.00356854
     atom   26 type  1   force =    -0.22198844   -1.74709182    0.03104347
     atom   27 type  4   force =    12.32605624   -4.46897253   -6.05307582
     atom   28 type  1   force =    -2.98574241   -0.28768524   -1.98995955
     atom   29 type  3   force =    -0.24455193   -2.08108242    2.54111395
     atom   30 type  3   force =     2.63719007    1.06735352    1.62107703
     atom   31 type  2   force =     2.89324934   -1.04598259    4.77600606
     atom   32 type  4   force =    11.29512376   -6.38826800    2.14928522
     atom   33 type  3   force =     1.27980373   -2.89156196   -0.78930334
     atom   34 type  3   force =     2.33212389    0.14105590    2.07121141
     atom   35 type  2   force =     4.06343486   -3.26529007    1.16466039
     atom   36 type  4   force =     2.11153922   -6.39162145  -12.56330285
     atom   37 type  1   force =     0.41177865   -0.08160974   -1.10576084
     atom   38 type  4   force =     1.38510603    8.79391461  -11.50298923
     atom   39 type  1   force =    -2.72398529   -2.76015808   -2.00356854
     atom   40 type  1   force =     0.22198844   -1.74709182   -0.03104347
     atom   41 type  4   force =   -12.32605624   -4.46897253    6.05307582
     atom   42 type  1   force =     2.98574241   -0.28768524    1.98995955
     atom   43 type  3   force =    -0.24455193    2.08108242    2.54111395
     atom   44 type  3   force =     2.63719007   -1.06735352    1.62107703
     atom   45 type  2   force =     2.89324934    1.04598259    4.77600606
     atom   46 type  4   force =    11.29512376    6.38826800    2.14928522
     atom   47 type  3   force =     1.27980373    2.89156196   -0.78930334
     atom   48 type  3   force =     2.33212389   -0.14105590    2.07121141
     atom   49 type  2   force =     4.06343486    3.26529007    1.16466039
     atom   50 type  4   force =     2.11153922    6.39162145  -12.56330285
     atom   51 type  1   force =     0.41177865    0.08160974   -1.10576084
     atom   52 type  4   force =     1.38510603   -8.79391461  -11.50298923
     atom   53 type  1   force =    -2.72398529    2.76015808   -2.00356854
     atom   54 type  1   force =     0.22198844    1.74709182   -0.03104347
     atom   55 type  4   force =   -12.32605624    4.46897253    6.05307582
     atom   56 type  1   force =     2.98574241    0.28768524    1.98995955
     The local contribution  to forces
     atom    1 type  1   force =     2.81100322   -0.66312948    1.86500522
     atom    2 type  4   force =    -9.90436032   -4.00874545    4.50181252
     atom    3 type  1   force =     0.16880566   -1.72811169   -0.10190795
     atom    4 type  1   force =    -2.14450149   -2.35182070   -1.87485920
     atom    5 type  4   force =     1.24354627    6.88327328   -9.24445692
     atom    6 type  1   force =     0.43621898   -0.13432186   -1.17958447
     atom    7 type  4   force =     1.55891185   -5.21504899   -9.90526255
     atom    8 type  2   force =     3.62261213   -2.95141717    1.04567259
     atom    9 type  3   force =     2.09753547    0.04748458    1.84165872
     atom   10 type  3   force =     1.19889592   -2.58941486   -0.65555935
     atom   11 type  4   force =     9.00117337   -4.89095450    1.29806421
     atom   12 type  2   force =     2.64121471   -0.93115502    4.30535327
     atom   13 type  3   force =     2.34515656    0.91670667    1.51835291
     atom   14 type  3   force =    -0.14821057   -1.85039475    2.30827532
     atom   15 type  3   force =    -0.14821194    1.85038992    2.30826898
     atom   16 type  3   force =     2.34515891   -0.91670215    1.51835954
     atom   17 type  2   force =     2.64120023    0.93117682    4.30542369
     atom   18 type  4   force =     9.00117485    4.89095012    1.29805823
     atom   19 type  3   force =     1.19890824    2.58941970   -0.65554801
     atom   20 type  3   force =     2.09754878   -0.04747995    1.84166894
     atom   21 type  2   force =     3.62263869    2.95142505    1.04571432
     atom   22 type  4   force =     1.55883006    5.21502514   -9.90511197
     atom   23 type  1   force =     0.43622479    0.13426326   -1.17963940
     atom   24 type  4   force =     1.24356795   -6.88330646   -9.24448240
     atom   25 type  1   force =    -2.14445881    2.35177825   -1.87485934
     atom   26 type  1   force =     0.16862940    1.72808989   -0.10163838
     atom   27 type  4   force =    -9.90454541    4.00874038    4.50200862
     atom   28 type  1   force =     2.81102574    0.66313593    1.86508367
     atom   29 type  3   force =     0.14820946    1.85039102   -2.30826627
     atom   30 type  3   force =    -2.34515103   -0.91670250   -1.51835200
     atom   31 type  2   force =    -2.64120464    0.93115905   -4.30537734
     atom   32 type  4   force =    -9.00120804    4.89098933   -1.29809631
     atom   33 type  3   force =    -1.19890291    2.58941708    0.65555273
     atom   34 type  3   force =    -2.09753963   -0.04747673   -1.84166152
     atom   35 type  2   force =    -3.62263250    2.95142647   -1.04569273
     atom   36 type  4   force =    -1.55888402    5.21505074    9.90520313
     atom   37 type  1   force =    -0.43624485    0.13430711    1.17959856
     atom   38 type  4   force =    -1.24356290   -6.88329100    9.24448393
     atom   39 type  1   force =     2.14449402    2.35183596    1.87484276
     atom   40 type  1   force =    -0.16868906    1.72811993    0.10175223
     atom   41 type  4   force =     9.90448164    4.00874706   -4.50193516
     atom   42 type  1   force =    -2.81099881    0.66313368   -1.86506607
     atom   43 type  3   force =     0.14821309   -1.85039364   -2.30827461
     atom   44 type  3   force =    -2.34515442    0.91669878   -1.51836043
     atom   45 type  2   force =    -2.64119661   -0.93117889   -4.30539621
     atom   46 type  4   force =    -9.00115411   -4.89092589   -1.29808000
     atom   47 type  3   force =    -1.19890666   -2.58942563    0.65556077
     atom   48 type  3   force =    -2.09755206    0.04748119   -1.84166720
     atom   49 type  2   force =    -3.62265193   -2.95145062   -1.04568674
     atom   50 type  4   force =    -1.55888968   -5.21505108    9.90525274
     atom   51 type  1   force =    -0.43626148   -0.13437711    1.17961426
     atom   52 type  4   force =    -1.24361048    6.88325364    9.24426561
     atom   53 type  1   force =     2.14445013   -2.35179043    1.87494243
     atom   54 type  1   force =    -0.16871769   -1.72810754    0.10176839
     atom   55 type  4   force =     9.90443079   -4.00874547   -4.50188849
     atom   56 type  1   force =    -2.81098290   -0.66315662   -1.86508239
     The core correction contribution to forces
     atom    1 type  1   force =    -0.00298409   -0.00628057   -0.00183341
     atom    2 type  4   force =     0.01867349    0.00337385   -0.01195681
     atom    3 type  1   force =     0.00028803    0.00165597   -0.00009949
     atom    4 type  1   force =     0.00920236    0.00638818    0.00165486
     atom    5 type  4   force =    -0.00117924   -0.01440561    0.01728554
     atom    6 type  1   force =    -0.00112289   -0.00162541   -0.00025279
     atom    7 type  4   force =    -0.00419373    0.00881975    0.02027365
     atom    8 type  2   force =    -0.01417770    0.01028189   -0.00499172
     atom    9 type  3   force =     0.00000000    0.00000000    0.00000000
     atom   10 type  3   force =     0.00000000    0.00000000    0.00000000
     atom   11 type  4   force =    -0.01748479    0.01147915   -0.00665778
     atom   12 type  2   force =    -0.00876463    0.00369452   -0.01573708
     atom   13 type  3   force =     0.00000000    0.00000000    0.00000000
     atom   14 type  3   force =     0.00000000    0.00000000    0.00000000
     atom   15 type  3   force =     0.00000000    0.00000000    0.00000000
     atom   16 type  3   force =     0.00000000    0.00000000    0.00000000
     atom   17 type  2   force =    -0.00876302   -0.00369497   -0.01573647
     atom   18 type  4   force =    -0.01748505   -0.01147905   -0.00665788
     atom   19 type  3   force =     0.00000000    0.00000000    0.00000000
     atom   20 type  3   force =     0.00000000    0.00000000    0.00000000
     atom   21 type  2   force =    -0.01417545   -0.01028236   -0.00499017
     atom   22 type  4   force =    -0.00419457   -0.00882103    0.02027694
     atom   23 type  1   force =    -0.00112357    0.00162522   -0.00025291
     atom   24 type  4   force =    -0.00117925    0.01440549    0.01728532
     atom   25 type  1   force =     0.00920216   -0.00638781    0.00165515
     atom   26 type  1   force =     0.00028355   -0.00165883   -0.00008991
     atom   27 type  4   force =     0.01867226   -0.00337418   -0.01195511
     atom   28 type  1   force =    -0.00298437    0.00628037   -0.00183287
     atom   29 type  3   force =     0.00000000    0.00000000    0.00000000
     atom   30 type  3   force =     0.00000000    0.00000000    0.00000000
     atom   31 type  2   force =     0.00876457   -0.00369454    0.01573668
     atom   32 type  4   force =     0.01748484   -0.01147926    0.00665769
     atom   33 type  3   force =     0.00000000    0.00000000    0.00000000
     atom   34 type  3   force =     0.00000000    0.00000000    0.00000000
     atom   35 type  2   force =     0.01417790   -0.01028191    0.00499118
     atom   36 type  4   force =     0.00419388   -0.00882020   -0.02027469
     atom   37 type  1   force =     0.00112303    0.00162450    0.00025299
     atom   38 type  4   force =     0.00117924    0.01440567   -0.01728538
     atom   39 type  1   force =    -0.00920241   -0.00638838   -0.00165500
     atom   40 type  1   force =    -0.00028614   -0.00165653    0.00009647
     atom   41 type  4   force =    -0.01867347   -0.00337406    0.01195652
     atom   42 type  1   force =     0.00298490    0.00628090    0.00183360
     atom   43 type  3   force =     0.00000000    0.00000000    0.00000000
     atom   44 type  3   force =     0.00000000    0.00000000    0.00000000
     atom   45 type  2   force =     0.00876259    0.00369433    0.01573674
     atom   46 type  4   force =     0.01748474    0.01147907    0.00665696
     atom   47 type  3   force =     0.00000000    0.00000000    0.00000000
     atom   48 type  3   force =     0.00000000    0.00000000    0.00000000
     atom   49 type  2   force =     0.01417490    0.01028222    0.00499112
     atom   50 type  4   force =     0.00419351    0.00882051   -0.02027461
     atom   51 type  1   force =     0.00112314   -0.00162787    0.00025119
     atom   52 type  4   force =     0.00117911   -0.01440541   -0.01728724
     atom   53 type  1   force =    -0.00920118    0.00638797   -0.00165499
     atom   54 type  1   force =    -0.00028815    0.00165730    0.00009717
     atom   55 type  4   force =    -0.01867394    0.00337423    0.01195696
     atom   56 type  1   force =     0.00298394   -0.00628086    0.00183351
     The Hubbard contrib.    to forces
     atom    1 type  1   force =     0.00000000    0.00000000    0.00000000
     atom    2 type  4   force =     0.00000000    0.00000000    0.00000000
     atom    3 type  1   force =     0.00000000    0.00000000    0.00000000
     atom    4 type  1   force =     0.00000000    0.00000000    0.00000000
     atom    5 type  4   force =     0.00000000    0.00000000    0.00000000
     atom    6 type  1   force =     0.00000000    0.00000000    0.00000000
     atom    7 type  4   force =     0.00000000    0.00000000    0.00000000
     atom    8 type  2   force =     0.00000000    0.00000000    0.00000000
     atom    9 type  3   force =     0.00000000    0.00000000    0.00000000
     atom   10 type  3   force =     0.00000000    0.00000000    0.00000000
     atom   11 type  4   force =     0.00000000    0.00000000    0.00000000
     atom   12 type  2   force =     0.00000000    0.00000000    0.00000000
     atom   13 type  3   force =     0.00000000    0.00000000    0.00000000
     atom   14 type  3   force =     0.00000000    0.00000000    0.00000000
     atom   15 type  3   force =     0.00000000    0.00000000    0.00000000
     atom   16 type  3   force =     0.00000000    0.00000000    0.00000000
     atom   17 type  2   force =     0.00000000    0.00000000    0.00000000
     atom   18 type  4   force =     0.00000000    0.00000000    0.00000000
     atom   19 type  3   force =     0.00000000    0.00000000    0.00000000
     atom   20 type  3   force =     0.00000000    0.00000000    0.00000000
     atom   21 type  2   force =     0.00000000    0.00000000    0.00000000
     atom   22 type  4   force =     0.00000000    0.00000000    0.00000000
     atom   23 type  1   force =     0.00000000    0.00000000    0.00000000
     atom   24 type  4   force =     0.00000000    0.00000000    0.00000000
     atom   25 type  1   force =     0.00000000    0.00000000    0.00000000
     atom   26 type  1   force =     0.00000000    0.00000000    0.00000000
     atom   27 type  4   force =     0.00000000    0.00000000    0.00000000
     atom   28 type  1   force =     0.00000000    0.00000000    0.00000000
     atom   29 type  3   force =     0.00000000    0.00000000    0.00000000
     atom   30 type  3   force =     0.00000000    0.00000000    0.00000000
     atom   31 type  2   force =     0.00000000    0.00000000    0.00000000
     atom   32 type  4   force =     0.00000000    0.00000000    0.00000000
     atom   33 type  3   force =     0.00000000    0.00000000    0.00000000
     atom   34 type  3   force =     0.00000000    0.00000000    0.00000000
     atom   35 type  2   force =     0.00000000    0.00000000    0.00000000
     atom   36 type  4   force =     0.00000000    0.00000000    0.00000000
     atom   37 type  1   force =     0.00000000    0.00000000    0.00000000
     atom   38 type  4   force =     0.00000000    0.00000000    0.00000000
     atom   39 type  1   force =     0.00000000    0.00000000    0.00000000
     atom   40 type  1   force =     0.00000000    0.00000000    0.00000000
     atom   41 type  4   force =     0.00000000    0.00000000    0.00000000
     atom   42 type  1   force =     0.00000000    0.00000000    0.00000000
     atom   43 type  3   force =     0.00000000    0.00000000    0.00000000
     atom   44 type  3   force =     0.00000000    0.00000000    0.00000000
     atom   45 type  2   force =     0.00000000    0.00000000    0.00000000
     atom   46 type  4   force =     0.00000000    0.00000000    0.00000000
     atom   47 type  3   force =     0.00000000    0.00000000    0.00000000
     atom   48 type  3   force =     0.00000000    0.00000000    0.00000000
     atom   49 type  2   force =     0.00000000    0.00000000    0.00000000
     atom   50 type  4   force =     0.00000000    0.00000000    0.00000000
     atom   51 type  1   force =     0.00000000    0.00000000    0.00000000
     atom   52 type  4   force =     0.00000000    0.00000000    0.00000000
     atom   53 type  1   force =     0.00000000    0.00000000    0.00000000
     atom   54 type  1   force =     0.00000000    0.00000000    0.00000000
     atom   55 type  4   force =     0.00000000    0.00000000    0.00000000
     atom   56 type  1   force =     0.00000000    0.00000000    0.00000000
     The SCF correction term to forces
     atom    1 type  1   force =     0.00004873   -0.00017079    0.00007569
     atom    2 type  4   force =    -0.00004902   -0.00008851    0.00005143
     atom    3 type  1   force =    -0.00005380   -0.00016413   -0.00002447
     atom    4 type  1   force =     0.00005752   -0.00003013   -0.00007532
     atom    5 type  4   force =     0.00007155    0.00006695   -0.00011769
     atom    6 type  1   force =     0.00009532    0.00003675   -0.00015163
     atom    7 type  4   force =    -0.00002914   -0.00007870    0.00000271
     atom    8 type  2   force =     0.00007426   -0.00009382    0.00001469
     atom    9 type  3   force =     0.00000557   -0.00001976    0.00000421
     atom   10 type  3   force =     0.00000282   -0.00000496    0.00001206
     atom   11 type  4   force =     0.00007305   -0.00007371   -0.00005115
     atom   12 type  2   force =     0.00000623   -0.00005551    0.00011535
     atom   13 type  3   force =     0.00000461   -0.00000918    0.00002134
     atom   14 type  3   force =     0.00000121   -0.00000220    0.00000315
     atom   15 type  3   force =     0.00000343    0.00000473    0.00001289
     atom   16 type  3   force =     0.00000299    0.00000363    0.00001677
     atom   17 type  2   force =     0.00001968    0.00003163    0.00007300
     atom   18 type  4   force =     0.00005230    0.00009817   -0.00007110
     atom   19 type  3   force =    -0.00001021    0.00000355   -0.00000511
     atom   20 type  3   force =    -0.00000669    0.00001617   -0.00001160
     atom   21 type  2   force =     0.00002027    0.00009164   -0.00005077
     atom   22 type  4   force =     0.00002183    0.00007235   -0.00004749
     atom   23 type  1   force =     0.00006523    0.00002838   -0.00010322
     atom   24 type  4   force =     0.00005230   -0.00003512   -0.00007372
     atom   25 type  1   force =     0.00002122    0.00008257   -0.00007034
     atom   26 type  1   force =     0.00009316    0.00015330   -0.00020961
     atom   27 type  4   force =     0.00007835    0.00009084   -0.00009096
     atom   28 type  1   force =     0.00005143    0.00016618   -0.00004591
     atom   29 type  3   force =    -0.00000126    0.00000206   -0.00001221
     atom   30 type  3   force =    -0.00000867    0.00000433   -0.00002224
     atom   31 type  2   force =    -0.00001444    0.00004151   -0.00010015
     atom   32 type  4   force =    -0.00003209    0.00001888    0.00008540
     atom   33 type  3   force =     0.00000553    0.00000239   -0.00000179
     atom   34 type  3   force =    -0.00000126    0.00001113    0.00000287
     atom   35 type  2   force =    -0.00004436    0.00007607    0.00002175
     atom   36 type  4   force =     0.00000279    0.00006080    0.00001926
     atom   37 type  1   force =    -0.00006129   -0.00007064    0.00014394
     atom   38 type  4   force =    -0.00006692   -0.00006592    0.00004606
     atom   39 type  1   force =    -0.00005669   -0.00000456    0.00009420
     atom   40 type  1   force =    -0.00006364    0.00013705    0.00016836
     atom   41 type  4   force =    -0.00005380    0.00007354    0.00006115
     atom   42 type  1   force =    -0.00004447    0.00016907    0.00001694
     atom   43 type  3   force =    -0.00000436    0.00000081   -0.00000453
     atom   44 type  3   force =    -0.00000457    0.00000065   -0.00001620
     atom   45 type  2   force =    -0.00001737   -0.00001573   -0.00008342
     atom   46 type  4   force =    -0.00009923   -0.00011047    0.00003727
     atom   47 type  3   force =     0.00000733    0.00000009   -0.00001005
     atom   48 type  3   force =     0.00000672   -0.00001599    0.00000198
     atom   49 type  2   force =    -0.00003359   -0.00007559   -0.00000061
     atom   50 type  4   force =    -0.00000644   -0.00007129   -0.00001006
     atom   51 type  1   force =    -0.00004809    0.00004236    0.00014558
     atom   52 type  4   force =    -0.00002814    0.00011977    0.00022866
     atom   53 type  1   force =     0.00001599   -0.00006960    0.00001048
     atom   54 type  1   force =    -0.00005110   -0.00014650    0.00012863
     atom   55 type  4   force =    -0.00001935   -0.00008698    0.00002301
     atom   56 type  1   force =    -0.00007679   -0.00014616   -0.00000544

     Total force =     1.167738     Total SCF correction =     0.000901


     entering subroutine stress ...

          total   stress  (Ry/bohr**3)                   (kbar)     P=  151.40
   0.00109442   0.00000000   0.00012855        160.99      0.00     18.91
   0.00000000   0.00101696   0.00000001          0.00    149.60      0.00
   0.00012855   0.00000001   0.00097614         18.91      0.00    143.60

     kinetic stress (kbar)  15110.96     -0.00    338.89
                               -0.00  15508.10     -0.00
                              338.89     -0.00  15064.13

     local   stress (kbar) -15842.67      0.01   8032.14
                                0.01  -8945.36      0.01
                             8032.14      0.01 -11983.36

     nonloc. stress (kbar)   1020.58     -0.00     11.23
                               -0.00   1032.07      0.00
                               11.23      0.00    992.51

     hartree stress (kbar)   7143.55     -0.00  -2935.75
                               -0.00   5093.37     -0.01
                            -2935.75     -0.01   5663.60

     exc-cor stress (kbar)  -2178.55     -0.00    -11.15
                               -0.00  -2198.36      0.00
                              -11.15      0.00  -2184.15

     corecor stress (kbar)  -1130.87      0.00     -2.85
                                0.00  -1133.03      0.00
                               -2.85      0.00  -1130.78

     ewald   stress (kbar)  -3962.00     -0.00  -5413.60
                               -0.00  -9207.19     -0.00
                            -5413.60     -0.00  -6278.35

     hubbard stress (kbar)      0.00      0.00      0.00
                                0.00      0.00      0.00
                                0.00      0.00      0.00

     london  stress (kbar)      0.00      0.00      0.00
                                0.00      0.00      0.00
                                0.00      0.00      0.00

     XDM     stress (kbar)      0.00      0.00      0.00
                                0.00      0.00      0.00
                                0.00      0.00      0.00

     dft-nl  stress (kbar)      0.00      0.00      0.00
                                0.00      0.00      0.00
                                0.00      0.00      0.00

     TS-vdW  stress (kbar)      0.00      0.00      0.00
                                0.00      0.00      0.00
                                0.00      0.00      0.00



     BFGS Geometry Optimization

     number of scf cycles    =   1
     number of bfgs steps    =   0

     energy   new            =   -1281.9796839738 Ry

     new trust radius        =       0.2485784951 bohr
     new conv_thr            =       0.0000010000 Ry


ATOMIC_POSITIONS (crystal)
N       -0.019528915   0.622110864   0.460725093
O        0.273064668   0.719749128   0.435646612
N        0.139210944   0.702183665   0.530963025
N       -0.140904732   0.524414610   0.705653521
O       -0.269449690   0.426501961   0.924705885
N       -0.300046439   0.501341597   0.792574833
O        0.140593272   0.747790845   0.687271183
C       -0.173499017   0.608307784   0.558335924
H       -0.332171382   0.587535272   0.453496321
H       -0.217057252   0.702530239   0.611201293
O       -0.466883198   0.560979583   0.737554358
C       -0.008393408   0.563502017   0.298403337
H       -0.174853498   0.522704269   0.236318047
H       -0.001361431   0.632159882   0.178044486
H        0.498638619  -0.132159947   0.678044637
H        0.325146535  -0.022704323   0.736318204
C        0.491607008  -0.063501845   0.798404446
O        0.033117391  -0.060978632   1.237552938
H        0.282942741  -0.202530022   1.111201099
H        0.167828860  -0.087535236   0.953496363
C        0.326501603  -0.108307237   1.058335558
O        0.640593008  -0.247789423   1.187269126
N        0.199951874  -0.001342043   1.292571621
O        0.230550151   0.073497903   1.424703698
N        0.359096531  -0.024415036   1.205652101
N        0.639212983  -0.202181359   1.030954134
O        0.773062570  -0.219747662   0.935645860
N        0.480471258  -0.122110331   0.960724050
H        0.001361431   0.367840118   0.821955514
H        0.174853498   0.477295731   0.763681953
C        0.008393408   0.436497983   0.701596663
O        0.466883198   0.439020417   0.262445642
H        0.217057252   0.297469761   0.388798707
H        0.332171382   0.412464728   0.546503679
C        0.173499017   0.391692216   0.441664076
O       -0.140593272   0.252209155   0.312728817
N        0.300046439   0.498658403   0.207425167
O        0.269449690   0.573498039   0.075294115
N        0.140904732   0.475585390   0.294346479
N       -0.139210944   0.297816335   0.469036975
O       -0.273064668   0.280250872   0.564353388
N        0.019528915   0.377889136   0.539274907
H        0.501361381   0.132159947   1.321955363
H        0.674853465   0.022704323   1.263681796
C        0.508392992   0.063501845   1.201595554
O        0.966882609   0.060978632   0.762447062
H        0.717057259   0.202530022   0.888798901
H        0.832171140   0.087535236   1.046503637
C        0.673498397   0.108307237   0.941664442
O        0.359406992   0.247789423   0.812730874
N        0.800048126   0.001342043   0.707428379
O        0.769449849  -0.073497903   0.575296302
N        0.640903469   0.024415036   0.794347899
N        0.360787017   0.202181359   0.969045866
O        0.226937430   0.219747662   1.064354140
N        0.519528742   0.122110331   1.039275950



     Writing output data file scf.pbe-ec-100-kp444.HMX--nofor.nostress.save
     NEW-OLD atomic charge density approx. for the potential
