
     Program PWSCF v.5.3.0 (svn rev. 11974) starts on 14Jul2016 at 17: 4: 3 

     This program is part of the open-source Quantum ESPRESSO suite
     for quantum simulation of materials; please cite
         "P. Giannozzi et al., J. Phys.:Condens. Matter 21 395502 (2009);
          URL http://www.quantum-espresso.org", 
     in publications or presentations arising from this work. More details at
     http://www.quantum-espresso.org/quote

     Parallel version (MPI), running on    32 processors
     R & G space division:  proc/nbgrp/npool/nimage =      32
     Waiting for input...
     Reading input from standard input
Warning: card     &CELL ignored
Warning: card CELL_DYNAMICS='BFGS' ignored
Warning: card / ignored

     Current dimensions of program PWSCF are:
     Max number of different atomic species (ntypx) = 10
     Max number of k-points (npk) =  40000
     Max angular momentum in pseudopotentials (lmaxx) =  3
               file N.pbe-n-kjpaw_psl.1.0.0.UPF: wavefunction(s)  2S renormalized
               file C.pbe-n-kjpaw_psl.1.0.0.UPF: wavefunction(s)  2S 2P renormalized
               file H.pbe-kjpaw_psl.1.0.0.UPF: wavefunction(s)  1S renormalized
               file O.pbe-n-kjpaw_psl.1.0.0.UPF: wavefunction(s)  2S 2P renormalized

     Subspace diagonalization in iterative solution of the eigenvalue problem:
     a serial algorithm will be used


     Parallelization info
     --------------------
     sticks:   dense  smooth     PW     G-vecs:    dense   smooth      PW
     Min         508     203     54                41382    10441    1442
     Max         509     204     55                41385    10485    1446
     Sum       16281    6509   1745              1324263   334983   46213


     Title: 
     HMX-relax--kp-4x2x4-ec-80-default-conv-thr                                 


     bravais-lattice index     =            0
     lattice parameter (alat)  =       1.8897  a.u.
     unit-cell volume          =    3465.5049 (a.u.)^3
     number of atoms/cell      =           56
     number of atomic types    =            4
     number of electrons       =       224.00
     number of Kohn-Sham states=          112
     kinetic-energy cutoff     =      80.0000  Ry
     charge density cutoff     =     800.0000  Ry
     convergence threshold     =      1.0E-06
     mixing beta               =       0.7000
     number of iterations used =            8  plain     mixing
     Exchange-correlation      =  SLA  PW   PBX  PBC ( 1  4  3  4 0 0)
     nstep                     =           50


     celldm(1)=   1.889726  celldm(2)=   0.000000  celldm(3)=   0.000000
     celldm(4)=   0.000000  celldm(5)=   0.000000  celldm(6)=   0.000000

     crystal axes: (cart. coord. in units of alat)
               a(1) = (   6.525400   0.000000   0.000000 )  
               a(2) = (   0.000000  10.970200   0.000000 )  
               a(3) = (  -1.601165   0.000000   7.173784 )  

     reciprocal axes: (cart. coord. in units 2 pi/alat)
               b(1) = (  0.153247 -0.000000  0.034204 )  
               b(2) = (  0.000000  0.091156 -0.000000 )  
               b(3) = (  0.000000  0.000000  0.139396 )  


     PseudoPot. # 1 for  N read from file:
     /users/majewski/.data/PSEUDOPOTENTIALS/N.pbe-n-kjpaw_psl.1.0.0.UPF
     MD5 check sum: c21df8f53e59d08c3548513d559cdda6
     Pseudo is Projector augmented-wave + core cor, Zval =  5.0
     Generated using "atomic" code by A. Dal Corso  v.5.3.0 svn rev. 11974
     Shape of augmentation charge: PSQ
     Using radial grid of 1085 points,  4 beta functions with: 
                l(1) =   0
                l(2) =   0
                l(3) =   1
                l(4) =   1
     Q(r) pseudized with 0 coefficients 


     PseudoPot. # 2 for  C read from file:
     /users/majewski/.data/PSEUDOPOTENTIALS/C.pbe-n-kjpaw_psl.1.0.0.UPF
     MD5 check sum: 2ba8448e293caca687844dde9a1b88a8
     Pseudo is Projector augmented-wave + core cor, Zval =  4.0
     Generated using "atomic" code by A. Dal Corso  v.5.3.0 svn rev. 11974
     Shape of augmentation charge: PSQ
     Using radial grid of 1073 points,  4 beta functions with: 
                l(1) =   0
                l(2) =   0
                l(3) =   1
                l(4) =   1
     Q(r) pseudized with 0 coefficients 


     PseudoPot. # 3 for  H read from file:
     /users/majewski/.data/PSEUDOPOTENTIALS/H.pbe-kjpaw_psl.1.0.0.UPF
     MD5 check sum: bc0feb48a24907a0b97fa6ee2d589a29
     Pseudo is Projector augmented-wave, Zval =  1.0
     Generated using "atomic" code by A. Dal Corso  v.5.3.0 svn rev. 11974
     Shape of augmentation charge: PSQ
     Using radial grid of  929 points,  2 beta functions with: 
                l(1) =   0
                l(2) =   0
     Q(r) pseudized with 0 coefficients 


     PseudoPot. # 4 for  O read from file:
     /users/majewski/.data/PSEUDOPOTENTIALS/O.pbe-n-kjpaw_psl.1.0.0.UPF
     MD5 check sum: 9c0ade6c043cf4a781bde3908a3a8206
     Pseudo is Projector augmented-wave + core cor, Zval =  6.0
     Generated using "atomic" code by A. Dal Corso  v.5.3.0 svn rev. 11974
     Shape of augmentation charge: PSQ
     Using radial grid of 1095 points,  4 beta functions with: 
                l(1) =   0
                l(2) =   0
                l(3) =   1
                l(4) =   1
     Q(r) pseudized with 0 coefficients 


     atomic species   valence    mass     pseudopotential
        N              5.00    14.00670      N( 1.00)
        C              4.00    12.01100      C( 1.00)
        H              1.00     1.00790      H( 1.00)
        O              6.00    15.99940      O( 1.00)

      2 Sym. Ops., with inversion, found
          (note:  2 additional sym.ops. were found but ignored
           their fractional translations are incommensurate with FFT grid)

                                    s                        frac. trans.

      isym =  1     identity                                     

 cryst.   s( 1) = (     1          0          0      )
                  (     0          1          0      )
                  (     0          0          1      )

 cart.    s( 1) = (  1.0000000  0.0000000  0.0000000 )
                  (  0.0000000  1.0000000  0.0000000 )
                  (  0.0000000  0.0000000  1.0000000 )


      isym =  2     inversion                                    

 cryst.   s( 2) = (    -1          0          0      )
                  (     0         -1          0      )
                  (     0          0         -1      )

 cart.    s( 2) = ( -1.0000000  0.0000000  0.0000000 )
                  (  0.0000000 -1.0000000  0.0000000 )
                  (  0.0000000  0.0000000 -1.0000000 )


   Cartesian axes

     site n.     atom                  positions (alat units)
         1           N   tau(   1) = (  -0.8600534   6.8323503   3.3057516  )
         2           O   tau(   2) = (   1.0740307   7.8956917   3.1284874  )
         3           N   tau(   3) = (   0.0641502   7.7134767   3.8085621  )
         4           N   tau(   4) = (  -2.0611165   5.7640722   5.0625396  )
         5           O   tau(   5) = (  -3.2546734   4.7030344   6.6181748  )
         6           N   tau(   6) = (  -3.2420076   5.5007874   5.6931153  )
         7           O   tau(   7) = (  -0.1744868   8.2015409   4.9011295  )
         8           C   tau(   8) = (  -2.1308106   6.7490864   3.9685375  )
         9           H   tau(   9) = (  -2.8209601   6.4811942   3.3272012  )
        10           H   tau(  10) = (  -2.3726867   7.6275801   4.3300962  )
        11           O   tau(  11) = (  -4.2139476   6.1474807   5.2942529  )
        12           C   tau(  12) = (  -0.5939543   6.2077071   2.0208551  )
        13           H   tau(  13) = (  -1.4110814   5.7834894   1.7145345  )
        14           H   tau(  14) = (  -0.3209154   6.8519869   1.3501062  )
        15           H   tau(  15) = (   2.1412023  -1.3668869   4.9369984  )
        16           H   tau(  16) = (   1.0510363  -0.2983894   5.3014266  )
        17           C   tau(  17) = (   1.8681633  -0.7226071   5.6077472  )
        18           O   tau(  18) = (  -1.7518299  -0.6623807   8.8811450  )
        19           H   tau(  19) = (   0.0894310  -2.1424801   7.9169884  )
        20           H   tau(  20) = (  -0.3588424  -0.9960942   6.9140934  )
        21           C   tau(  21) = (   0.3313071  -1.2639864   7.5554297  )
        22           O   tau(  22) = (   2.2876309  -2.7164409   8.4880216  )
        23           N   tau(  23) = (  -0.7798899  -0.0156874   9.2800074  )
        24           O   tau(  24) = (  -0.7925557   0.7820656  10.2050669  )
        25           N   tau(  25) = (   0.4010012  -0.2789722   8.6494318  )
        26           N   tau(  26) = (   2.5262679  -2.2283767   7.3954543  )
        27           O   tau(  27) = (   3.5361484  -2.4105917   6.7153795  )
        28           N   tau(  28) = (   1.6020643  -1.3472503   6.8926437  )
        29           H   tau(  29) = (  -1.2802493   4.1182131   5.8236781  )
        30           H   tau(  30) = (  -0.1900832   5.1867106   5.4592499  )
        31           C   tau(  31) = (  -1.0072103   4.7624929   5.1529293  )
        32           O   tau(  32) = (   2.6127830   4.8227193   1.8795315  )
        33           H   tau(  33) = (   0.7715220   3.3426199   2.8436881  )
        34           H   tau(  34) = (   1.2197954   4.4890058   3.8465832  )
        35           C   tau(  35) = (   0.5296460   4.2211136   3.2052468  )
        36           O   tau(  36) = (  -1.4266778   2.7686591   2.2726549  )
        37           N   tau(  37) = (   1.6408430   5.4694126   1.4806691  )
        38           O   tau(  38) = (   1.6535088   6.2671656   0.5556096  )
        39           N   tau(  39) = (   0.4599518   5.2061278   2.1112447  )
        40           N   tau(  40) = (  -1.6653149   3.2567233   3.3652222  )
        41           O   tau(  41) = (  -2.6751954   3.0745083   4.0452970  )
        42           N   tau(  42) = (  -0.7411112   4.1378497   3.8680328  )
        43           H   tau(  43) = (   1.1818684   1.3668869   9.4105703  )
        44           H   tau(  44) = (   2.2720344   0.2983894   9.0461421  )
        45           C   tau(  45) = (   1.4549074   0.7226071   8.7398215  )
        46           O   tau(  46) = (   5.0749007   0.6623807   5.4664237  )
        47           H   tau(  47) = (   3.2336397   2.1424801   6.4305803  )
        48           H   tau(  48) = (   3.6819131   0.9960942   7.4334753  )
        49           C   tau(  49) = (   2.9917636   1.2639864   6.7921390  )
        50           O   tau(  50) = (   1.0354399   2.7164409   5.8595471  )
        51           N   tau(  51) = (   4.1029606   0.0156874   5.0675613  )
        52           O   tau(  52) = (   4.1156264  -0.7820656   4.1425018  )
        53           N   tau(  53) = (   2.9220695   0.2789722   5.6981369  )
        54           N   tau(  54) = (   0.7968028   2.2283767   6.9521144  )
        55           O   tau(  55) = (  -0.2130777   2.4105917   7.6321892  )
        56           N   tau(  56) = (   1.7210065   1.3472503   7.4549250  )

   Crystallographic axes

     site n.     atom                  positions (cryst. coord.)
         1           N   tau(   1) = ( -0.0187300  0.6228100  0.4608100  )
         2           O   tau(   2) = (  0.2716000  0.7197400  0.4361000  )
         3           N   tau(   3) = (  0.1401000  0.7031300  0.5309000  )
         4           N   tau(   4) = ( -0.1427000  0.5254300  0.7057000  )
         5           O   tau(   5) = ( -0.2724000  0.4287100  0.9225500  )
         6           N   tau(   6) = ( -0.3021000  0.5014300  0.7936000  )
         7           O   tau(   7) = (  0.1409000  0.7476200  0.6832000  )
         8           C   tau(   8) = ( -0.1908000  0.6152200  0.5532000  )
         9           H   tau(   9) = ( -0.3185000  0.5908000  0.4638000  )
        10           H   tau(  10) = ( -0.2155000  0.6953000  0.6036000  )
        11           O   tau(  11) = ( -0.4646900  0.5603800  0.7380000  )
        12           C   tau(  12) = ( -0.0219000  0.5658700  0.2817000  )
        13           H   tau(  13) = ( -0.1576000  0.5272000  0.2390000  )
        14           H   tau(  14) = ( -0.0030000  0.6246000  0.1882000  )
        15           H   tau(  15) = (  0.4970000 -0.1246000  0.6882000  )
        16           H   tau(  16) = (  0.3424000 -0.0272000  0.7390000  )
        17           C   tau(  17) = (  0.4781000 -0.0658700  0.7817000  )
        18           O   tau(  18) = (  0.0353100 -0.0603800  1.2380000  )
        19           H   tau(  19) = (  0.2845000 -0.1953000  1.1036000  )
        20           H   tau(  20) = (  0.1815000 -0.0908000  0.9638000  )
        21           C   tau(  21) = (  0.3092000 -0.1152200  1.0532000  )
        22           O   tau(  22) = (  0.6409000 -0.2476200  1.1832000  )
        23           N   tau(  23) = (  0.1979000 -0.0014300  1.2936000  )
        24           O   tau(  24) = (  0.2276000  0.0712900  1.4225500  )
        25           N   tau(  25) = (  0.3573000 -0.0254300  1.2057000  )
        26           N   tau(  26) = (  0.6401000 -0.2031300  1.0309000  )
        27           O   tau(  27) = (  0.7716000 -0.2197400  0.9361000  )
        28           N   tau(  28) = (  0.4812700 -0.1228100  0.9608100  )
        29           H   tau(  29) = (  0.0030000  0.3754000  0.8118000  )
        30           H   tau(  30) = (  0.1576000  0.4728000  0.7610000  )
        31           C   tau(  31) = (  0.0219000  0.4341300  0.7183000  )
        32           O   tau(  32) = (  0.4646900  0.4396200  0.2620000  )
        33           H   tau(  33) = (  0.2155000  0.3047000  0.3964000  )
        34           H   tau(  34) = (  0.3185000  0.4092000  0.5362000  )
        35           C   tau(  35) = (  0.1908000  0.3847800  0.4468000  )
        36           O   tau(  36) = ( -0.1409000  0.2523800  0.3168000  )
        37           N   tau(  37) = (  0.3021000  0.4985700  0.2064000  )
        38           O   tau(  38) = (  0.2724000  0.5712900  0.0774500  )
        39           N   tau(  39) = (  0.1427000  0.4745700  0.2943000  )
        40           N   tau(  40) = ( -0.1401000  0.2968700  0.4691000  )
        41           O   tau(  41) = ( -0.2716000  0.2802600  0.5639000  )
        42           N   tau(  42) = (  0.0187300  0.3771900  0.5391900  )
        43           H   tau(  43) = (  0.5030000  0.1246000  1.3118000  )
        44           H   tau(  44) = (  0.6576000  0.0272000  1.2610000  )
        45           C   tau(  45) = (  0.5219000  0.0658700  1.2183000  )
        46           O   tau(  46) = (  0.9646900  0.0603800  0.7620000  )
        47           H   tau(  47) = (  0.7155000  0.1953000  0.8964000  )
        48           H   tau(  48) = (  0.8185000  0.0908000  1.0362000  )
        49           C   tau(  49) = (  0.6908000  0.1152200  0.9468000  )
        50           O   tau(  50) = (  0.3591000  0.2476200  0.8168000  )
        51           N   tau(  51) = (  0.8021000  0.0014300  0.7064000  )
        52           O   tau(  52) = (  0.7724000 -0.0712900  0.5774500  )
        53           N   tau(  53) = (  0.6427000  0.0254300  0.7943000  )
        54           N   tau(  54) = (  0.3599000  0.2031300  0.9691000  )
        55           O   tau(  55) = (  0.2284000  0.2197400  1.0639000  )
        56           N   tau(  56) = (  0.5187300  0.1228100  1.0391900  )

     number of k points=    16
                       cart. coord. in units 2pi/alat
        k(    1) = (   0.0191559   0.0227890   0.0217001), wk =   0.1250000
        k(    2) = (   0.0191559   0.0227890   0.0565492), wk =   0.1250000
        k(    3) = (   0.0191559   0.0227890  -0.0479981), wk =   0.1250000
        k(    4) = (   0.0191559   0.0227890  -0.0131490), wk =   0.1250000
        k(    5) = (   0.0574677   0.0227890   0.0302512), wk =   0.1250000
        k(    6) = (   0.0574677   0.0227890   0.0651003), wk =   0.1250000
        k(    7) = (   0.0574677   0.0227890  -0.0394471), wk =   0.1250000
        k(    8) = (   0.0574677   0.0227890  -0.0045979), wk =   0.1250000
        k(    9) = (  -0.0191559   0.0227890  -0.0217001), wk =   0.1250000
        k(   10) = (  -0.0191559   0.0227890  -0.0565492), wk =   0.1250000
        k(   11) = (  -0.0191559   0.0227890   0.0479981), wk =   0.1250000
        k(   12) = (  -0.0191559   0.0227890   0.0131490), wk =   0.1250000
        k(   13) = (  -0.0574677   0.0227890  -0.0302512), wk =   0.1250000
        k(   14) = (  -0.0574677   0.0227890  -0.0651003), wk =   0.1250000
        k(   15) = (  -0.0574677   0.0227890   0.0394471), wk =   0.1250000
        k(   16) = (  -0.0574677   0.0227890   0.0045979), wk =   0.1250000

                       cryst. coord.
        k(    1) = (   0.1250000   0.2500000   0.1250000), wk =   0.1250000
        k(    2) = (   0.1250000   0.2500000   0.3750000), wk =   0.1250000
        k(    3) = (   0.1250000   0.2500000  -0.3750000), wk =   0.1250000
        k(    4) = (   0.1250000   0.2500000  -0.1250000), wk =   0.1250000
        k(    5) = (   0.3750000   0.2500000   0.1250000), wk =   0.1250000
        k(    6) = (   0.3750000   0.2500000   0.3750000), wk =   0.1250000
        k(    7) = (   0.3750000   0.2500000  -0.3750000), wk =   0.1250000
        k(    8) = (   0.3750000   0.2500000  -0.1250000), wk =   0.1250000
        k(    9) = (  -0.1250000   0.2500000  -0.1250000), wk =   0.1250000
        k(   10) = (  -0.1250000   0.2500000  -0.3750000), wk =   0.1250000
        k(   11) = (  -0.1250000   0.2500000   0.3750000), wk =   0.1250000
        k(   12) = (  -0.1250000   0.2500000   0.1250000), wk =   0.1250000
        k(   13) = (  -0.3750000   0.2500000  -0.1250000), wk =   0.1250000
        k(   14) = (  -0.3750000   0.2500000  -0.3750000), wk =   0.1250000
        k(   15) = (  -0.3750000   0.2500000   0.3750000), wk =   0.1250000
        k(   16) = (  -0.3750000   0.2500000   0.1250000), wk =   0.1250000

     Dense  grid:  1324263 G-vectors     FFT dimensions: ( 120, 192, 125)

     Smooth grid:   334983 G-vectors     FFT dimensions: (  72, 120,  80)

     Largest allocated arrays     est. size (Mb)     dimensions
        Kohn-Sham Wavefunctions         2.26 Mb     (    1321,  112)
        NL pseudopotentials             7.10 Mb     (    1321,  352)
        Each V/rho on FFT grid          1.41 Mb     (   92160)
        Each G-vector array             0.32 Mb     (   41384)
        G-vector shells                 0.31 Mb     (   40266)
     Largest temporary arrays     est. size (Mb)     dimensions
        Auxiliary wavefunctions         9.03 Mb     (    1321,  448)
        Each subspace H/S matrix        3.06 Mb     (     448,  448)
        Each <psi_i|beta_j> matrix      0.60 Mb     (     352,  112)
        Arrays for rho mixing          11.25 Mb     (   92160,    8)

     Initial potential from superposition of free atoms

     starting charge  223.99937, renormalised to  224.00000
     Starting wfc are  176 randomized atomic wfcs
     Checking if some PAW data can be deallocated... 
       node    0, deallocated PAW data for type:  2
       node    0, deallocated PAW data for type:  3
       node    1, deallocated PAW data for type:  2
       node    1, deallocated PAW data for type:  3
       node    1, deallocated PAW data for type:  4
       node    2, deallocated PAW data for type:  2
       node    2, deallocated PAW data for type:  3
       node    3, deallocated PAW data for type:  1
       node    3, deallocated PAW data for type:  3
       node    4, deallocated PAW data for type:  1
       node    4, deallocated PAW data for type:  2
       node    4, deallocated PAW data for type:  4
       node    5, deallocated PAW data for type:  1
       node    5, deallocated PAW data for type:  3
       node    6, deallocated PAW data for type:  1
       node    6, deallocated PAW data for type:  2
       node    6, deallocated PAW data for type:  4
       node    7, deallocated PAW data for type:  1
       node    7, deallocated PAW data for type:  2
       node    7, deallocated PAW data for type:  4
       node    8, deallocated PAW data for type:  1
       node    8, deallocated PAW data for type:  3
       node    9, deallocated PAW data for type:  1
       node    9, deallocated PAW data for type:  2
       node    9, deallocated PAW data for type:  4
       node   10, deallocated PAW data for type:  1
       node   10, deallocated PAW data for type:  3
       node   11, deallocated PAW data for type:  2
       node   11, deallocated PAW data for type:  3
       node   12, deallocated PAW data for type:  2
       node   12, deallocated PAW data for type:  3
       node   12, deallocated PAW data for type:  4
       node   13, deallocated PAW data for type:  2
       node   13, deallocated PAW data for type:  3
       node   14, deallocated PAW data for type:  1
       node   14, deallocated PAW data for type:  2
       node   14, deallocated PAW data for type:  4
       node   15, deallocated PAW data for type:  1
       node   15, deallocated PAW data for type:  3
       node   16, deallocated PAW data for type:  1
       node   16, deallocated PAW data for type:  2
       node   16, deallocated PAW data for type:  4
       node   17, deallocated PAW data for type:  1
       node   17, deallocated PAW data for type:  3
       node   18, deallocated PAW data for type:  2
       node   18, deallocated PAW data for type:  3
       node   19, deallocated PAW data for type:  2
       node   19, deallocated PAW data for type:  3
       node   19, deallocated PAW data for type:  4
       node   20, deallocated PAW data for type:  2
       node   20, deallocated PAW data for type:  3
       node   21, deallocated PAW data for type:  1
       node   21, deallocated PAW data for type:  2
       node   21, deallocated PAW data for type:  4
       node   22, deallocated PAW data for type:  1
       node   22, deallocated PAW data for type:  3
       node   23, deallocated PAW data for type:  1
       node   23, deallocated PAW data for type:  2
       node   23, deallocated PAW data for type:  4
       node   24, deallocated PAW data for type:  1
       node   24, deallocated PAW data for type:  3
       node   24, deallocated PAW data for type:  4
       node   25, deallocated PAW data for type:  1
       node   25, deallocated PAW data for type:  2
       node   25, deallocated PAW data for type:  3
       node   26, deallocated PAW data for type:  2
       node   26, deallocated PAW data for type:  3
       node   26, deallocated PAW data for type:  4
       node   27, deallocated PAW data for type:  1
       node   27, deallocated PAW data for type:  2
       node   27, deallocated PAW data for type:  3
       node   28, deallocated PAW data for type:  2
       node   28, deallocated PAW data for type:  3
       node   28, deallocated PAW data for type:  4
       node   29, deallocated PAW data for type:  2
       node   29, deallocated PAW data for type:  3
       node   29, deallocated PAW data for type:  4
       node   30, deallocated PAW data for type:  1
       node   30, deallocated PAW data for type:  2
       node   30, deallocated PAW data for type:  3
       node   31, deallocated PAW data for type:  2
       node   31, deallocated PAW data for type:  3
       node   31, deallocated PAW data for type:  4

     total cpu time spent up to now is      124.2 secs

     per-process dynamical memory:    81.4 Mb

     Self-consistent Calculation

     iteration #  1     ecut=    80.00 Ry     beta=0.70
     Davidson diagonalization with overlap
     ethr =  1.00E-02,  avg # of iterations =  3.0

     total cpu time spent up to now is      312.4 secs

     total energy              =   -1279.62706100 Ry
     Harris-Foulkes estimate   =   -1283.96757015 Ry
     estimated scf accuracy    <       6.68510869 Ry

     iteration #  2     ecut=    80.00 Ry     beta=0.70
     Davidson diagonalization with overlap
     ethr =  2.98E-03,  avg # of iterations =  4.0

     total cpu time spent up to now is      530.1 secs

     total energy              =   -1280.30288926 Ry
     Harris-Foulkes estimate   =   -1283.81052515 Ry
     estimated scf accuracy    <       7.08184332 Ry

     iteration #  3     ecut=    80.00 Ry     beta=0.70
     Davidson diagonalization with overlap
     ethr =  2.98E-03,  avg # of iterations =  4.6

     total cpu time spent up to now is      697.5 secs

     total energy              =   -1281.82205516 Ry
     Harris-Foulkes estimate   =   -1282.05155056 Ry
     estimated scf accuracy    <       0.42611174 Ry

     iteration #  4     ecut=    80.00 Ry     beta=0.70
     Davidson diagonalization with overlap
     ethr =  1.90E-04,  avg # of iterations =  4.9

     total cpu time spent up to now is      912.5 secs

     total energy              =   -1281.96751295 Ry
     Harris-Foulkes estimate   =   -1282.05516214 Ry
     estimated scf accuracy    <       0.19334348 Ry

     iteration #  5     ecut=    80.00 Ry     beta=0.70
     Davidson diagonalization with overlap
     ethr =  8.63E-05,  avg # of iterations =  4.0

     total cpu time spent up to now is     1078.2 secs

     total energy              =   -1282.00717831 Ry
     Harris-Foulkes estimate   =   -1282.01578112 Ry
     estimated scf accuracy    <       0.02118883 Ry

     iteration #  6     ecut=    80.00 Ry     beta=0.70
     Davidson diagonalization with overlap
     ethr =  9.46E-06,  avg # of iterations =  5.6

     total cpu time spent up to now is     1228.8 secs

     total energy              =   -1282.00923451 Ry
     Harris-Foulkes estimate   =   -1282.01064665 Ry
     estimated scf accuracy    <       0.00360330 Ry

     iteration #  7     ecut=    80.00 Ry     beta=0.70
     Davidson diagonalization with overlap
     ethr =  1.61E-06,  avg # of iterations =  4.9

     total cpu time spent up to now is     1475.4 secs

     total energy              =   -1282.01153897 Ry
     Harris-Foulkes estimate   =   -1282.01259960 Ry
     estimated scf accuracy    <       0.00363108 Ry

     iteration #  8     ecut=    80.00 Ry     beta=0.70
     Davidson diagonalization with overlap
     ethr =  1.61E-06,  avg # of iterations =  1.0

     total cpu time spent up to now is     1588.4 secs

     total energy              =   -1282.01060237 Ry
     Harris-Foulkes estimate   =   -1282.01160728 Ry
     estimated scf accuracy    <       0.00194247 Ry

     iteration #  9     ecut=    80.00 Ry     beta=0.70
     Davidson diagonalization with overlap
     ethr =  8.67E-07,  avg # of iterations =  5.0

     total cpu time spent up to now is     1814.6 secs

     total energy              =   -1282.01191157 Ry
     Harris-Foulkes estimate   =   -1282.01287925 Ry
     estimated scf accuracy    <       0.00509266 Ry

     iteration # 10     ecut=    80.00 Ry     beta=0.70
     Davidson diagonalization with overlap
     ethr =  8.67E-07,  avg # of iterations =  1.0

     total cpu time spent up to now is     1924.6 secs

     total energy              =   -1282.01076060 Ry
     Harris-Foulkes estimate   =   -1282.01194152 Ry
     estimated scf accuracy    <       0.00352403 Ry

     iteration # 11     ecut=    80.00 Ry     beta=0.70
     Davidson diagonalization with overlap
     ethr =  8.67E-07,  avg # of iterations =  5.0

     total cpu time spent up to now is     2106.4 secs

     total energy              =   -1282.01186244 Ry
     Harris-Foulkes estimate   =   -1282.01201318 Ry
     estimated scf accuracy    <       0.00058186 Ry

     iteration # 12     ecut=    80.00 Ry     beta=0.70
     Davidson diagonalization with overlap
     ethr =  2.60E-07,  avg # of iterations =  1.0

     total cpu time spent up to now is     2215.2 secs

     total energy              =   -1282.01173015 Ry
     Harris-Foulkes estimate   =   -1282.01187093 Ry
     estimated scf accuracy    <       0.00034037 Ry

     iteration # 13     ecut=    80.00 Ry     beta=0.70
     Davidson diagonalization with overlap
     ethr =  1.52E-07,  avg # of iterations =  5.0

     total cpu time spent up to now is     2401.9 secs

     total energy              =   -1282.01189984 Ry
     Harris-Foulkes estimate   =   -1282.01195858 Ry
     estimated scf accuracy    <       0.00028397 Ry

     iteration # 14     ecut=    80.00 Ry     beta=0.70
     Davidson diagonalization with overlap
     ethr =  1.27E-07,  avg # of iterations =  1.0

     total cpu time spent up to now is     2511.5 secs

     total energy              =   -1282.01186076 Ry
     Harris-Foulkes estimate   =   -1282.01190187 Ry
     estimated scf accuracy    <       0.00019030 Ry

     iteration # 15     ecut=    80.00 Ry     beta=0.70
     Davidson diagonalization with overlap
     ethr =  8.50E-08,  avg # of iterations =  5.0

     total cpu time spent up to now is     2669.5 secs

     total energy              =   -1282.01190872 Ry
     Harris-Foulkes estimate   =   -1282.01190291 Ry
     estimated scf accuracy    <       0.00000105 Ry

     iteration # 16     ecut=    80.00 Ry     beta=0.70
     Davidson diagonalization with overlap
     ethr =  4.68E-10,  avg # of iterations =  6.0

     total cpu time spent up to now is     2943.7 secs

     total energy              =   -1282.01189657 Ry
     Harris-Foulkes estimate   =   -1282.01192490 Ry
     estimated scf accuracy    <       0.00010788 Ry

     iteration # 17     ecut=    80.00 Ry     beta=0.70
     Davidson diagonalization with overlap
     ethr =  4.68E-10,  avg # of iterations =  6.0

     total cpu time spent up to now is     3212.4 secs

     total energy              =   -1282.01190327 Ry
     Harris-Foulkes estimate   =   -1282.01190523 Ry
     estimated scf accuracy    <       0.00000826 Ry

     iteration # 18     ecut=    80.00 Ry     beta=0.70
     Davidson diagonalization with overlap
     ethr =  4.68E-10,  avg # of iterations =  5.0

     total cpu time spent up to now is     3404.4 secs

     End of self-consistent calculation

          k = 0.0192 0.0228 0.0217 ( 41880 PWs)   bands (ev):

   -23.9393 -23.9224 -23.9041 -23.8974 -23.6477 -23.6403 -23.6391 -23.6368
   -19.1680 -19.1644 -19.1528 -19.1440 -18.8483 -18.8482 -18.8436 -18.8427
   -18.2488 -18.2295 -17.2238 -17.1853 -17.0674 -17.0657 -16.0486 -16.0385
   -12.1049 -12.1029 -12.0715 -11.9883 -11.8871 -11.8369 -11.7759 -11.7605
    -8.8821  -8.8521  -8.2834  -8.2553  -7.5678  -7.5356  -7.4432  -7.4419
    -6.8549  -6.7701  -6.5873  -6.5279  -6.5136  -6.4320  -6.3415  -6.2869
    -6.1422  -6.1133  -6.0417  -5.9634  -5.9054  -5.8354  -5.7624  -5.7330
    -5.6402  -5.6201  -5.5497  -5.5162  -5.1186  -5.0172  -4.9572  -4.9362
    -4.4718  -4.4628  -4.4055  -4.3757  -4.2258  -4.1421  -3.8565  -3.8494
    -3.6866  -3.5978  -3.5301  -3.4971  -3.1621  -3.1327  -3.0493  -3.0349
    -0.7999  -0.7957  -0.3105  -0.3032  -0.2237  -0.1691  -0.1133  -0.1034
    -0.0059   0.0120   0.1816   0.2028   0.2251   0.2413   0.3812   0.3911
     0.4272   0.4522   0.6364   0.6812   0.7600   0.7891   0.8706   0.9072
     0.9214   1.0143   1.0712   1.1199   1.2270   1.3277   1.3703   1.3857

     occupation numbers 
     1.0000   1.0000   1.0000   1.0000   1.0000   1.0000   1.0000   1.0000
     1.0000   1.0000   1.0000   1.0000   1.0000   1.0000   1.0000   1.0000
     1.0000   1.0000   1.0000   1.0000   1.0000   1.0000   1.0000   1.0000
     1.0000   1.0000   1.0000   1.0000   1.0000   1.0000   1.0000   1.0000
     1.0000   1.0000   1.0000   1.0000   1.0000   1.0000   1.0000   1.0000
     1.0000   1.0000   1.0000   1.0000   1.0000   1.0000   1.0000   1.0000
     1.0000   1.0000   1.0000   1.0000   1.0000   1.0000   1.0000   1.0000
     1.0000   1.0000   1.0000   1.0000   1.0000   1.0000   1.0000   1.0000
     1.0000   1.0000   1.0000   1.0000   1.0000   1.0000   1.0000   1.0000
     1.0000   1.0000   1.0000   1.0000   1.0000   1.0000   1.0000   1.0000
     1.0000   1.0000   1.0000   1.0000   1.0000   1.0000   1.0000   1.0000
     1.0000   1.0000   1.0000   1.0000   1.0000   1.0000   1.0000   1.0000
     1.0000   1.0000   1.0000   1.0000   1.0000   1.0000   1.0000   1.0000
     1.0000   1.0000   1.0000   1.0000   1.0000   1.0000   1.0000   1.0000

          k = 0.0192 0.0228 0.0565 ( 41879 PWs)   bands (ev):

   -23.9321 -23.9249 -23.9029 -23.9019 -23.6500 -23.6475 -23.6357 -23.6322
   -19.1662 -19.1632 -19.1540 -19.1474 -18.8543 -18.8537 -18.8387 -18.8375
   -18.2398 -18.2397 -17.2055 -17.2036 -17.0630 -17.0611 -16.0455 -16.0442
   -12.1133 -12.1119 -12.0266 -12.0111 -11.8618 -11.8536 -11.7861 -11.7795
    -8.8625  -8.8350  -8.2661  -8.2471  -7.5783  -7.5405  -7.4181  -7.3602
    -6.9026  -6.8117  -6.5862  -6.5657  -6.5276  -6.4372  -6.3854  -6.3574
    -6.1721  -6.1416  -5.9815  -5.9173  -5.8854  -5.8278  -5.8033  -5.7723
    -5.7132  -5.6599  -5.4825  -5.4460  -5.1120  -5.0420  -4.9521  -4.9126
    -4.4148  -4.4004  -4.3662  -4.3058  -4.1571  -4.1340  -3.9718  -3.9691
    -3.6740  -3.6359  -3.4722  -3.4634  -3.1862  -3.1810  -3.0376  -3.0172
    -0.7639  -0.7380  -0.3238  -0.3115  -0.2309  -0.1921  -0.1448  -0.1225
    -0.0680  -0.0364   0.0930   0.1355   0.2347   0.2768   0.3359   0.3520
     0.5533   0.6018   0.6570   0.6923   0.7776   0.7934   0.8222   0.8701
     0.9824   1.0171   1.0999   1.1183   1.2332   1.2866   1.3733   1.3918

     occupation numbers 
     1.0000   1.0000   1.0000   1.0000   1.0000   1.0000   1.0000   1.0000
     1.0000   1.0000   1.0000   1.0000   1.0000   1.0000   1.0000   1.0000
     1.0000   1.0000   1.0000   1.0000   1.0000   1.0000   1.0000   1.0000
     1.0000   1.0000   1.0000   1.0000   1.0000   1.0000   1.0000   1.0000
     1.0000   1.0000   1.0000   1.0000   1.0000   1.0000   1.0000   1.0000
     1.0000   1.0000   1.0000   1.0000   1.0000   1.0000   1.0000   1.0000
     1.0000   1.0000   1.0000   1.0000   1.0000   1.0000   1.0000   1.0000
     1.0000   1.0000   1.0000   1.0000   1.0000   1.0000   1.0000   1.0000
     1.0000   1.0000   1.0000   1.0000   1.0000   1.0000   1.0000   1.0000
     1.0000   1.0000   1.0000   1.0000   1.0000   1.0000   1.0000   1.0000
     1.0000   1.0000   1.0000   1.0000   1.0000   1.0000   1.0000   1.0000
     1.0000   1.0000   1.0000   1.0000   1.0000   1.0000   1.0000   1.0000
     1.0000   1.0000   1.0000   1.0000   1.0000   1.0000   1.0000   1.0000
     1.0000   1.0000   1.0000   1.0000   1.0000   1.0000   1.0000   1.0000

          k = 0.0192 0.0228-0.0480 ( 41887 PWs)   bands (ev):

   -23.9331 -23.9248 -23.9054 -23.8985 -23.6516 -23.6492 -23.6328 -23.6318
   -19.1641 -19.1629 -19.1524 -19.1515 -18.8559 -18.8554 -18.8369 -18.8358
   -18.2488 -18.2297 -17.2221 -17.1865 -17.0658 -17.0644 -16.0475 -16.0355
   -12.1221 -12.1123 -12.0548 -11.9913 -11.8792 -11.8251 -11.7881 -11.7778
    -8.8664  -8.8024  -8.2565  -8.2539  -7.5758  -7.5649  -7.4274  -7.3392
    -6.9053  -6.8210  -6.6005  -6.5591  -6.5089  -6.4842  -6.4082  -6.3765
    -6.1721  -6.1511  -5.9862  -5.9492  -5.8276  -5.7988  -5.7884  -5.7640
    -5.7131  -5.6543  -5.4785  -5.4330  -5.1257  -5.0495  -4.9354  -4.8922
    -4.4497  -4.3983  -4.3337  -4.2935  -4.1861  -4.1538  -3.9718  -3.9338
    -3.6785  -3.6381  -3.5164  -3.4532  -3.1892  -3.1710  -3.0330  -3.0260
    -0.6967  -0.6510  -0.3160  -0.3091  -0.2639  -0.2413  -0.1837  -0.1584
    -0.1032  -0.0922   0.0609   0.1198   0.2529   0.2807   0.3006   0.3450
     0.5987   0.6613   0.7016   0.7144   0.7376   0.8124   0.8483   0.8582
     0.9832   1.0197   1.1180   1.1591   1.2314   1.2522   1.3617   1.3775

     occupation numbers 
     1.0000   1.0000   1.0000   1.0000   1.0000   1.0000   1.0000   1.0000
     1.0000   1.0000   1.0000   1.0000   1.0000   1.0000   1.0000   1.0000
     1.0000   1.0000   1.0000   1.0000   1.0000   1.0000   1.0000   1.0000
     1.0000   1.0000   1.0000   1.0000   1.0000   1.0000   1.0000   1.0000
     1.0000   1.0000   1.0000   1.0000   1.0000   1.0000   1.0000   1.0000
     1.0000   1.0000   1.0000   1.0000   1.0000   1.0000   1.0000   1.0000
     1.0000   1.0000   1.0000   1.0000   1.0000   1.0000   1.0000   1.0000
     1.0000   1.0000   1.0000   1.0000   1.0000   1.0000   1.0000   1.0000
     1.0000   1.0000   1.0000   1.0000   1.0000   1.0000   1.0000   1.0000
     1.0000   1.0000   1.0000   1.0000   1.0000   1.0000   1.0000   1.0000
     1.0000   1.0000   1.0000   1.0000   1.0000   1.0000   1.0000   1.0000
     1.0000   1.0000   1.0000   1.0000   1.0000   1.0000   1.0000   1.0000
     1.0000   1.0000   1.0000   1.0000   1.0000   1.0000   1.0000   1.0000
     1.0000   1.0000   1.0000   1.0000   1.0000   1.0000   1.0000   1.0000

          k = 0.0192 0.0228-0.0131 ( 41891 PWs)   bands (ev):

   -23.9398 -23.9229 -23.9046 -23.8958 -23.6503 -23.6437 -23.6355 -23.6343
   -19.1669 -19.1633 -19.1532 -19.1460 -18.8520 -18.8515 -18.8396 -18.8396
   -18.2522 -18.2250 -17.2305 -17.1779 -17.0699 -17.0694 -16.0481 -16.0324
   -12.1168 -12.1054 -12.0770 -11.9899 -11.8841 -11.8272 -11.7739 -11.7605
    -8.8875  -8.8182  -8.2785  -8.2577  -7.5734  -7.5557  -7.4681  -7.4044
    -6.8213  -6.8016  -6.6041  -6.5247  -6.5125  -6.4661  -6.3738  -6.3192
    -6.1467  -6.1206  -6.0154  -5.9724  -5.8637  -5.8259  -5.7370  -5.7286
    -5.6486  -5.6182  -5.5272  -5.5161  -5.1041  -5.0583  -4.9367  -4.9021
    -4.4750  -4.4630  -4.4089  -4.3793  -4.2353  -4.1521  -3.8578  -3.8130
    -3.7118  -3.6054  -3.5417  -3.5001  -3.1667  -3.1293  -3.0449  -3.0403
    -0.7497  -0.7328  -0.2998  -0.2927  -0.2265  -0.1789  -0.1214  -0.1015
    -0.0857  -0.0489   0.0755   0.1251   0.1954   0.2578   0.3322   0.3829
     0.5638   0.6013   0.6235   0.7099   0.7385   0.7951   0.8880   0.8923
     0.9370   0.9984   1.0994   1.1498   1.2192   1.3092   1.3564   1.3722

     occupation numbers 
     1.0000   1.0000   1.0000   1.0000   1.0000   1.0000   1.0000   1.0000
     1.0000   1.0000   1.0000   1.0000   1.0000   1.0000   1.0000   1.0000
     1.0000   1.0000   1.0000   1.0000   1.0000   1.0000   1.0000   1.0000
     1.0000   1.0000   1.0000   1.0000   1.0000   1.0000   1.0000   1.0000
     1.0000   1.0000   1.0000   1.0000   1.0000   1.0000   1.0000   1.0000
     1.0000   1.0000   1.0000   1.0000   1.0000   1.0000   1.0000   1.0000
     1.0000   1.0000   1.0000   1.0000   1.0000   1.0000   1.0000   1.0000
     1.0000   1.0000   1.0000   1.0000   1.0000   1.0000   1.0000   1.0000
     1.0000   1.0000   1.0000   1.0000   1.0000   1.0000   1.0000   1.0000
     1.0000   1.0000   1.0000   1.0000   1.0000   1.0000   1.0000   1.0000
     1.0000   1.0000   1.0000   1.0000   1.0000   1.0000   1.0000   1.0000
     1.0000   1.0000   1.0000   1.0000   1.0000   1.0000   1.0000   1.0000
     1.0000   1.0000   1.0000   1.0000   1.0000   1.0000   1.0000   1.0000
     1.0000   1.0000   1.0000   1.0000   1.0000   1.0000   1.0000   1.0000

          k = 0.0575 0.0228 0.0303 ( 41855 PWs)   bands (ev):

   -23.9295 -23.9218 -23.9036 -23.9029 -23.6468 -23.6445 -23.6403 -23.6366
   -19.1659 -19.1633 -19.1548 -19.1482 -18.8508 -18.8499 -18.8420 -18.8410
   -18.2461 -18.2461 -17.2032 -17.2015 -17.0676 -17.0661 -16.0462 -16.0447
   -12.1023 -12.1019 -11.9956 -11.9803 -11.8365 -11.8247 -11.7856 -11.7739
    -8.8821  -8.8567  -8.2827  -8.2655  -7.5590  -7.5400  -7.5097  -7.4651
    -6.9857  -6.9354  -6.6373  -6.5494  -6.4719  -6.4353  -6.2820  -6.2291
    -6.2086  -6.1556  -6.0061  -5.9530  -5.8931  -5.8474  -5.7697  -5.7402
    -5.6451  -5.6163  -5.5523  -5.5402  -5.1380  -5.0528  -4.9209  -4.9139
    -4.4516  -4.4322  -4.3843  -4.3457  -4.0330  -3.9891  -3.8049  -3.7787
    -3.7301  -3.6526  -3.5895  -3.5793  -3.1603  -3.1556  -3.0531  -3.0295
    -0.7538  -0.7429  -0.2920  -0.2868  -0.2231  -0.1994  -0.1130  -0.0820
    -0.0690  -0.0418   0.1140   0.1362   0.2027   0.2235   0.3493   0.3678
     0.5859   0.5941   0.6444   0.6891   0.7766   0.7867   0.8656   0.8911
     0.9365   0.9836   1.0117   1.0525   1.2913   1.3140   1.3561   1.3843

     occupation numbers 
     1.0000   1.0000   1.0000   1.0000   1.0000   1.0000   1.0000   1.0000
     1.0000   1.0000   1.0000   1.0000   1.0000   1.0000   1.0000   1.0000
     1.0000   1.0000   1.0000   1.0000   1.0000   1.0000   1.0000   1.0000
     1.0000   1.0000   1.0000   1.0000   1.0000   1.0000   1.0000   1.0000
     1.0000   1.0000   1.0000   1.0000   1.0000   1.0000   1.0000   1.0000
     1.0000   1.0000   1.0000   1.0000   1.0000   1.0000   1.0000   1.0000
     1.0000   1.0000   1.0000   1.0000   1.0000   1.0000   1.0000   1.0000
     1.0000   1.0000   1.0000   1.0000   1.0000   1.0000   1.0000   1.0000
     1.0000   1.0000   1.0000   1.0000   1.0000   1.0000   1.0000   1.0000
     1.0000   1.0000   1.0000   1.0000   1.0000   1.0000   1.0000   1.0000
     1.0000   1.0000   1.0000   1.0000   1.0000   1.0000   1.0000   1.0000
     1.0000   1.0000   1.0000   1.0000   1.0000   1.0000   1.0000   1.0000
     1.0000   1.0000   1.0000   1.0000   1.0000   1.0000   1.0000   1.0000
     1.0000   1.0000   1.0000   1.0000   1.0000   1.0000   1.0000   1.0000

          k = 0.0575 0.0228 0.0651 ( 41879 PWs)   bands (ev):

   -23.9260 -23.9238 -23.9065 -23.9002 -23.6465 -23.6463 -23.6420 -23.6346
   -19.1665 -19.1646 -19.1551 -19.1475 -18.8604 -18.8587 -18.8345 -18.8318
   -18.2579 -18.2391 -17.2182 -17.1845 -17.0580 -17.0553 -16.0597 -16.0454
   -12.1154 -12.1121 -12.0184 -11.9600 -11.8320 -11.7965 -11.7904 -11.7786
    -8.9165  -8.8230  -8.2765  -8.2485  -7.5556  -7.5348  -7.4753  -7.3675
    -7.0681  -6.9109  -6.6277  -6.5166  -6.4958  -6.4526  -6.3999  -6.3066
    -6.2625  -6.1807  -5.9838  -5.9582  -5.9116  -5.8734  -5.8061  -5.7501
    -5.6284  -5.5887  -5.4950  -5.4411  -5.1462  -5.0197  -4.9785  -4.9298
    -4.3943  -4.3697  -4.3309  -4.2821  -3.9945  -3.9660  -3.9065  -3.8770
    -3.7543  -3.6868  -3.5820  -3.5141  -3.2000  -3.1796  -3.0443  -3.0001
    -0.8262  -0.7935  -0.2972  -0.2693  -0.2201  -0.2003  -0.1036  -0.0784
    -0.0147   0.0077   0.1824   0.2043   0.2299   0.2491   0.3217   0.4001
     0.4853   0.5011   0.5838   0.6778   0.7490   0.7984   0.8482   0.8764
     0.9636   1.0049   1.0289   1.0582   1.3047   1.3325   1.3619   1.3955

     occupation numbers 
     1.0000   1.0000   1.0000   1.0000   1.0000   1.0000   1.0000   1.0000
     1.0000   1.0000   1.0000   1.0000   1.0000   1.0000   1.0000   1.0000
     1.0000   1.0000   1.0000   1.0000   1.0000   1.0000   1.0000   1.0000
     1.0000   1.0000   1.0000   1.0000   1.0000   1.0000   1.0000   1.0000
     1.0000   1.0000   1.0000   1.0000   1.0000   1.0000   1.0000   1.0000
     1.0000   1.0000   1.0000   1.0000   1.0000   1.0000   1.0000   1.0000
     1.0000   1.0000   1.0000   1.0000   1.0000   1.0000   1.0000   1.0000
     1.0000   1.0000   1.0000   1.0000   1.0000   1.0000   1.0000   1.0000
     1.0000   1.0000   1.0000   1.0000   1.0000   1.0000   1.0000   1.0000
     1.0000   1.0000   1.0000   1.0000   1.0000   1.0000   1.0000   1.0000
     1.0000   1.0000   1.0000   1.0000   1.0000   1.0000   1.0000   1.0000
     1.0000   1.0000   1.0000   1.0000   1.0000   1.0000   1.0000   1.0000
     1.0000   1.0000   1.0000   1.0000   1.0000   1.0000   1.0000   1.0000
     1.0000   1.0000   1.0000   1.0000   1.0000   1.0000   1.0000   1.0000

          k = 0.0575 0.0228-0.0394 ( 41862 PWs)   bands (ev):

   -23.9277 -23.9233 -23.9074 -23.8983 -23.6496 -23.6487 -23.6380 -23.6331
   -19.1647 -19.1637 -19.1555 -19.1499 -18.8614 -18.8598 -18.8334 -18.8307
   -18.2613 -18.2346 -17.2256 -17.1762 -17.0609 -17.0586 -16.0586 -16.0399
   -12.1195 -12.1144 -12.0387 -11.9498 -11.8399 -11.7951 -11.7843 -11.7686
    -8.9097  -8.8014  -8.2720  -8.2497  -7.5575  -7.5337  -7.4968  -7.3577
    -7.0802  -6.9092  -6.6215  -6.5349  -6.5030  -6.4764  -6.4239  -6.3406
    -6.2457  -6.1776  -5.9775  -5.9255  -5.8874  -5.8786  -5.8019  -5.7603
    -5.6060  -5.5820  -5.4981  -5.4380  -5.1474  -5.0498  -4.9473  -4.9093
    -4.4044  -4.3733  -4.3135  -4.2848  -4.0212  -4.0041  -3.8572  -3.8514
    -3.7163  -3.7062  -3.6330  -3.5266  -3.2021  -3.1743  -3.0427  -3.0057
    -0.7819  -0.7319  -0.2915  -0.2534  -0.2332  -0.2063  -0.1133  -0.0966
    -0.0819  -0.0388   0.1174   0.1784   0.2277   0.2617   0.2774   0.3125
     0.5540   0.6077   0.6565   0.6647   0.7648   0.7863   0.8586   0.8739
     0.9640   0.9926   1.0544   1.1028   1.3180   1.3326   1.3385   1.3604

     occupation numbers 
     1.0000   1.0000   1.0000   1.0000   1.0000   1.0000   1.0000   1.0000
     1.0000   1.0000   1.0000   1.0000   1.0000   1.0000   1.0000   1.0000
     1.0000   1.0000   1.0000   1.0000   1.0000   1.0000   1.0000   1.0000
     1.0000   1.0000   1.0000   1.0000   1.0000   1.0000   1.0000   1.0000
     1.0000   1.0000   1.0000   1.0000   1.0000   1.0000   1.0000   1.0000
     1.0000   1.0000   1.0000   1.0000   1.0000   1.0000   1.0000   1.0000
     1.0000   1.0000   1.0000   1.0000   1.0000   1.0000   1.0000   1.0000
     1.0000   1.0000   1.0000   1.0000   1.0000   1.0000   1.0000   1.0000
     1.0000   1.0000   1.0000   1.0000   1.0000   1.0000   1.0000   1.0000
     1.0000   1.0000   1.0000   1.0000   1.0000   1.0000   1.0000   1.0000
     1.0000   1.0000   1.0000   1.0000   1.0000   1.0000   1.0000   1.0000
     1.0000   1.0000   1.0000   1.0000   1.0000   1.0000   1.0000   1.0000
     1.0000   1.0000   1.0000   1.0000   1.0000   1.0000   1.0000   1.0000
     1.0000   1.0000   1.0000   1.0000   1.0000   1.0000   1.0000   1.0000

          k = 0.0575 0.0228-0.0046 ( 41873 PWs)   bands (ev):

   -23.9304 -23.9220 -23.9061 -23.8994 -23.6498 -23.6470 -23.6364 -23.6350
   -19.1639 -19.1627 -19.1534 -19.1525 -18.8534 -18.8526 -18.8392 -18.8383
   -18.2551 -18.2360 -17.2201 -17.1837 -17.0702 -17.0699 -16.0483 -16.0360
   -12.1073 -12.1034 -12.0296 -11.9562 -11.8515 -11.8082 -11.7772 -11.7743
    -8.8863  -8.8235  -8.2748  -8.2706  -7.5601  -7.5525  -7.5284  -7.4486
    -6.9950  -6.9272  -6.6114  -6.5906  -6.4714  -6.4653  -6.3265  -6.3032
    -6.1587  -6.1536  -5.9669  -5.9355  -5.8560  -5.8304  -5.7706  -5.7615
    -5.6349  -5.6166  -5.5482  -5.5417  -5.1126  -5.0954  -4.8961  -4.8916
    -4.4573  -4.4302  -4.3843  -4.3483  -4.0380  -4.0114  -3.7757  -3.7712
    -3.6929  -3.6659  -3.6398  -3.5918  -3.1718  -3.1452  -3.0487  -3.0363
    -0.6966  -0.6595  -0.2944  -0.2825  -0.2222  -0.2091  -0.1829  -0.1753
    -0.0862  -0.0515   0.0739   0.1238   0.1952   0.2290   0.3255   0.3575
     0.5743   0.6303   0.7021   0.7421   0.7601   0.8105   0.8812   0.8948
     0.9414   0.9586   1.0307   1.1003   1.3058   1.3097   1.3331   1.3470

     occupation numbers 
     1.0000   1.0000   1.0000   1.0000   1.0000   1.0000   1.0000   1.0000
     1.0000   1.0000   1.0000   1.0000   1.0000   1.0000   1.0000   1.0000
     1.0000   1.0000   1.0000   1.0000   1.0000   1.0000   1.0000   1.0000
     1.0000   1.0000   1.0000   1.0000   1.0000   1.0000   1.0000   1.0000
     1.0000   1.0000   1.0000   1.0000   1.0000   1.0000   1.0000   1.0000
     1.0000   1.0000   1.0000   1.0000   1.0000   1.0000   1.0000   1.0000
     1.0000   1.0000   1.0000   1.0000   1.0000   1.0000   1.0000   1.0000
     1.0000   1.0000   1.0000   1.0000   1.0000   1.0000   1.0000   1.0000
     1.0000   1.0000   1.0000   1.0000   1.0000   1.0000   1.0000   1.0000
     1.0000   1.0000   1.0000   1.0000   1.0000   1.0000   1.0000   1.0000
     1.0000   1.0000   1.0000   1.0000   1.0000   1.0000   1.0000   1.0000
     1.0000   1.0000   1.0000   1.0000   1.0000   1.0000   1.0000   1.0000
     1.0000   1.0000   1.0000   1.0000   1.0000   1.0000   1.0000   1.0000
     1.0000   1.0000   1.0000   1.0000   1.0000   1.0000   1.0000   1.0000

          k =-0.0192 0.0228-0.0217 ( 41880 PWs)   bands (ev):

   -23.9393 -23.9224 -23.9041 -23.8974 -23.6477 -23.6403 -23.6391 -23.6368
   -19.1680 -19.1644 -19.1528 -19.1440 -18.8483 -18.8482 -18.8436 -18.8427
   -18.2488 -18.2295 -17.2238 -17.1853 -17.0674 -17.0657 -16.0486 -16.0385
   -12.1049 -12.1029 -12.0715 -11.9883 -11.8871 -11.8369 -11.7759 -11.7605
    -8.8821  -8.8521  -8.2834  -8.2553  -7.5678  -7.5356  -7.4432  -7.4419
    -6.8549  -6.7701  -6.5873  -6.5279  -6.5136  -6.4320  -6.3415  -6.2869
    -6.1422  -6.1133  -6.0417  -5.9634  -5.9054  -5.8354  -5.7624  -5.7330
    -5.6402  -5.6201  -5.5497  -5.5162  -5.1186  -5.0172  -4.9572  -4.9362
    -4.4718  -4.4628  -4.4055  -4.3757  -4.2258  -4.1421  -3.8565  -3.8494
    -3.6866  -3.5978  -3.5301  -3.4971  -3.1621  -3.1327  -3.0493  -3.0349
    -0.7999  -0.7957  -0.3105  -0.3032  -0.2237  -0.1691  -0.1133  -0.1034
    -0.0059   0.0120   0.1816   0.2028   0.2251   0.2413   0.3812   0.3911
     0.4272   0.4522   0.6364   0.6812   0.7600   0.7891   0.8706   0.9072
     0.9214   1.0143   1.0712   1.1199   1.2270   1.3277   1.3703   1.3857

     occupation numbers 
     1.0000   1.0000   1.0000   1.0000   1.0000   1.0000   1.0000   1.0000
     1.0000   1.0000   1.0000   1.0000   1.0000   1.0000   1.0000   1.0000
     1.0000   1.0000   1.0000   1.0000   1.0000   1.0000   1.0000   1.0000
     1.0000   1.0000   1.0000   1.0000   1.0000   1.0000   1.0000   1.0000
     1.0000   1.0000   1.0000   1.0000   1.0000   1.0000   1.0000   1.0000
     1.0000   1.0000   1.0000   1.0000   1.0000   1.0000   1.0000   1.0000
     1.0000   1.0000   1.0000   1.0000   1.0000   1.0000   1.0000   1.0000
     1.0000   1.0000   1.0000   1.0000   1.0000   1.0000   1.0000   1.0000
     1.0000   1.0000   1.0000   1.0000   1.0000   1.0000   1.0000   1.0000
     1.0000   1.0000   1.0000   1.0000   1.0000   1.0000   1.0000   1.0000
     1.0000   1.0000   1.0000   1.0000   1.0000   1.0000   1.0000   1.0000
     1.0000   1.0000   1.0000   1.0000   1.0000   1.0000   1.0000   1.0000
     1.0000   1.0000   1.0000   1.0000   1.0000   1.0000   1.0000   1.0000
     1.0000   1.0000   1.0000   1.0000   1.0000   1.0000   1.0000   1.0000

          k =-0.0192 0.0228-0.0565 ( 41879 PWs)   bands (ev):

   -23.9321 -23.9249 -23.9029 -23.9019 -23.6500 -23.6475 -23.6357 -23.6322
   -19.1662 -19.1632 -19.1540 -19.1474 -18.8543 -18.8537 -18.8387 -18.8375
   -18.2398 -18.2397 -17.2055 -17.2036 -17.0630 -17.0611 -16.0455 -16.0442
   -12.1133 -12.1119 -12.0266 -12.0111 -11.8618 -11.8536 -11.7861 -11.7795
    -8.8625  -8.8350  -8.2661  -8.2471  -7.5783  -7.5405  -7.4181  -7.3602
    -6.9026  -6.8117  -6.5862  -6.5657  -6.5276  -6.4372  -6.3854  -6.3574
    -6.1721  -6.1416  -5.9815  -5.9173  -5.8854  -5.8278  -5.8033  -5.7723
    -5.7132  -5.6599  -5.4825  -5.4460  -5.1120  -5.0420  -4.9521  -4.9126
    -4.4148  -4.4004  -4.3662  -4.3058  -4.1571  -4.1340  -3.9718  -3.9691
    -3.6740  -3.6359  -3.4722  -3.4634  -3.1862  -3.1810  -3.0377  -3.0172
    -0.7639  -0.7380  -0.3238  -0.3115  -0.2309  -0.1921  -0.1448  -0.1225
    -0.0680  -0.0364   0.0930   0.1355   0.2347   0.2768   0.3359   0.3520
     0.5533   0.6018   0.6570   0.6923   0.7776   0.7934   0.8222   0.8701
     0.9824   1.0171   1.0999   1.1183   1.2332   1.2866   1.3733   1.3918

     occupation numbers 
     1.0000   1.0000   1.0000   1.0000   1.0000   1.0000   1.0000   1.0000
     1.0000   1.0000   1.0000   1.0000   1.0000   1.0000   1.0000   1.0000
     1.0000   1.0000   1.0000   1.0000   1.0000   1.0000   1.0000   1.0000
     1.0000   1.0000   1.0000   1.0000   1.0000   1.0000   1.0000   1.0000
     1.0000   1.0000   1.0000   1.0000   1.0000   1.0000   1.0000   1.0000
     1.0000   1.0000   1.0000   1.0000   1.0000   1.0000   1.0000   1.0000
     1.0000   1.0000   1.0000   1.0000   1.0000   1.0000   1.0000   1.0000
     1.0000   1.0000   1.0000   1.0000   1.0000   1.0000   1.0000   1.0000
     1.0000   1.0000   1.0000   1.0000   1.0000   1.0000   1.0000   1.0000
     1.0000   1.0000   1.0000   1.0000   1.0000   1.0000   1.0000   1.0000
     1.0000   1.0000   1.0000   1.0000   1.0000   1.0000   1.0000   1.0000
     1.0000   1.0000   1.0000   1.0000   1.0000   1.0000   1.0000   1.0000
     1.0000   1.0000   1.0000   1.0000   1.0000   1.0000   1.0000   1.0000
     1.0000   1.0000   1.0000   1.0000   1.0000   1.0000   1.0000   1.0000

          k =-0.0192 0.0228 0.0480 ( 41887 PWs)   bands (ev):

   -23.9331 -23.9248 -23.9054 -23.8985 -23.6516 -23.6492 -23.6328 -23.6318
   -19.1641 -19.1629 -19.1524 -19.1515 -18.8559 -18.8554 -18.8369 -18.8358
   -18.2488 -18.2297 -17.2221 -17.1865 -17.0658 -17.0644 -16.0475 -16.0355
   -12.1221 -12.1123 -12.0548 -11.9913 -11.8792 -11.8251 -11.7881 -11.7778
    -8.8664  -8.8024  -8.2565  -8.2539  -7.5758  -7.5649  -7.4274  -7.3392
    -6.9053  -6.8210  -6.6005  -6.5591  -6.5089  -6.4842  -6.4082  -6.3765
    -6.1721  -6.1511  -5.9862  -5.9492  -5.8276  -5.7988  -5.7884  -5.7640
    -5.7131  -5.6543  -5.4785  -5.4330  -5.1257  -5.0495  -4.9354  -4.8922
    -4.4497  -4.3983  -4.3337  -4.2935  -4.1861  -4.1538  -3.9718  -3.9338
    -3.6785  -3.6381  -3.5164  -3.4532  -3.1892  -3.1710  -3.0330  -3.0260
    -0.6967  -0.6510  -0.3160  -0.3091  -0.2639  -0.2413  -0.1837  -0.1584
    -0.1032  -0.0922   0.0609   0.1198   0.2529   0.2807   0.3006   0.3450
     0.5987   0.6613   0.7016   0.7144   0.7376   0.8124   0.8483   0.8582
     0.9832   1.0197   1.1180   1.1591   1.2314   1.2521   1.3617   1.3775

     occupation numbers 
     1.0000   1.0000   1.0000   1.0000   1.0000   1.0000   1.0000   1.0000
     1.0000   1.0000   1.0000   1.0000   1.0000   1.0000   1.0000   1.0000
     1.0000   1.0000   1.0000   1.0000   1.0000   1.0000   1.0000   1.0000
     1.0000   1.0000   1.0000   1.0000   1.0000   1.0000   1.0000   1.0000
     1.0000   1.0000   1.0000   1.0000   1.0000   1.0000   1.0000   1.0000
     1.0000   1.0000   1.0000   1.0000   1.0000   1.0000   1.0000   1.0000
     1.0000   1.0000   1.0000   1.0000   1.0000   1.0000   1.0000   1.0000
     1.0000   1.0000   1.0000   1.0000   1.0000   1.0000   1.0000   1.0000
     1.0000   1.0000   1.0000   1.0000   1.0000   1.0000   1.0000   1.0000
     1.0000   1.0000   1.0000   1.0000   1.0000   1.0000   1.0000   1.0000
     1.0000   1.0000   1.0000   1.0000   1.0000   1.0000   1.0000   1.0000
     1.0000   1.0000   1.0000   1.0000   1.0000   1.0000   1.0000   1.0000
     1.0000   1.0000   1.0000   1.0000   1.0000   1.0000   1.0000   1.0000
     1.0000   1.0000   1.0000   1.0000   1.0000   1.0000   1.0000   1.0000

          k =-0.0192 0.0228 0.0131 ( 41891 PWs)   bands (ev):

   -23.9398 -23.9229 -23.9046 -23.8958 -23.6503 -23.6437 -23.6355 -23.6343
   -19.1669 -19.1633 -19.1532 -19.1460 -18.8520 -18.8515 -18.8396 -18.8396
   -18.2522 -18.2250 -17.2305 -17.1779 -17.0699 -17.0694 -16.0481 -16.0324
   -12.1168 -12.1054 -12.0770 -11.9899 -11.8841 -11.8272 -11.7739 -11.7605
    -8.8875  -8.8182  -8.2785  -8.2577  -7.5734  -7.5557  -7.4681  -7.4044
    -6.8213  -6.8016  -6.6041  -6.5246  -6.5125  -6.4661  -6.3738  -6.3192
    -6.1467  -6.1206  -6.0154  -5.9724  -5.8637  -5.8259  -5.7370  -5.7286
    -5.6486  -5.6182  -5.5272  -5.5161  -5.1041  -5.0583  -4.9367  -4.9021
    -4.4750  -4.4630  -4.4089  -4.3793  -4.2353  -4.1521  -3.8578  -3.8130
    -3.7118  -3.6054  -3.5417  -3.5001  -3.1667  -3.1292  -3.0449  -3.0403
    -0.7497  -0.7328  -0.2998  -0.2927  -0.2265  -0.1789  -0.1214  -0.1015
    -0.0857  -0.0489   0.0755   0.1251   0.1954   0.2578   0.3322   0.3829
     0.5638   0.6013   0.6236   0.7099   0.7385   0.7951   0.8880   0.8923
     0.9370   0.9984   1.0994   1.1498   1.2192   1.3092   1.3564   1.3722

     occupation numbers 
     1.0000   1.0000   1.0000   1.0000   1.0000   1.0000   1.0000   1.0000
     1.0000   1.0000   1.0000   1.0000   1.0000   1.0000   1.0000   1.0000
     1.0000   1.0000   1.0000   1.0000   1.0000   1.0000   1.0000   1.0000
     1.0000   1.0000   1.0000   1.0000   1.0000   1.0000   1.0000   1.0000
     1.0000   1.0000   1.0000   1.0000   1.0000   1.0000   1.0000   1.0000
     1.0000   1.0000   1.0000   1.0000   1.0000   1.0000   1.0000   1.0000
     1.0000   1.0000   1.0000   1.0000   1.0000   1.0000   1.0000   1.0000
     1.0000   1.0000   1.0000   1.0000   1.0000   1.0000   1.0000   1.0000
     1.0000   1.0000   1.0000   1.0000   1.0000   1.0000   1.0000   1.0000
     1.0000   1.0000   1.0000   1.0000   1.0000   1.0000   1.0000   1.0000
     1.0000   1.0000   1.0000   1.0000   1.0000   1.0000   1.0000   1.0000
     1.0000   1.0000   1.0000   1.0000   1.0000   1.0000   1.0000   1.0000
     1.0000   1.0000   1.0000   1.0000   1.0000   1.0000   1.0000   1.0000
     1.0000   1.0000   1.0000   1.0000   1.0000   1.0000   1.0000   1.0000

          k =-0.0575 0.0228-0.0303 ( 41855 PWs)   bands (ev):

   -23.9295 -23.9218 -23.9036 -23.9029 -23.6468 -23.6445 -23.6403 -23.6366
   -19.1659 -19.1633 -19.1548 -19.1482 -18.8508 -18.8499 -18.8420 -18.8410
   -18.2461 -18.2461 -17.2032 -17.2015 -17.0676 -17.0661 -16.0462 -16.0447
   -12.1023 -12.1019 -11.9956 -11.9803 -11.8365 -11.8247 -11.7856 -11.7739
    -8.8821  -8.8567  -8.2827  -8.2655  -7.5590  -7.5400  -7.5097  -7.4651
    -6.9857  -6.9354  -6.6373  -6.5494  -6.4719  -6.4353  -6.2820  -6.2291
    -6.2086  -6.1556  -6.0061  -5.9530  -5.8931  -5.8474  -5.7697  -5.7402
    -5.6451  -5.6163  -5.5523  -5.5402  -5.1380  -5.0528  -4.9209  -4.9139
    -4.4516  -4.4322  -4.3843  -4.3457  -4.0330  -3.9891  -3.8049  -3.7787
    -3.7301  -3.6526  -3.5895  -3.5793  -3.1603  -3.1556  -3.0531  -3.0295
    -0.7538  -0.7429  -0.2920  -0.2868  -0.2231  -0.1994  -0.1130  -0.0820
    -0.0690  -0.0418   0.1140   0.1362   0.2027   0.2235   0.3493   0.3678
     0.5859   0.5941   0.6444   0.6891   0.7766   0.7867   0.8656   0.8911
     0.9365   0.9836   1.0117   1.0525   1.2913   1.3140   1.3561   1.3843

     occupation numbers 
     1.0000   1.0000   1.0000   1.0000   1.0000   1.0000   1.0000   1.0000
     1.0000   1.0000   1.0000   1.0000   1.0000   1.0000   1.0000   1.0000
     1.0000   1.0000   1.0000   1.0000   1.0000   1.0000   1.0000   1.0000
     1.0000   1.0000   1.0000   1.0000   1.0000   1.0000   1.0000   1.0000
     1.0000   1.0000   1.0000   1.0000   1.0000   1.0000   1.0000   1.0000
     1.0000   1.0000   1.0000   1.0000   1.0000   1.0000   1.0000   1.0000
     1.0000   1.0000   1.0000   1.0000   1.0000   1.0000   1.0000   1.0000
     1.0000   1.0000   1.0000   1.0000   1.0000   1.0000   1.0000   1.0000
     1.0000   1.0000   1.0000   1.0000   1.0000   1.0000   1.0000   1.0000
     1.0000   1.0000   1.0000   1.0000   1.0000   1.0000   1.0000   1.0000
     1.0000   1.0000   1.0000   1.0000   1.0000   1.0000   1.0000   1.0000
     1.0000   1.0000   1.0000   1.0000   1.0000   1.0000   1.0000   1.0000
     1.0000   1.0000   1.0000   1.0000   1.0000   1.0000   1.0000   1.0000
     1.0000   1.0000   1.0000   1.0000   1.0000   1.0000   1.0000   1.0000

          k =-0.0575 0.0228-0.0651 ( 41879 PWs)   bands (ev):

   -23.9260 -23.9238 -23.9065 -23.9002 -23.6465 -23.6463 -23.6420 -23.6346
   -19.1665 -19.1646 -19.1551 -19.1475 -18.8604 -18.8587 -18.8345 -18.8318
   -18.2579 -18.2391 -17.2182 -17.1845 -17.0580 -17.0553 -16.0597 -16.0454
   -12.1154 -12.1121 -12.0184 -11.9600 -11.8320 -11.7965 -11.7904 -11.7786
    -8.9166  -8.8230  -8.2765  -8.2485  -7.5556  -7.5348  -7.4753  -7.3675
    -7.0681  -6.9109  -6.6277  -6.5166  -6.4958  -6.4526  -6.3999  -6.3066
    -6.2625  -6.1807  -5.9838  -5.9582  -5.9116  -5.8734  -5.8061  -5.7501
    -5.6284  -5.5887  -5.4950  -5.4411  -5.1462  -5.0197  -4.9785  -4.9298
    -4.3943  -4.3697  -4.3309  -4.2821  -3.9945  -3.9660  -3.9065  -3.8770
    -3.7543  -3.6868  -3.5820  -3.5141  -3.2000  -3.1796  -3.0443  -3.0001
    -0.8262  -0.7935  -0.2972  -0.2693  -0.2201  -0.2003  -0.1035  -0.0784
    -0.0147   0.0077   0.1824   0.2043   0.2299   0.2491   0.3217   0.4001
     0.4853   0.5011   0.5838   0.6778   0.7490   0.7984   0.8482   0.8764
     0.9636   1.0049   1.0289   1.0582   1.3047   1.3325   1.3619   1.3955

     occupation numbers 
     1.0000   1.0000   1.0000   1.0000   1.0000   1.0000   1.0000   1.0000
     1.0000   1.0000   1.0000   1.0000   1.0000   1.0000   1.0000   1.0000
     1.0000   1.0000   1.0000   1.0000   1.0000   1.0000   1.0000   1.0000
     1.0000   1.0000   1.0000   1.0000   1.0000   1.0000   1.0000   1.0000
     1.0000   1.0000   1.0000   1.0000   1.0000   1.0000   1.0000   1.0000
     1.0000   1.0000   1.0000   1.0000   1.0000   1.0000   1.0000   1.0000
     1.0000   1.0000   1.0000   1.0000   1.0000   1.0000   1.0000   1.0000
     1.0000   1.0000   1.0000   1.0000   1.0000   1.0000   1.0000   1.0000
     1.0000   1.0000   1.0000   1.0000   1.0000   1.0000   1.0000   1.0000
     1.0000   1.0000   1.0000   1.0000   1.0000   1.0000   1.0000   1.0000
     1.0000   1.0000   1.0000   1.0000   1.0000   1.0000   1.0000   1.0000
     1.0000   1.0000   1.0000   1.0000   1.0000   1.0000   1.0000   1.0000
     1.0000   1.0000   1.0000   1.0000   1.0000   1.0000   1.0000   1.0000
     1.0000   1.0000   1.0000   1.0000   1.0000   1.0000   1.0000   1.0000

          k =-0.0575 0.0228 0.0394 ( 41862 PWs)   bands (ev):

   -23.9277 -23.9233 -23.9074 -23.8983 -23.6496 -23.6487 -23.6380 -23.6331
   -19.1647 -19.1637 -19.1555 -19.1499 -18.8614 -18.8598 -18.8334 -18.8307
   -18.2613 -18.2346 -17.2256 -17.1762 -17.0609 -17.0586 -16.0586 -16.0399
   -12.1195 -12.1144 -12.0387 -11.9498 -11.8399 -11.7951 -11.7843 -11.7686
    -8.9097  -8.8014  -8.2720  -8.2497  -7.5575  -7.5337  -7.4968  -7.3577
    -7.0802  -6.9092  -6.6215  -6.5349  -6.5030  -6.4764  -6.4239  -6.3406
    -6.2457  -6.1776  -5.9775  -5.9255  -5.8874  -5.8786  -5.8019  -5.7603
    -5.6060  -5.5820  -5.4981  -5.4380  -5.1474  -5.0498  -4.9473  -4.9093
    -4.4044  -4.3733  -4.3135  -4.2848  -4.0212  -4.0041  -3.8572  -3.8514
    -3.7163  -3.7062  -3.6330  -3.5266  -3.2021  -3.1743  -3.0427  -3.0057
    -0.7819  -0.7319  -0.2915  -0.2534  -0.2332  -0.2063  -0.1133  -0.0966
    -0.0819  -0.0388   0.1174   0.1784   0.2277   0.2617   0.2774   0.3125
     0.5540   0.6077   0.6565   0.6647   0.7648   0.7863   0.8586   0.8739
     0.9640   0.9926   1.0544   1.1028   1.3180   1.3326   1.3385   1.3604

     occupation numbers 
     1.0000   1.0000   1.0000   1.0000   1.0000   1.0000   1.0000   1.0000
     1.0000   1.0000   1.0000   1.0000   1.0000   1.0000   1.0000   1.0000
     1.0000   1.0000   1.0000   1.0000   1.0000   1.0000   1.0000   1.0000
     1.0000   1.0000   1.0000   1.0000   1.0000   1.0000   1.0000   1.0000
     1.0000   1.0000   1.0000   1.0000   1.0000   1.0000   1.0000   1.0000
     1.0000   1.0000   1.0000   1.0000   1.0000   1.0000   1.0000   1.0000
     1.0000   1.0000   1.0000   1.0000   1.0000   1.0000   1.0000   1.0000
     1.0000   1.0000   1.0000   1.0000   1.0000   1.0000   1.0000   1.0000
     1.0000   1.0000   1.0000   1.0000   1.0000   1.0000   1.0000   1.0000
     1.0000   1.0000   1.0000   1.0000   1.0000   1.0000   1.0000   1.0000
     1.0000   1.0000   1.0000   1.0000   1.0000   1.0000   1.0000   1.0000
     1.0000   1.0000   1.0000   1.0000   1.0000   1.0000   1.0000   1.0000
     1.0000   1.0000   1.0000   1.0000   1.0000   1.0000   1.0000   1.0000
     1.0000   1.0000   1.0000   1.0000   1.0000   1.0000   1.0000   1.0000

          k =-0.0575 0.0228 0.0046 ( 41873 PWs)   bands (ev):

   -23.9304 -23.9220 -23.9061 -23.8994 -23.6498 -23.6470 -23.6364 -23.6350
   -19.1639 -19.1627 -19.1534 -19.1525 -18.8534 -18.8526 -18.8392 -18.8383
   -18.2551 -18.2360 -17.2201 -17.1837 -17.0701 -17.0699 -16.0483 -16.0360
   -12.1073 -12.1034 -12.0296 -11.9562 -11.8515 -11.8082 -11.7772 -11.7743
    -8.8863  -8.8235  -8.2748  -8.2706  -7.5601  -7.5525  -7.5284  -7.4486
    -6.9950  -6.9272  -6.6114  -6.5906  -6.4714  -6.4653  -6.3265  -6.3032
    -6.1587  -6.1536  -5.9669  -5.9355  -5.8560  -5.8304  -5.7706  -5.7615
    -5.6349  -5.6166  -5.5482  -5.5417  -5.1126  -5.0954  -4.8961  -4.8916
    -4.4573  -4.4302  -4.3843  -4.3483  -4.0380  -4.0114  -3.7757  -3.7712
    -3.6929  -3.6659  -3.6398  -3.5918  -3.1718  -3.1452  -3.0487  -3.0363
    -0.6966  -0.6595  -0.2944  -0.2825  -0.2222  -0.2091  -0.1829  -0.1753
    -0.0862  -0.0515   0.0739   0.1238   0.1952   0.2290   0.3255   0.3575
     0.5743   0.6303   0.7021   0.7422   0.7601   0.8105   0.8812   0.8948
     0.9414   0.9586   1.0307   1.1003   1.3058   1.3097   1.3331   1.3470

     occupation numbers 
     1.0000   1.0000   1.0000   1.0000   1.0000   1.0000   1.0000   1.0000
     1.0000   1.0000   1.0000   1.0000   1.0000   1.0000   1.0000   1.0000
     1.0000   1.0000   1.0000   1.0000   1.0000   1.0000   1.0000   1.0000
     1.0000   1.0000   1.0000   1.0000   1.0000   1.0000   1.0000   1.0000
     1.0000   1.0000   1.0000   1.0000   1.0000   1.0000   1.0000   1.0000
     1.0000   1.0000   1.0000   1.0000   1.0000   1.0000   1.0000   1.0000
     1.0000   1.0000   1.0000   1.0000   1.0000   1.0000   1.0000   1.0000
     1.0000   1.0000   1.0000   1.0000   1.0000   1.0000   1.0000   1.0000
     1.0000   1.0000   1.0000   1.0000   1.0000   1.0000   1.0000   1.0000
     1.0000   1.0000   1.0000   1.0000   1.0000   1.0000   1.0000   1.0000
     1.0000   1.0000   1.0000   1.0000   1.0000   1.0000   1.0000   1.0000
     1.0000   1.0000   1.0000   1.0000   1.0000   1.0000   1.0000   1.0000
     1.0000   1.0000   1.0000   1.0000   1.0000   1.0000   1.0000   1.0000
     1.0000   1.0000   1.0000   1.0000   1.0000   1.0000   1.0000   1.0000

     highest occupied level (ev):     1.3955

!    total energy              =   -1282.01190328 Ry
     Harris-Foulkes estimate   =   -1282.01190392 Ry
     estimated scf accuracy    <       0.00000071 Ry

     total all-electron energy =     -4786.455651 Ry

     The total energy is the sum of the following terms:

     one-electron contribution =    -643.01237789 Ry
     hartree contribution      =     419.77166023 Ry
     xc contribution           =    -260.28296140 Ry
     ewald contribution        =    -468.09466675 Ry
     one-center paw contrib.   =    -330.39355748 Ry

     convergence has been achieved in  18 iterations

     Forces acting on atoms (Ry/au):

     atom    1 type  1   force =    -0.01332875   -0.00761148   -0.01131528
     atom    2 type  4   force =     0.02856623    0.00781256   -0.01856607
     atom    3 type  1   force =     0.00070178   -0.01070413   -0.01683387
     atom    4 type  1   force =     0.01072133   -0.00598534    0.00519196
     atom    5 type  4   force =     0.00504820   -0.03604919    0.03897559
     atom    6 type  1   force =     0.01147683    0.01178533   -0.01565026
     atom    7 type  4   force =    -0.01013349    0.02209483    0.04429692
     atom    8 type  2   force =     0.17660240   -0.11254880    0.05325630
     atom    9 type  3   force =    -0.13756832   -0.06048625   -0.14093700
     atom   10 type  3   force =    -0.04621933    0.18049806    0.08137329
     atom   11 type  4   force =    -0.03796101    0.02354914   -0.01633898
     atom   12 type  2   force =     0.12067496   -0.05832558    0.21009815
     atom   13 type  3   force =    -0.19716173   -0.09880206   -0.06278949
     atom   14 type  3   force =     0.06826461    0.15591749   -0.15324476
     atom   15 type  3   force =     0.06826480   -0.15591745   -0.15324475
     atom   16 type  3   force =    -0.19716164    0.09880216   -0.06278965
     atom   17 type  2   force =     0.12067535    0.05832550    0.21009242
     atom   18 type  4   force =    -0.03796509   -0.02355228   -0.01634102
     atom   19 type  3   force =    -0.04621934   -0.18049801    0.08137342
     atom   20 type  3   force =    -0.13756833    0.06048628   -0.14093686
     atom   21 type  2   force =     0.17660300    0.11254894    0.05325455
     atom   22 type  4   force =    -0.01013438   -0.02209649    0.04430111
     atom   23 type  1   force =     0.01147748   -0.01178247   -0.01564701
     atom   24 type  4   force =     0.00504835    0.03604348    0.03896866
     atom   25 type  1   force =     0.01072180    0.00598456    0.00519135
     atom   26 type  1   force =     0.00070181    0.01070518   -0.01683603
     atom   27 type  4   force =     0.02856479   -0.00781246   -0.01856583
     atom   28 type  1   force =    -0.01332794    0.00761132   -0.01131503
     atom   29 type  3   force =    -0.06826461   -0.15591749    0.15324476
     atom   30 type  3   force =     0.19716173    0.09880206    0.06278949
     atom   31 type  2   force =    -0.12067496    0.05832558   -0.21009815
     atom   32 type  4   force =     0.03796101   -0.02354914    0.01633898
     atom   33 type  3   force =     0.04621933   -0.18049806   -0.08137329
     atom   34 type  3   force =     0.13756832    0.06048625    0.14093700
     atom   35 type  2   force =    -0.17660240    0.11254880   -0.05325630
     atom   36 type  4   force =     0.01013349   -0.02209483   -0.04429692
     atom   37 type  1   force =    -0.01147683   -0.01178533    0.01565026
     atom   38 type  4   force =    -0.00504820    0.03604919   -0.03897559
     atom   39 type  1   force =    -0.01072133    0.00598534   -0.00519196
     atom   40 type  1   force =    -0.00070178    0.01070413    0.01683387
     atom   41 type  4   force =    -0.02856623   -0.00781256    0.01856607
     atom   42 type  1   force =     0.01332875    0.00761148    0.01131528
     atom   43 type  3   force =    -0.06826480    0.15591745    0.15324475
     atom   44 type  3   force =     0.19716164   -0.09880216    0.06278965
     atom   45 type  2   force =    -0.12067535   -0.05832550   -0.21009242
     atom   46 type  4   force =     0.03796509    0.02355228    0.01634102
     atom   47 type  3   force =     0.04621934    0.18049801   -0.08137342
     atom   48 type  3   force =     0.13756833   -0.06048628    0.14093686
     atom   49 type  2   force =    -0.17660300   -0.11254894   -0.05325455
     atom   50 type  4   force =     0.01013438    0.02209649   -0.04430111
     atom   51 type  1   force =    -0.01147748    0.01178247    0.01564701
     atom   52 type  4   force =    -0.00504835   -0.03604348   -0.03896866
     atom   53 type  1   force =    -0.01072180   -0.00598456   -0.00519135
     atom   54 type  1   force =    -0.00070181   -0.01070518    0.01683603
     atom   55 type  4   force =    -0.02856479    0.00781246    0.01856583
     atom   56 type  1   force =     0.01332794   -0.00761132    0.01131503
     The non-local contrib.  to forces
     atom    1 type  1   force =     0.17046489    0.37832720    0.11245194
     atom    2 type  4   force =    -2.40144331   -0.46861036    1.53466719
     atom    3 type  1   force =     0.04021525   -0.03312394    0.05485214
     atom    4 type  1   force =    -0.57206070   -0.41502179   -0.11773674
     atom    5 type  4   force =     0.16056418    1.87357852   -2.23981618
     atom    6 type  1   force =    -0.00678518    0.06112692    0.05764092
     atom    7 type  4   force =     0.54392890   -1.17029388   -2.62900538
     atom    8 type  2   force =     0.64090512   -0.43617983    0.17928937
     atom    9 type  3   force =     0.07965071    0.02734369    0.06992125
     atom   10 type  3   force =     0.02889086   -0.09886941   -0.03973576
     atom   11 type  4   force =     2.26751089   -1.48262109    0.82963941
     atom   12 type  2   force =     0.38078117   -0.19251329    0.69802237
     atom   13 type  3   force =     0.09369359    0.04846103    0.03993454
     atom   14 type  3   force =    -0.03007314   -0.07518853    0.07996918
     atom   15 type  3   force =    -0.03007315    0.07518858    0.07996922
     atom   16 type  3   force =     0.09369364   -0.04846103    0.03993453
     atom   17 type  2   force =     0.38078142    0.19251510    0.69802256
     atom   18 type  4   force =     2.26750761    1.48261711    0.82963527
     atom   19 type  3   force =     0.02889084    0.09886937   -0.03973572
     atom   20 type  3   force =     0.07965070   -0.02734368    0.06992125
     atom   21 type  2   force =     0.64090467    0.43617820    0.17929093
     atom   22 type  4   force =     0.54392814    1.17029164   -2.62900096
     atom   23 type  1   force =    -0.00678503   -0.06112956    0.05763735
     atom   24 type  4   force =     0.16056456   -1.87358427   -2.23982338
     atom   25 type  1   force =    -0.57206057    0.41502060   -0.11773822
     atom   26 type  1   force =     0.04021537    0.03312259    0.05485438
     atom   27 type  4   force =    -2.40144437    0.46860995    1.53466960
     atom   28 type  1   force =     0.17046531   -0.37832750    0.11245299
     atom   29 type  3   force =     0.03007314    0.07518853   -0.07996918
     atom   30 type  3   force =    -0.09369359   -0.04846103   -0.03993454
     atom   31 type  2   force =    -0.38078117    0.19251329   -0.69802237
     atom   32 type  4   force =    -2.26751089    1.48262109   -0.82963941
     atom   33 type  3   force =    -0.02889086    0.09886941    0.03973576
     atom   34 type  3   force =    -0.07965071   -0.02734369   -0.06992125
     atom   35 type  2   force =    -0.64090512    0.43617983   -0.17928937
     atom   36 type  4   force =    -0.54392890    1.17029388    2.62900538
     atom   37 type  1   force =     0.00678518   -0.06112692   -0.05764092
     atom   38 type  4   force =    -0.16056418   -1.87357852    2.23981618
     atom   39 type  1   force =     0.57206070    0.41502179    0.11773674
     atom   40 type  1   force =    -0.04021525    0.03312394   -0.05485214
     atom   41 type  4   force =     2.40144331    0.46861036   -1.53466719
     atom   42 type  1   force =    -0.17046489   -0.37832720   -0.11245194
     atom   43 type  3   force =     0.03007315   -0.07518858   -0.07996922
     atom   44 type  3   force =    -0.09369364    0.04846103   -0.03993453
     atom   45 type  2   force =    -0.38078142   -0.19251510   -0.69802256
     atom   46 type  4   force =    -2.26750761   -1.48261711   -0.82963527
     atom   47 type  3   force =    -0.02889084   -0.09886937    0.03973572
     atom   48 type  3   force =    -0.07965070    0.02734368   -0.06992125
     atom   49 type  2   force =    -0.64090467   -0.43617820   -0.17929093
     atom   50 type  4   force =    -0.54392814   -1.17029164    2.62900096
     atom   51 type  1   force =     0.00678503    0.06112956   -0.05763735
     atom   52 type  4   force =    -0.16056456    1.87358427    2.23982338
     atom   53 type  1   force =     0.57206057   -0.41502060    0.11773822
     atom   54 type  1   force =    -0.04021537   -0.03312259   -0.05485438
     atom   55 type  4   force =     2.40144437   -0.46860995   -1.53466960
     atom   56 type  1   force =    -0.17046531    0.37832750   -0.11245299
     The ionic contribution  to forces
     atom    1 type  1   force =    -3.02307994    0.25490075   -2.00424534
     atom    2 type  4   force =    12.23599311    4.34871800   -5.97633500
     atom    3 type  1   force =    -0.18151235    1.68156734    0.00490865
     atom    4 type  1   force =     2.74247784    2.79146135    2.02170475
     atom    5 type  4   force =    -1.34615020   -8.68134766   11.44875058
     atom    6 type  1   force =    -0.36131135    0.10811790    1.05796349
     atom    7 type  4   force =    -2.08259128    6.33961988   12.50220334
     atom    8 type  2   force =    -4.06698934    3.25596403   -1.18965378
     atom    9 type  3   force =    -2.27243742   -0.14357946   -2.01562519
     atom   10 type  3   force =    -1.25065036    2.81654237    0.74164249
     atom   11 type  4   force =   -11.17794645    6.25490585   -2.25175514
     atom   12 type  2   force =    -2.87911841    0.98772575   -4.73216499
     atom   13 type  3   force =    -2.61417532   -1.06603436   -1.60750551
     atom   14 type  3   force =     0.26429067    2.06875868   -2.53335188
     atom   15 type  3   force =     0.26429067   -2.06875868   -2.53335188
     atom   16 type  3   force =    -2.61417532    1.06603436   -1.60750551
     atom   17 type  2   force =    -2.87911841   -0.98772575   -4.73216499
     atom   18 type  4   force =   -11.17794645   -6.25490585   -2.25175514
     atom   19 type  3   force =    -1.25065036   -2.81654237    0.74164249
     atom   20 type  3   force =    -2.27243742    0.14357946   -2.01562519
     atom   21 type  2   force =    -4.06698934   -3.25596403   -1.18965378
     atom   22 type  4   force =    -2.08259128   -6.33961988   12.50220334
     atom   23 type  1   force =    -0.36131135   -0.10811790    1.05796349
     atom   24 type  4   force =    -1.34615020    8.68134766   11.44875058
     atom   25 type  1   force =     2.74247784   -2.79146135    2.02170475
     atom   26 type  1   force =    -0.18151235   -1.68156734    0.00490865
     atom   27 type  4   force =    12.23599311   -4.34871800   -5.97633500
     atom   28 type  1   force =    -3.02307994   -0.25490075   -2.00424534
     atom   29 type  3   force =    -0.26429067   -2.06875868    2.53335188
     atom   30 type  3   force =     2.61417532    1.06603436    1.60750551
     atom   31 type  2   force =     2.87911841   -0.98772575    4.73216499
     atom   32 type  4   force =    11.17794645   -6.25490585    2.25175514
     atom   33 type  3   force =     1.25065036   -2.81654237   -0.74164249
     atom   34 type  3   force =     2.27243742    0.14357946    2.01562519
     atom   35 type  2   force =     4.06698934   -3.25596403    1.18965378
     atom   36 type  4   force =     2.08259128   -6.33961988  -12.50220334
     atom   37 type  1   force =     0.36131135   -0.10811790   -1.05796349
     atom   38 type  4   force =     1.34615020    8.68134766  -11.44875058
     atom   39 type  1   force =    -2.74247784   -2.79146135   -2.02170475
     atom   40 type  1   force =     0.18151235   -1.68156734   -0.00490865
     atom   41 type  4   force =   -12.23599311   -4.34871800    5.97633500
     atom   42 type  1   force =     3.02307994   -0.25490075    2.00424534
     atom   43 type  3   force =    -0.26429067    2.06875868    2.53335188
     atom   44 type  3   force =     2.61417532   -1.06603436    1.60750551
     atom   45 type  2   force =     2.87911841    0.98772575    4.73216499
     atom   46 type  4   force =    11.17794645    6.25490585    2.25175514
     atom   47 type  3   force =     1.25065036    2.81654237   -0.74164249
     atom   48 type  3   force =     2.27243742   -0.14357946    2.01562519
     atom   49 type  2   force =     4.06698934    3.25596403    1.18965378
     atom   50 type  4   force =     2.08259128    6.33961988  -12.50220334
     atom   51 type  1   force =     0.36131135    0.10811790   -1.05796349
     atom   52 type  4   force =     1.34615020   -8.68134766  -11.44875058
     atom   53 type  1   force =    -2.74247784    2.79146135   -2.02170475
     atom   54 type  1   force =     0.18151235    1.68156734   -0.00490865
     atom   55 type  4   force =   -12.23599311    4.34871800    5.97633500
     atom   56 type  1   force =     3.02307994    0.25490075    2.00424534
     The local contribution  to forces
     atom    1 type  1   force =     2.84240248   -0.63451612    1.88219930
     atom    2 type  4   force =    -9.82457241   -3.87585197    4.43492392
     atom    3 type  1   force =     0.14206649   -1.66084600   -0.07711145
     atom    4 type  1   force =    -2.16899759   -2.38886235   -1.90017749
     atom    5 type  4   force =     1.19208388    6.78612572   -9.18744670
     atom    6 type  1   force =     0.38087079   -0.15602930   -1.13092847
     atom    7 type  4   force =     1.53276272   -5.15618416   -9.84936016
     atom    8 type  2   force =     3.61644394   -2.94222183    1.06849587
     atom    9 type  3   force =     2.05520132    0.05574719    1.80477535
     atom   10 type  3   force =     1.17551334   -2.53716032   -0.62051175
     atom   11 type  4   force =     8.89032420   -4.76041461    1.41240846
     atom   12 type  2   force =     2.62785470   -0.85754575    4.25999398
     atom   13 type  3   force =     2.32333913    0.91877231    1.50476378
     atom   14 type  3   force =    -0.16592469   -1.83765334    2.30012840
     atom   15 type  3   force =    -0.16592475    1.83765377    2.30012852
     atom   16 type  3   force =     2.32333912   -0.91877126    1.50476432
     atom   17 type  2   force =     2.62785806    0.85755067    4.25999399
     atom   18 type  4   force =     8.89032373    4.76040628    1.41240143
[...]
     atom   22 type  4   force =    -0.00425770   -0.00890755    0.02063593
     atom   23 type  1   force =    -0.00106068    0.00146883   -0.00016496
     atom   24 type  4   force =    -0.00103474    0.01450393    0.01770767
     atom   25 type  1   force =     0.00912105   -0.00580023    0.00070728
     atom   26 type  1   force =     0.00022384   -0.00138148   -0.00001018
     atom   27 type  4   force =     0.01897741   -0.00380292   -0.01203386
     atom   28 type  1   force =    -0.00355497    0.00560945   -0.00259101
     atom   29 type  3   force =     0.00000000    0.00000000    0.00000000
     atom   30 type  3   force =     0.00000000    0.00000000    0.00000000
     atom   31 type  2   force =     0.00556324   -0.00266179    0.01019031
     atom   32 type  4   force =     0.01792647   -0.01176818    0.00672690
     atom   33 type  3   force =     0.00000000    0.00000000    0.00000000
     atom   34 type  3   force =     0.00000000    0.00000000    0.00000000
     atom   35 type  2   force =     0.00905038   -0.00689809    0.00346610
     atom   36 type  4   force =     0.00425790   -0.00890800   -0.02063648
     atom   37 type  1   force =     0.00106085    0.00146893    0.00016467
     atom   38 type  4   force =     0.00103586    0.01450404   -0.01770815
     atom   39 type  1   force =    -0.00912111   -0.00580049   -0.00070639
     atom   40 type  1   force =    -0.00022357   -0.00138142    0.00000972
     atom   41 type  4   force =    -0.01897838   -0.00380447    0.01203231
     atom   42 type  1   force =     0.00355625    0.00560952    0.00259129
     atom   43 type  3   force =     0.00000000    0.00000000    0.00000000
     atom   44 type  3   force =     0.00000000    0.00000000    0.00000000
     atom   45 type  2   force =     0.00556326    0.00266210    0.01019481
     atom   46 type  4   force =     0.01792632    0.01176785    0.00672713
     atom   47 type  3   force =     0.00000000    0.00000000    0.00000000
     atom   48 type  3   force =     0.00000000    0.00000000    0.00000000
     atom   49 type  2   force =     0.00905056    0.00689810    0.00346828
     atom   50 type  4   force =     0.00425770    0.00890755   -0.02063593
     atom   51 type  1   force =     0.00106068   -0.00146883    0.00016496
     atom   52 type  4   force =     0.00103474   -0.01450393   -0.01770767
     atom   53 type  1   force =    -0.00912105    0.00580023   -0.00070728
     atom   54 type  1   force =    -0.00022384    0.00138148    0.00001018
     atom   55 type  4   force =    -0.01897741    0.00380292    0.01203386
     atom   56 type  1   force =     0.00355497   -0.00560945    0.00259101
     The Hubbard contrib.    to forces
     atom    1 type  1   force =     0.00000000    0.00000000    0.00000000
     atom    2 type  4   force =     0.00000000    0.00000000    0.00000000
     atom    3 type  1   force =     0.00000000    0.00000000    0.00000000
     atom    4 type  1   force =     0.00000000    0.00000000    0.00000000
     atom    5 type  4   force =     0.00000000    0.00000000    0.00000000
     atom    6 type  1   force =     0.00000000    0.00000000    0.00000000
     atom    7 type  4   force =     0.00000000    0.00000000    0.00000000
     atom    8 type  2   force =     0.00000000    0.00000000    0.00000000
     atom    9 type  3   force =     0.00000000    0.00000000    0.00000000
     atom   10 type  3   force =     0.00000000    0.00000000    0.00000000
     atom   11 type  4   force =     0.00000000    0.00000000    0.00000000
     atom   12 type  2   force =     0.00000000    0.00000000    0.00000000
     atom   13 type  3   force =     0.00000000    0.00000000    0.00000000
     atom   14 type  3   force =     0.00000000    0.00000000    0.00000000
     atom   15 type  3   force =     0.00000000    0.00000000    0.00000000
     atom   16 type  3   force =     0.00000000    0.00000000    0.00000000
     atom   17 type  2   force =     0.00000000    0.00000000    0.00000000
     atom   18 type  4   force =     0.00000000    0.00000000    0.00000000
     atom   19 type  3   force =     0.00000000    0.00000000    0.00000000
     atom   20 type  3   force =     0.00000000    0.00000000    0.00000000
     atom   21 type  2   force =     0.00000000    0.00000000    0.00000000
     atom   22 type  4   force =     0.00000000    0.00000000    0.00000000
     atom   23 type  1   force =     0.00000000    0.00000000    0.00000000
     atom   24 type  4   force =     0.00000000    0.00000000    0.00000000
     atom   25 type  1   force =     0.00000000    0.00000000    0.00000000
     atom   26 type  1   force =     0.00000000    0.00000000    0.00000000
     atom   27 type  4   force =     0.00000000    0.00000000    0.00000000
     atom   28 type  1   force =     0.00000000    0.00000000    0.00000000
     atom   29 type  3   force =     0.00000000    0.00000000    0.00000000
     atom   30 type  3   force =     0.00000000    0.00000000    0.00000000
     atom   31 type  2   force =     0.00000000    0.00000000    0.00000000
     atom   32 type  4   force =     0.00000000    0.00000000    0.00000000
     atom   33 type  3   force =     0.00000000    0.00000000    0.00000000
     atom   34 type  3   force =     0.00000000    0.00000000    0.00000000
     atom   35 type  2   force =     0.00000000    0.00000000    0.00000000
     atom   36 type  4   force =     0.00000000    0.00000000    0.00000000
     atom   37 type  1   force =     0.00000000    0.00000000    0.00000000
     atom   38 type  4   force =     0.00000000    0.00000000    0.00000000
     atom   39 type  1   force =     0.00000000    0.00000000    0.00000000
     atom   40 type  1   force =     0.00000000    0.00000000    0.00000000
     atom   41 type  4   force =     0.00000000    0.00000000    0.00000000
     atom   42 type  1   force =     0.00000000    0.00000000    0.00000000
     atom   43 type  3   force =     0.00000000    0.00000000    0.00000000
     atom   44 type  3   force =     0.00000000    0.00000000    0.00000000
     atom   45 type  2   force =     0.00000000    0.00000000    0.00000000
     atom   46 type  4   force =     0.00000000    0.00000000    0.00000000
     atom   47 type  3   force =     0.00000000    0.00000000    0.00000000
     atom   48 type  3   force =     0.00000000    0.00000000    0.00000000
     atom   49 type  2   force =     0.00000000    0.00000000    0.00000000
     atom   50 type  4   force =     0.00000000    0.00000000    0.00000000
     atom   51 type  1   force =     0.00000000    0.00000000    0.00000000
     atom   52 type  4   force =     0.00000000    0.00000000    0.00000000
     atom   53 type  1   force =     0.00000000    0.00000000    0.00000000
     atom   54 type  1   force =     0.00000000    0.00000000    0.00000000
     atom   55 type  4   force =     0.00000000    0.00000000    0.00000000
     atom   56 type  1   force =     0.00000000    0.00000000    0.00000000
     The SCF correction term to forces
     atom    1 type  1   force =     0.00000129   -0.00000074    0.00001684
     atom    2 type  4   force =    -0.00004592   -0.00000919    0.00003490
     atom    3 type  1   force =    -0.00004007   -0.00000856    0.00003608
     atom    4 type  1   force =    -0.00000167    0.00001121   -0.00001368
     atom    5 type  4   force =    -0.00000183    0.00002971   -0.00001947
     atom    6 type  1   force =    -0.00001624    0.00004306   -0.00003531
     atom    7 type  4   force =     0.00000285   -0.00001117   -0.00001415
     atom    8 type  2   force =     0.00001079   -0.00000490    0.00000075
     atom    9 type  3   force =     0.00000179   -0.00000257    0.00000179
     atom   10 type  3   force =     0.00000219   -0.00000328    0.00000054
     atom   11 type  4   force =    -0.00000586    0.00001405   -0.00000804
     atom   12 type  2   force =    -0.00000519   -0.00000350    0.00001664
     atom   13 type  3   force =    -0.00000036   -0.00000076    0.00000395
     atom   14 type  3   force =    -0.00000278    0.00000002    0.00000189
     atom   15 type  3   force =    -0.00000201   -0.00000040    0.00000398
     atom   16 type  3   force =    -0.00000112   -0.00000133    0.00000371
     atom   17 type  2   force =    -0.00000423   -0.00000402    0.00001604
     atom   18 type  4   force =    -0.00000454    0.00000153   -0.00001084
     atom   19 type  3   force =     0.00000023    0.00000467   -0.00000334
     atom   20 type  3   force =     0.00000053    0.00000152   -0.00000025
     atom   21 type  2   force =     0.00000507    0.00000848   -0.00001007
     atom   22 type  4   force =     0.00001518    0.00002172   -0.00003516
     atom   23 type  1   force =    -0.00001686   -0.00002317   -0.00003248
     atom   24 type  4   force =    -0.00000639   -0.00002325   -0.00003056
     atom   25 type  1   force =    -0.00000697    0.00000330   -0.00001437
     atom   26 type  1   force =    -0.00000748    0.00001977   -0.00001729
     atom   27 type  4   force =    -0.00002461    0.00000942    0.00001099
     atom   28 type  1   force =     0.00000442    0.00000005    0.00000212
     atom   29 type  3   force =     0.00000278   -0.00000002   -0.00000189
     atom   30 type  3   force =     0.00000036    0.00000076   -0.00000395
     atom   31 type  2   force =     0.00000519    0.00000350   -0.00001664
     atom   32 type  4   force =     0.00000586   -0.00001405    0.00000804
     atom   33 type  3   force =    -0.00000219    0.00000328   -0.00000054
     atom   34 type  3   force =    -0.00000179    0.00000257   -0.00000179
     atom   35 type  2   force =    -0.00001079    0.00000490   -0.00000075
     atom   36 type  4   force =    -0.00000285    0.00001117    0.00001415
     atom   37 type  1   force =     0.00001624   -0.00004306    0.00003531
     atom   38 type  4   force =     0.00000183   -0.00002971    0.00001947
     atom   39 type  1   force =     0.00000167   -0.00001121    0.00001368
     atom   40 type  1   force =     0.00004007    0.00000856   -0.00003608
     atom   41 type  4   force =     0.00004592    0.00000919   -0.00003490
     atom   42 type  1   force =    -0.00000129    0.00000074   -0.00001684
     atom   43 type  3   force =     0.00000201    0.00000040   -0.00000398
     atom   44 type  3   force =     0.00000112    0.00000133   -0.00000371
     atom   45 type  2   force =     0.00000423    0.00000402   -0.00001604
     atom   46 type  4   force =     0.00000454   -0.00000153    0.00001084
     atom   47 type  3   force =    -0.00000023   -0.00000467    0.00000334
     atom   48 type  3   force =    -0.00000053   -0.00000152    0.00000025
     atom   49 type  2   force =    -0.00000507   -0.00000848    0.00001007
     atom   50 type  4   force =    -0.00001518   -0.00002172    0.00003516
     atom   51 type  1   force =     0.00001686    0.00002317    0.00003248
     atom   52 type  4   force =     0.00000639    0.00002325    0.00003056
     atom   53 type  1   force =     0.00000697   -0.00000330    0.00001437
     atom   54 type  1   force =     0.00000748   -0.00001977    0.00001729
     atom   55 type  4   force =     0.00002461   -0.00000942   -0.00001099
     atom   56 type  1   force =    -0.00000442   -0.00000005   -0.00000212

     Total force =     0.004869     Total SCF correction =     0.000203


     entering subroutine stress ...

          total   stress  (Ry/bohr**3)                   (kbar)     P=   17.34
   0.00011962   0.00000003  -0.00000417         17.60      0.00     -0.61
   0.00000003   0.00011535  -0.00000001          0.00     16.97     -0.00
  -0.00000417  -0.00000001   0.00011863         -0.61     -0.00     17.45

     kinetic stress (kbar)  15016.61     -0.02    330.62
                               -0.02  15443.94      0.00
                              330.62      0.00  14988.13

     local   stress (kbar) -15159.30     -0.16   7507.09
                               -0.16  -8266.91     -0.09
                             7507.09     -0.09 -11435.14

     nonloc. stress (kbar)   1038.58     -0.00      7.94
                               -0.00   1047.92      0.00
                                7.94      0.00   1010.86

     hartree stress (kbar)   6837.38      0.04  -2706.90
                                0.04   4817.49      0.05
                            -2706.90      0.05   5426.71

     exc-cor stress (kbar)  -2168.05      0.00    -11.02
                                0.00  -2188.69     -0.00
                              -11.02     -0.00  -2173.71

     corecor stress (kbar)  -1135.27     -0.00     -2.28
                               -0.00  -1137.15      0.00
                               -2.28      0.00  -1135.35

     ewald   stress (kbar)  -4412.36      0.15  -5126.06
                                0.15  -9699.64      0.03
                            -5126.06      0.03  -6664.04

     hubbard stress (kbar)      0.00      0.00      0.00
                                0.00      0.00      0.00
                                0.00      0.00      0.00

     london  stress (kbar)      0.00      0.00      0.00
                                0.00      0.00      0.00
                                0.00      0.00      0.00

     XDM     stress (kbar)      0.00      0.00      0.00
                                0.00      0.00      0.00
                                0.00      0.00      0.00

     dft-nl  stress (kbar)      0.00      0.00      0.00
                                0.00      0.00      0.00
                                0.00      0.00      0.00

     TS-vdW  stress (kbar)      0.00      0.00      0.00
                                0.00      0.00      0.00
                                0.00      0.00      0.00



     bfgs converged in  20 scf cycles and  19 bfgs steps
     (criteria: energy <  1.0E-04, force <  1.0E-03)

     End of BFGS Geometry Optimization

     Final energy   =   -1282.3798921173 Ry
Begin final coordinates

ATOMIC_POSITIONS (crystal)
N       -0.020832460   0.624807027   0.459264015
O        0.273760843   0.723048280   0.436253833
N        0.140761094   0.705213387   0.531323514
N       -0.144396726   0.523560243   0.704268221
O       -0.272088247   0.426815224   0.925515158
N       -0.304023220   0.500468615   0.794190323
O        0.141182057   0.749612214   0.686193649
C       -0.191966073   0.615144212   0.552772856
H       -0.331971717   0.587964472   0.449352722
H       -0.219460904   0.703181519   0.613171401
O       -0.469486886   0.559650340   0.738091378
C       -0.022467560   0.565977587   0.281188069
H       -0.176544627   0.522591446   0.236358325
H       -0.001648223   0.632019493   0.175247397
H        0.498350967  -0.132017799   0.675243440
H        0.323452828  -0.022590302   0.736354647
C        0.477528597  -0.065976445   0.781183742
O        0.030514127  -0.059648724   1.238091842
H        0.280540525  -0.203181534   1.113167243
H        0.168030312  -0.087963000   0.949352039
C        0.308035279  -0.115144558   1.052773142
O        0.641190286  -0.249610448   1.186179803
N        0.195975692  -0.000469034   1.294191521
O        0.227915432   0.073182877   1.425512678
N        0.355607260  -0.023561793   1.204269821
N        0.640766481  -0.205214179   1.031318300
O        0.773759169  -0.223044222   0.936240371
N        0.479168412  -0.124805471   0.959258349
H        0.001648223   0.367980507   0.824752603
H        0.176544627   0.477408554   0.763641675
C        0.022467560   0.434022413   0.718811931
O        0.469486886   0.440349660   0.261908622
H        0.219460904   0.296818481   0.386828599
H        0.331971717   0.412035528   0.550647278
C        0.191966073   0.384855788   0.447227144
O       -0.141182057   0.250387786   0.313806351
N        0.304023220   0.499531385   0.205809677
O        0.272088247   0.573184776   0.074484842
N        0.144396726   0.476439757   0.295731779
N       -0.140761094   0.294786613   0.468676486
O       -0.273760843   0.276951720   0.563746167
N        0.020832460   0.375192973   0.540735985
H        0.501649033   0.132017799   1.324756560
H        0.676547172   0.022590302   1.263645353
C        0.522471403   0.065976445   1.218816258
O        0.969485873   0.059648724   0.761908158
H        0.719459475   0.203181534   0.886832757
H        0.831969688   0.087963000   1.050647961
C        0.691964721   0.115144558   0.947226858
O        0.358809714   0.249610448   0.813820197
N        0.804024308   0.000469034   0.705808479
O        0.772084568  -0.073182877   0.574487322
N        0.644392740   0.023561793   0.795730179
N        0.359233519   0.205214179   0.968681700
O        0.226240831   0.223044222   1.063759629
N        0.520831588   0.124805471   1.040741651
End final coordinates



     Writing output data file relax.pbe.ec-80.kp-4x2x4.HMX-792929.np-32.default-conv-thr.save

     init_run     :     77.87s CPU    119.47s WALL (       1 calls)
     electrons    :  43506.46s CPU  48425.48s WALL (      20 calls)
     update_pot   :    558.71s CPU    611.75s WALL (      19 calls)
     forces       :   1036.15s CPU   1286.30s WALL (      20 calls)
     stress       :   2790.99s CPU   2914.54s WALL (      20 calls)

     Called by init_run:
     wfcinit      :     43.47s CPU     54.97s WALL (       1 calls)
     potinit      :     10.46s CPU     11.44s WALL (       1 calls)

     Called by electrons:
     c_bands      :  36554.06s CPU  40765.00s WALL (     286 calls)
     sum_band     :   6202.31s CPU   6820.38s WALL (     286 calls)
     v_of_rho     :    156.15s CPU    174.53s WALL (     293 calls)
     v_h          :      9.24s CPU     11.30s WALL (     293 calls)
     v_xc         :    171.89s CPU    190.95s WALL (     333 calls)
     newd         :    385.86s CPU    381.08s WALL (     293 calls)
     PAW_pot      :    107.86s CPU    112.72s WALL (     312 calls)
     mix_rho      :    132.42s CPU    140.71s WALL (     286 calls)

     Called by c_bands:
     init_us_2    :    606.19s CPU    614.34s WALL (   10112 calls)
     cegterg      :  34628.20s CPU  38435.31s WALL (    4576 calls)

     Called by sum_band:
     sum_band:bec :      7.71s CPU      7.72s WALL (    4880 calls)
     addusdens    :   1719.94s CPU   1437.47s WALL (     286 calls)

     Called by *egterg:
     h_psi        :  14340.67s CPU  17239.31s WALL (   21421 calls)
     s_psi        :   2454.19s CPU   1917.28s WALL (   21421 calls)
     g_psi        :     36.56s CPU     45.13s WALL (   16829 calls)
     cdiaghg      :   7065.19s CPU   6729.83s WALL (   20893 calls)
     cegterg:over :   3375.93s CPU   4799.58s WALL (   16829 calls)
     cegterg:upda :   2445.74s CPU   1739.30s WALL (   16829 calls)
     cegterg:last :   1256.15s CPU    972.05s WALL (    4932 calls)

     Called by h_psi:
     h_psi:vloc   :   7977.85s CPU   9401.87s WALL (   21421 calls)
     h_psi:vnl    :   6021.42s CPU   7488.96s WALL (   21421 calls)
     add_vuspsi   :   2608.01s CPU   2491.30s WALL (   21421 calls)

     General routines
     calbec       :   5024.75s CPU   7470.36s WALL (   27901 calls)
     fft          :    136.98s CPU    201.73s WALL (    5179 calls)
     ffts         :      6.92s CPU      8.65s WALL (     579 calls)
     fftw         :   7104.19s CPU   8710.50s WALL ( 3425630 calls)
     interpolate  :     88.62s CPU     94.19s WALL (     579 calls)
     davcio       :      0.48s CPU     74.09s WALL (      16 calls)

     Parallel routines
     fft_scatter  :   3457.52s CPU   4867.55s WALL ( 3431388 calls)

     PAW routines
     PAW_pot      :    107.86s CPU    112.72s WALL (     312 calls)
     PAW_symme    :      0.85s CPU      1.22s WALL (     598 calls)

     PWSCF        :    13h24m CPU       14h58m WALL


   This run was terminated on:   8: 2:56  15Jul2016            

=------------------------------------------------------------------------------=
   JOB DONE.
=------------------------------------------------------------------------------=
