
     Program PWSCF v.5.3.0 (svn rev. 11974) starts on 31May2016 at 16:52:37 

     This program is part of the open-source Quantum ESPRESSO suite
     for quantum simulation of materials; please cite
         "P. Giannozzi et al., J. Phys.:Condens. Matter 21 395502 (2009);
          URL http://www.quantum-espresso.org", 
     in publications or presentations arising from this work. More details at
     http://www.quantum-espresso.org/quote

     Parallel version (MPI), running on     8 processors
     R & G space division:  proc/nbgrp/npool/nimage =       8
     Waiting for input...
     Reading input from standard input
Warning: card    &IONS ignored
Warning: card TRUST_RADIUS_MAX=0.2 ignored
Warning: card / ignored
Warning: card     &CELL ignored
Warning: card CELL_DYNAMICS='BFGS' ignored
Warning: card / ignored

     Current dimensions of program PWSCF are:
     Max number of different atomic species (ntypx) = 10
     Max number of k-points (npk) =  40000
     Max angular momentum in pseudopotentials (lmaxx) =  3
               file N.pbe-n-kjpaw_psl.1.0.0.UPF: wavefunction(s)  2S renormalized
               file C.pbe-n-kjpaw_psl.1.0.0.UPF: wavefunction(s)  2S 2P renormalized
               file H.pbe-kjpaw_psl.1.0.0.UPF: wavefunction(s)  1S renormalized
               file O.pbe-n-kjpaw_psl.1.0.0.UPF: wavefunction(s)  2S 2P renormalized

     Subspace diagonalization in iterative solution of the eigenvalue problem:
     a serial algorithm will be used


     Parallelization info
     --------------------
     sticks:   dense  smooth     PW     G-vecs:    dense   smooth      PW
     Min        2524    1011    268               229662    58089    7962
     Max        2525    1012    269               229663    58127    7966
     Sum       20199    8093   2151              1837301   464825   63719


     Title: 
     HMX-scf--kp-444-ec-100-default-conv-thr                                    


     bravais-lattice index     =            0
     lattice parameter (alat)  =       1.8897  a.u.
     unit-cell volume          =    3441.1511 (a.u.)^3
     number of atoms/cell      =           56
     number of atomic types    =            4
     number of electrons       =       224.00
     number of Kohn-Sham states=          112
     kinetic-energy cutoff     =     100.0000  Ry
     charge density cutoff     =    1000.0000  Ry
     convergence threshold     =      1.0E-06
     mixing beta               =       0.7000
     number of iterations used =            8  plain     mixing
     Exchange-correlation      =  SLA  PW   PBX  PBC ( 1  4  3  4 0 0)

     celldm(1)=   1.889726  celldm(2)=   0.000000  celldm(3)=   0.000000
     celldm(4)=   0.000000  celldm(5)=   0.000000  celldm(6)=   0.000000

     crystal axes: (cart. coord. in units of alat)
               a(1) = (   6.520600   0.000000   0.000000 )  
               a(2) = (   0.000000  10.912300   0.000000 )  
               a(3) = (  -1.584431   0.000000   7.166438 )  

     reciprocal axes: (cart. coord. in units 2 pi/alat)
               b(1) = (  0.153360 -0.000000  0.033906 )  
               b(2) = (  0.000000  0.091640 -0.000000 )  
               b(3) = (  0.000000  0.000000  0.139539 )  


     PseudoPot. # 1 for  N read from file:
     /users/majewski/.data/PSEUDOPOTENTIALS/N.pbe-n-kjpaw_psl.1.0.0.UPF
     MD5 check sum: c21df8f53e59d08c3548513d559cdda6
     Pseudo is Projector augmented-wave + core cor, Zval =  5.0
     Generated using "atomic" code by A. Dal Corso  v.5.3.0 svn rev. 11974
     Shape of augmentation charge: PSQ
     Using radial grid of 1085 points,  4 beta functions with: 
                l(1) =   0
                l(2) =   0
                l(3) =   1
                l(4) =   1
     Q(r) pseudized with 0 coefficients 


     PseudoPot. # 2 for  C read from file:
     /users/majewski/.data/PSEUDOPOTENTIALS/C.pbe-n-kjpaw_psl.1.0.0.UPF
     MD5 check sum: 2ba8448e293caca687844dde9a1b88a8
     Pseudo is Projector augmented-wave + core cor, Zval =  4.0
     Generated using "atomic" code by A. Dal Corso  v.5.3.0 svn rev. 11974
     Shape of augmentation charge: PSQ
     Using radial grid of 1073 points,  4 beta functions with: 
                l(1) =   0
                l(2) =   0
                l(3) =   1
                l(4) =   1
     Q(r) pseudized with 0 coefficients 


     PseudoPot. # 3 for  H read from file:
     /users/majewski/.data/PSEUDOPOTENTIALS/H.pbe-kjpaw_psl.1.0.0.UPF
     MD5 check sum: bc0feb48a24907a0b97fa6ee2d589a29
     Pseudo is Projector augmented-wave, Zval =  1.0
     Generated using "atomic" code by A. Dal Corso  v.5.3.0 svn rev. 11974
     Shape of augmentation charge: PSQ
     Using radial grid of  929 points,  2 beta functions with: 
                l(1) =   0
                l(2) =   0
     Q(r) pseudized with 0 coefficients 


     PseudoPot. # 4 for  O read from file:
     /users/majewski/.data/PSEUDOPOTENTIALS/O.pbe-n-kjpaw_psl.1.0.0.UPF
     MD5 check sum: 9c0ade6c043cf4a781bde3908a3a8206
     Pseudo is Projector augmented-wave + core cor, Zval =  6.0
     Generated using "atomic" code by A. Dal Corso  v.5.3.0 svn rev. 11974
     Shape of augmentation charge: PSQ
     Using radial grid of 1095 points,  4 beta functions with: 
                l(1) =   0
                l(2) =   0
                l(3) =   1
                l(4) =   1
     Q(r) pseudized with 0 coefficients 


     atomic species   valence    mass     pseudopotential
        N              5.00    14.00670      N( 1.00)
        C              4.00    12.01100      C( 1.00)
        H              1.00     1.00790      H( 1.00)
        O              6.00    15.99940      O( 1.00)

      2 Sym. Ops., with inversion, found
          (note:  2 additional sym.ops. were found but ignored
           their fractional translations are incommensurate with FFT grid)

                                    s                        frac. trans.

      isym =  1     identity                                     

 cryst.   s( 1) = (     1          0          0      )
                  (     0          1          0      )
                  (     0          0          1      )

 cart.    s( 1) = (  1.0000000  0.0000000  0.0000000 )
                  (  0.0000000  1.0000000  0.0000000 )
                  (  0.0000000  0.0000000  1.0000000 )


      isym =  2     inversion                                    

 cryst.   s( 2) = (    -1          0          0      )
                  (     0         -1          0      )
                  (     0          0         -1      )

 cart.    s( 2) = ( -1.0000000  0.0000000  0.0000000 )
                  (  0.0000000 -1.0000000  0.0000000 )
                  (  0.0000000  0.0000000 -1.0000000 )


   Cartesian axes

     site n.     atom                  positions (alat units)
         1           N   tau(   1) = (  -0.8514256   6.7994541   3.2965616  )
         2           O   tau(   2) = (   1.0861733   7.8571834   3.1181173  )
         3           N   tau(   3) = (   0.0767309   7.6782216   3.7996456  )
         4           N   tau(   4) = (  -2.0523401   5.7423796   5.0623720  )
         5           O   tau(   5) = (  -3.2492170   4.6814858   6.6152675  )
         6           N   tau(   6) = (  -3.2346090   5.4771016   5.6880021  )
         7           O   tau(   7) = (  -0.1591847   8.1664380   4.8932441  )
         8           C   tau(   8) = (  -2.1226123   6.7208856   3.9616071  )
         9           H   tau(   9) = (  -2.8210125   6.4469868   3.3159110  )
        10           H   tau(  10) = (  -2.3671219   7.6102380   4.3213623  )
        11           O   tau(  11) = (  -4.2070896   6.1208182   5.2845316  )
        12           C   tau(  12) = (  -0.5868989   6.1719969   2.0116192  )
        13           H   tau(  13) = (  -1.4066974   5.7518733   1.7056123  )
        14           H   tau(  14) = (  -0.3093298   6.8136401   1.3401240  )
        15           H   tau(  15) = (   3.7431858  -1.3574901  -2.2430952  )
        16           H   tau(  16) = (   2.6458182  -0.2957233  -1.8776068  )
        17           C   tau(  17) = (   3.4656167  -0.7158469  -1.5715999  )
        18           O   tau(  18) = (  -0.1545740  -0.6646682   1.7013125  )
        19           H   tau(  19) = (   1.6853937  -2.1540880   0.7381431  )
        20           H   tau(  20) = (   1.2315032  -0.9908368  -0.2673081  )
        21           C   tau(  21) = (   1.9299033  -1.2647356   0.3783879  )
        22           O   tau(  22) = (   3.8933309  -2.7102880   1.3100249  )
        23           N   tau(  23) = (   0.8179066  -0.0209516   2.1047829  )
        24           O   tau(  24) = (   0.8032986   0.7746642   3.0320484  )
        25           N   tau(  25) = (   2.0001755  -0.2862296   1.4791529  )
        26           N   tau(  26) = (   4.1292465  -2.2220716   0.2164264  )
        27           O   tau(  27) = (   5.1386890  -2.4010334  -0.4651018  )
        28           N   tau(  28) = (   3.2010900  -1.3433041  -0.2866575  )
        29           H   tau(  29) = (  -1.2751014   4.0986599   5.8263143  )
        30           H   tau(  30) = (  -0.1777339   5.1604267   5.4608260  )
        31           C   tau(  31) = (  -0.9975323   4.7403031   5.1548191  )
        32           O   tau(  32) = (   2.6226584   4.7914818   1.8819067  )
        33           H   tau(  33) = (   0.7826907   3.3020620   2.8450760  )
        34           H   tau(  34) = (   1.2365812   4.4653132   3.8505273  )
        35           C   tau(  35) = (   0.5381811   4.1914144   3.2048312  )
        36           O   tau(  36) = (  -1.4252465   2.7458620   2.2731942  )
        37           N   tau(  37) = (   1.6501778   5.4351984   1.4784362  )
        38           O   tau(  38) = (   1.6647858   6.2308142   0.5511708  )
        39           N   tau(  39) = (   0.4679088   5.1699204   2.1040663  )
        40           N   tau(  40) = (  -1.6611622   3.2340784   3.3667927  )
        41           O   tau(  41) = (  -2.6706046   3.0551166   4.0483210  )
        42           N   tau(  42) = (  -0.7330056   4.1128459   3.8698767  )
        43           H   tau(  43) = (   2.7774142   1.3574901   2.2430952  )
        44           H   tau(  44) = (   3.8747818   0.2957233   1.8776068  )
        45           C   tau(  45) = (   3.0549833   0.7158469   1.5715999  )
        46           O   tau(  46) = (   6.6751740   0.6646682  -1.7013125  )
        47           H   tau(  47) = (   4.8352063   2.1540880  -0.7381431  )
        48           H   tau(  48) = (   5.2890968   0.9908368   0.2673081  )
        49           C   tau(  49) = (   4.5906967   1.2647356  -0.3783879  )
        50           O   tau(  50) = (   2.6272691   2.7102880  -1.3100249  )
        51           N   tau(  51) = (   5.7026934   0.0209516  -2.1047829  )
        52           O   tau(  52) = (   5.7173014  -0.7746642  -3.0320484  )
        53           N   tau(  53) = (   4.5204245   0.2862296  -1.4791529  )
        54           N   tau(  54) = (   2.3913535   2.2220716  -0.2164264  )
        55           O   tau(  55) = (   1.3819110   2.4010334   0.4651018  )
        56           N   tau(  56) = (   3.3195100   1.3433041   0.2866575  )

   Crystallographic axes

     site n.     atom                  positions (cryst. coord.)
         1           N   tau(   1) = ( -0.0188000  0.6231000  0.4600000  )
         2           O   tau(   2) = (  0.2723000  0.7200300  0.4351000  )
         3           N   tau(   3) = (  0.1406000  0.7036300  0.5302000  )
         4           N   tau(   4) = ( -0.1431000  0.5262300  0.7064000  )
         5           O   tau(   5) = ( -0.2740000  0.4290100  0.9230900  )
         6           N   tau(   6) = ( -0.3032000  0.5019200  0.7937000  )
         7           O   tau(   7) = (  0.1415000  0.7483700  0.6828000  )
         8           C   tau(   8) = ( -0.1912000  0.6159000  0.5528000  )
         9           H   tau(   9) = ( -0.3202000  0.5908000  0.4627000  )
        10           H   tau(  10) = ( -0.2165000  0.6974000  0.6030000  )
        11           O   tau(  11) = ( -0.4660200  0.5609100  0.7374000  )
        12           C   tau(  12) = ( -0.0218000  0.5656000  0.2807000  )
        13           H   tau(  13) = ( -0.1579000  0.5271000  0.2380000  )
        14           H   tau(  14) = ( -0.0020000  0.6244000  0.1870000  )
        15           H   tau(  15) = (  0.4980000 -0.1244000 -0.3130000  )
        16           H   tau(  16) = (  0.3421000 -0.0271000 -0.2620000  )
        17           C   tau(  17) = (  0.4782000 -0.0656000 -0.2193000  )
        18           O   tau(  18) = (  0.0339800 -0.0609100  0.2374000  )
        19           H   tau(  19) = (  0.2835000 -0.1974000  0.1030000  )
        20           H   tau(  20) = (  0.1798000 -0.0908000 -0.0373000  )
        21           C   tau(  21) = (  0.3088000 -0.1159000  0.0528000  )
        22           O   tau(  22) = (  0.6415000 -0.2483700  0.1828000  )
        23           N   tau(  23) = (  0.1968000 -0.0019200  0.2937000  )
        24           O   tau(  24) = (  0.2260000  0.0709900  0.4230900  )
        25           N   tau(  25) = (  0.3569000 -0.0262300  0.2064000  )
        26           N   tau(  26) = (  0.6406000 -0.2036300  0.0302000  )
        27           O   tau(  27) = (  0.7723000 -0.2200300 -0.0649000  )
        28           N   tau(  28) = (  0.4812000 -0.1231000 -0.0400000  )
        29           H   tau(  29) = (  0.0020000  0.3756000  0.8130000  )
        30           H   tau(  30) = (  0.1579000  0.4729000  0.7620000  )
        31           C   tau(  31) = (  0.0218000  0.4344000  0.7193000  )
        32           O   tau(  32) = (  0.4660200  0.4390900  0.2626000  )
        33           H   tau(  33) = (  0.2165000  0.3026000  0.3970000  )
        34           H   tau(  34) = (  0.3202000  0.4092000  0.5373000  )
        35           C   tau(  35) = (  0.1912000  0.3841000  0.4472000  )
        36           O   tau(  36) = ( -0.1415000  0.2516300  0.3172000  )
        37           N   tau(  37) = (  0.3032000  0.4980800  0.2063000  )
        38           O   tau(  38) = (  0.2740000  0.5709900  0.0769100  )
        39           N   tau(  39) = (  0.1431000  0.4737700  0.2936000  )
        40           N   tau(  40) = ( -0.1406000  0.2963700  0.4698000  )
        41           O   tau(  41) = ( -0.2723000  0.2799700  0.5649000  )
        42           N   tau(  42) = (  0.0188000  0.3769000  0.5400000  )
        43           H   tau(  43) = (  0.5020000  0.1244000  0.3130000  )
        44           H   tau(  44) = (  0.6579000  0.0271000  0.2620000  )
        45           C   tau(  45) = (  0.5218000  0.0656000  0.2193000  )
        46           O   tau(  46) = (  0.9660200  0.0609100 -0.2374000  )
        47           H   tau(  47) = (  0.7165000  0.1974000 -0.1030000  )
        48           H   tau(  48) = (  0.8202000  0.0908000  0.0373000  )
        49           C   tau(  49) = (  0.6912000  0.1159000 -0.0528000  )
        50           O   tau(  50) = (  0.3585000  0.2483700 -0.1828000  )
        51           N   tau(  51) = (  0.8032000  0.0019200 -0.2937000  )
        52           O   tau(  52) = (  0.7740000 -0.0709900 -0.4230900  )
        53           N   tau(  53) = (  0.6431000  0.0262300 -0.2064000  )
        54           N   tau(  54) = (  0.3594000  0.2036300 -0.0302000  )
        55           O   tau(  55) = (  0.2277000  0.2200300  0.0649000  )
        56           N   tau(  56) = (  0.5188000  0.1231000  0.0400000  )

     number of k points=    32
                       cart. coord. in units 2pi/alat
        k(    1) = (   0.0191700   0.0114550   0.0216807), wk =   0.0625000
        k(    2) = (   0.0191700   0.0114550   0.0565656), wk =   0.0625000
        k(    3) = (   0.0191700   0.0114550  -0.0480889), wk =   0.0625000
        k(    4) = (   0.0191700   0.0114550  -0.0132041), wk =   0.0625000
        k(    5) = (   0.0191700   0.0343649   0.0216807), wk =   0.0625000
        k(    6) = (   0.0191700   0.0343649   0.0565656), wk =   0.0625000
        k(    7) = (   0.0191700   0.0343649  -0.0480889), wk =   0.0625000
        k(    8) = (   0.0191700   0.0343649  -0.0132041), wk =   0.0625000
        k(    9) = (   0.0575100   0.0114550   0.0301573), wk =   0.0625000
        k(   10) = (   0.0575100   0.0114550   0.0650422), wk =   0.0625000
        k(   11) = (   0.0575100   0.0114550  -0.0396123), wk =   0.0625000
        k(   12) = (   0.0575100   0.0114550  -0.0047275), wk =   0.0625000
        k(   13) = (   0.0575100   0.0343649   0.0301573), wk =   0.0625000
        k(   14) = (   0.0575100   0.0343649   0.0650422), wk =   0.0625000
        k(   15) = (   0.0575100   0.0343649  -0.0396123), wk =   0.0625000
        k(   16) = (   0.0575100   0.0343649  -0.0047275), wk =   0.0625000
        k(   17) = (  -0.0191700   0.0114550  -0.0216807), wk =   0.0625000
        k(   18) = (  -0.0191700   0.0114550  -0.0565656), wk =   0.0625000
        k(   19) = (  -0.0191700   0.0114550   0.0480889), wk =   0.0625000
        k(   20) = (  -0.0191700   0.0114550   0.0132041), wk =   0.0625000
        k(   21) = (  -0.0191700   0.0343649  -0.0216807), wk =   0.0625000
        k(   22) = (  -0.0191700   0.0343649  -0.0565656), wk =   0.0625000
        k(   23) = (  -0.0191700   0.0343649   0.0480889), wk =   0.0625000
        k(   24) = (  -0.0191700   0.0343649   0.0132041), wk =   0.0625000
        k(   25) = (  -0.0575100   0.0114550  -0.0301573), wk =   0.0625000
        k(   26) = (  -0.0575100   0.0114550  -0.0650422), wk =   0.0625000
        k(   27) = (  -0.0575100   0.0114550   0.0396123), wk =   0.0625000
        k(   28) = (  -0.0575100   0.0114550   0.0047275), wk =   0.0625000
        k(   29) = (  -0.0575100   0.0343649  -0.0301573), wk =   0.0625000
        k(   30) = (  -0.0575100   0.0343649  -0.0650422), wk =   0.0625000
        k(   31) = (  -0.0575100   0.0343649   0.0396123), wk =   0.0625000
        k(   32) = (  -0.0575100   0.0343649   0.0047275), wk =   0.0625000

                       cryst. coord.
        k(    1) = (   0.1250000   0.1250000   0.1250000), wk =   0.0625000
        k(    2) = (   0.1250000   0.1250000   0.3750000), wk =   0.0625000
        k(    3) = (   0.1250000   0.1250000  -0.3750000), wk =   0.0625000
        k(    4) = (   0.1250000   0.1250000  -0.1250000), wk =   0.0625000
        k(    5) = (   0.1250000   0.3750000   0.1250000), wk =   0.0625000
        k(    6) = (   0.1250000   0.3750000   0.3750000), wk =   0.0625000
        k(    7) = (   0.1250000   0.3750000  -0.3750000), wk =   0.0625000
        k(    8) = (   0.1250000   0.3750000  -0.1250000), wk =   0.0625000
        k(    9) = (   0.3750000   0.1250000   0.1250000), wk =   0.0625000
        k(   10) = (   0.3750000   0.1250000   0.3750000), wk =   0.0625000
        k(   11) = (   0.3750000   0.1250000  -0.3750000), wk =   0.0625000
        k(   12) = (   0.3750000   0.1250000  -0.1250000), wk =   0.0625000
        k(   13) = (   0.3750000   0.3750000   0.1250000), wk =   0.0625000
        k(   14) = (   0.3750000   0.3750000   0.3750000), wk =   0.0625000
        k(   15) = (   0.3750000   0.3750000  -0.3750000), wk =   0.0625000
        k(   16) = (   0.3750000   0.3750000  -0.1250000), wk =   0.0625000
        k(   17) = (  -0.1250000   0.1250000  -0.1250000), wk =   0.0625000
        k(   18) = (  -0.1250000   0.1250000  -0.3750000), wk =   0.0625000
        k(   19) = (  -0.1250000   0.1250000   0.3750000), wk =   0.0625000
        k(   20) = (  -0.1250000   0.1250000   0.1250000), wk =   0.0625000
        k(   21) = (  -0.1250000   0.3750000  -0.1250000), wk =   0.0625000
        k(   22) = (  -0.1250000   0.3750000  -0.3750000), wk =   0.0625000
        k(   23) = (  -0.1250000   0.3750000   0.3750000), wk =   0.0625000
        k(   24) = (  -0.1250000   0.3750000   0.1250000), wk =   0.0625000
        k(   25) = (  -0.3750000   0.1250000  -0.1250000), wk =   0.0625000
        k(   26) = (  -0.3750000   0.1250000  -0.3750000), wk =   0.0625000
        k(   27) = (  -0.3750000   0.1250000   0.3750000), wk =   0.0625000
        k(   28) = (  -0.3750000   0.1250000   0.1250000), wk =   0.0625000
        k(   29) = (  -0.3750000   0.3750000  -0.1250000), wk =   0.0625000
        k(   30) = (  -0.3750000   0.3750000  -0.3750000), wk =   0.0625000
        k(   31) = (  -0.3750000   0.3750000   0.3750000), wk =   0.0625000
        k(   32) = (  -0.3750000   0.3750000   0.1250000), wk =   0.0625000

     Dense  grid:  1837301 G-vectors     FFT dimensions: ( 125, 216, 144)

     Smooth grid:   464825 G-vectors     FFT dimensions: (  80, 135,  90)

     Largest allocated arrays     est. size (Mb)     dimensions
        Kohn-Sham Wavefunctions        12.47 Mb     (    7298,  112)
        NL pseudopotentials            39.20 Mb     (    7298,  352)
        Each V/rho on FFT grid          7.42 Mb     (  486000)
        Each G-vector array             1.75 Mb     (  229663)
        G-vector shells                 1.64 Mb     (  215034)
     Largest temporary arrays     est. size (Mb)     dimensions
        Auxiliary wavefunctions        49.89 Mb     (    7298,  448)
        Each subspace H/S matrix        3.06 Mb     (     448,  448)
        Each <psi_i|beta_j> matrix      0.60 Mb     (     352,  112)
        Arrays for rho mixing          59.33 Mb     (  486000,    8)

     Initial potential from superposition of free atoms

     starting charge  223.99937, renormalised to  224.00000
     Starting wfc are  176 randomized atomic wfcs
     Checking if some PAW data can be deallocated... 
       node    0, deallocated PAW data for type:  2
       node    0, deallocated PAW data for type:  3
       node    1, deallocated PAW data for type:  1
       node    2, deallocated PAW data for type:  1
       node    3, deallocated PAW data for type:  2
       node    3, deallocated PAW data for type:  3
       node    4, deallocated PAW data for type:  1
       node    5, deallocated PAW data for type:  2
       node    5, deallocated PAW data for type:  3
       node    6, deallocated PAW data for type:  1
       node    7, deallocated PAW data for type:  2
       node    7, deallocated PAW data for type:  3

     total cpu time spent up to now is      632.0 secs

     per-process dynamical memory:   600.3 Mb

     Self-consistent Calculation

     iteration #  1     ecut=   100.00 Ry     beta=0.70
     Davidson diagonalization with overlap
     ethr =  1.00E-02,  avg # of iterations =  3.0

     total cpu time spent up to now is     2155.3 secs

     total energy              =   -1279.67290322 Ry
     Harris-Foulkes estimate   =   -1283.97686335 Ry
     estimated scf accuracy    <       6.62978351 Ry

     iteration #  2     ecut=   100.00 Ry     beta=0.70
     Davidson diagonalization with overlap
     ethr =  2.96E-03,  avg # of iterations =  4.0

     total cpu time spent up to now is     3936.0 secs

     total energy              =   -1280.34155165 Ry
     Harris-Foulkes estimate   =   -1283.83490459 Ry
     estimated scf accuracy    <       7.06229762 Ry

     iteration #  3     ecut=   100.00 Ry     beta=0.70
     Davidson diagonalization with overlap
     ethr =  2.96E-03,  avg # of iterations =  4.6

     total cpu time spent up to now is     5216.4 secs

     total energy              =   -1281.85371117 Ry
     Harris-Foulkes estimate   =   -1282.07938296 Ry
     estimated scf accuracy    <       0.41846925 Ry

     iteration #  4     ecut=   100.00 Ry     beta=0.70
     Davidson diagonalization with overlap
     ethr =  1.87E-04,  avg # of iterations =  4.9

     total cpu time spent up to now is     6893.5 secs

     total energy              =   -1281.99777158 Ry
     Harris-Foulkes estimate   =   -1282.08452041 Ry
     estimated scf accuracy    <       0.19138912 Ry

     iteration #  5     ecut=   100.00 Ry     beta=0.70
     Davidson diagonalization with overlap
     ethr =  8.54E-05,  avg # of iterations =  4.0

     total cpu time spent up to now is     8240.8 secs

     total energy              =   -1282.03700356 Ry
     Harris-Foulkes estimate   =   -1282.04570959 Ry
     estimated scf accuracy    <       0.02153394 Ry

     iteration #  6     ecut=   100.00 Ry     beta=0.70
     Davidson diagonalization with overlap
     ethr =  9.61E-06,  avg # of iterations =  6.2

     total cpu time spent up to now is     9345.1 secs

     total energy              =   -1282.03911546 Ry
     Harris-Foulkes estimate   =   -1282.04043821 Ry
     estimated scf accuracy    <       0.00342576 Ry

     iteration #  7     ecut=   100.00 Ry     beta=0.70
     Davidson diagonalization with overlap
     ethr =  1.53E-06,  avg # of iterations =  4.6

     total cpu time spent up to now is    11146.9 secs

     total energy              =   -1282.04148558 Ry
     Harris-Foulkes estimate   =   -1282.04236957 Ry
     estimated scf accuracy    <       0.00300396 Ry

     iteration #  8     ecut=   100.00 Ry     beta=0.70
     Davidson diagonalization with overlap
     ethr =  1.34E-06,  avg # of iterations =  1.0

     total cpu time spent up to now is    12066.8 secs

     total energy              =   -1282.04070010 Ry
     Harris-Foulkes estimate   =   -1282.04154489 Ry
     estimated scf accuracy    <       0.00159440 Ry

     iteration #  9     ecut=   100.00 Ry     beta=0.70
     Davidson diagonalization with overlap
     ethr =  7.12E-07,  avg # of iterations =  5.0

     total cpu time spent up to now is    13780.8 secs

     total energy              =   -1282.04180681 Ry
     Harris-Foulkes estimate   =   -1282.04269847 Ry
     estimated scf accuracy    <       0.00474863 Ry

     iteration # 10     ecut=   100.00 Ry     beta=0.70
     Davidson diagonalization with overlap
     ethr =  7.12E-07,  avg # of iterations =  1.0

     total cpu time spent up to now is    14720.2 secs

     total energy              =   -1282.04064771 Ry
     Harris-Foulkes estimate   =   -1282.04183318 Ry
     estimated scf accuracy    <       0.00331218 Ry

     iteration # 11     ecut=   100.00 Ry     beta=0.70
     Davidson diagonalization with overlap
     ethr =  7.12E-07,  avg # of iterations =  5.0

     total cpu time spent up to now is    16162.5 secs

     total energy              =   -1282.04173561 Ry
     Harris-Foulkes estimate   =   -1282.04193061 Ry
     estimated scf accuracy    <       0.00075276 Ry

     iteration # 12     ecut=   100.00 Ry     beta=0.70
     Davidson diagonalization with overlap
     ethr =  3.36E-07,  avg # of iterations =  1.0

     total cpu time spent up to now is    17087.3 secs

     total energy              =   -1282.04156360 Ry
     Harris-Foulkes estimate   =   -1282.04174543 Ry
     estimated scf accuracy    <       0.00044226 Ry

     iteration # 13     ecut=   100.00 Ry     beta=0.70
     Davidson diagonalization with overlap
     ethr =  1.97E-07,  avg # of iterations =  5.0

     total cpu time spent up to now is    18509.0 secs

     total energy              =   -1282.04178939 Ry
     Harris-Foulkes estimate   =   -1282.04185715 Ry
     estimated scf accuracy    <       0.00035930 Ry

     iteration # 14     ecut=   100.00 Ry     beta=0.70
     Davidson diagonalization with overlap
     ethr =  1.60E-07,  avg # of iterations =  1.0

     total cpu time spent up to now is    19428.0 secs

     total energy              =   -1282.04171728 Ry
     Harris-Foulkes estimate   =   -1282.04179156 Ry
     estimated scf accuracy    <       0.00025106 Ry

     iteration # 15     ecut=   100.00 Ry     beta=0.70
     Davidson diagonalization with overlap
     ethr =  1.12E-07,  avg # of iterations =  5.0

     total cpu time spent up to now is    20683.3 secs

     total energy              =   -1282.04180381 Ry
     Harris-Foulkes estimate   =   -1282.04179046 Ry
     estimated scf accuracy    <       0.00001652 Ry

     iteration # 16     ecut=   100.00 Ry     beta=0.70
     Davidson diagonalization with overlap
     ethr =  7.37E-09,  avg # of iterations =  5.0

     total cpu time spent up to now is    22266.5 secs

     total energy              =   -1282.04178320 Ry
     Harris-Foulkes estimate   =   -1282.04181402 Ry
     estimated scf accuracy    <       0.00013644 Ry

     iteration # 17     ecut=   100.00 Ry     beta=0.70
     Davidson diagonalization with overlap
     ethr =  7.37E-09,  avg # of iterations =  5.1

     total cpu time spent up to now is    23615.4 secs

     total energy              =   -1282.04178512 Ry
     Harris-Foulkes estimate   =   -1282.04179137 Ry
     estimated scf accuracy    <       0.00001876 Ry

     iteration # 18     ecut=   100.00 Ry     beta=0.70
     Davidson diagonalization with overlap
     ethr =  7.37E-09,  avg # of iterations =  1.1

     total cpu time spent up to now is    24541.4 secs

     total energy              =   -1282.04178473 Ry
     Harris-Foulkes estimate   =   -1282.04178554 Ry
     estimated scf accuracy    <       0.00000877 Ry

     iteration # 19     ecut=   100.00 Ry     beta=0.70
     Davidson diagonalization with overlap
     ethr =  3.92E-09,  avg # of iterations =  5.0

     total cpu time spent up to now is    25842.0 secs

     End of self-consistent calculation

          k = 0.0192 0.0115 0.0217 ( 58106 PWs)   bands (ev):

   -23.8711 -23.8464 -23.8345 -23.8247 -23.5857 -23.5760 -23.5752 -23.5710
   -19.1042 -19.0988 -19.0914 -19.0788 -18.7825 -18.7823 -18.7779 -18.7767
   -18.1723 -18.1459 -17.1421 -17.0897 -17.0023 -16.9996 -15.9833 -15.9699
   -12.0103 -12.0082 -11.9990 -11.8813 -11.8236 -11.7464 -11.6890 -11.6713
    -8.8190  -8.7787  -8.2056  -8.1668  -7.4909  -7.4458  -7.3632  -7.3572
    -6.8006  -6.6899  -6.5496  -6.4466  -6.4305  -6.3506  -6.2891  -6.2018
    -6.0703  -6.0357  -6.0145  -5.8932  -5.8406  -5.7544  -5.6885  -5.6461
    -5.5844  -5.5631  -5.4882  -5.4384  -5.0741  -4.9570  -4.8624  -4.8517
    -4.3908  -4.3862  -4.3562  -4.3164  -4.1431  -4.0327  -3.7867  -3.7780
    -3.6142  -3.4869  -3.4274  -3.3837  -3.0859  -3.0514  -2.9584  -2.9398
    -0.7440  -0.7388  -0.2528  -0.2494  -0.1505  -0.1007  -0.0415  -0.0246
     0.0326   0.0653   0.2264   0.2629   0.2756   0.3072   0.4337   0.4508
     0.4980   0.5177   0.6975   0.7494   0.8361   0.8746   0.9247   0.9519
     0.9761   1.0899   1.1217   1.1887   1.2750   1.4114   1.4268   1.4539

     occupation numbers 
     1.0000   1.0000   1.0000   1.0000   1.0000   1.0000   1.0000   1.0000
     1.0000   1.0000   1.0000   1.0000   1.0000   1.0000   1.0000   1.0000
     1.0000   1.0000   1.0000   1.0000   1.0000   1.0000   1.0000   1.0000
     1.0000   1.0000   1.0000   1.0000   1.0000   1.0000   1.0000   1.0000
     1.0000   1.0000   1.0000   1.0000   1.0000   1.0000   1.0000   1.0000
     1.0000   1.0000   1.0000   1.0000   1.0000   1.0000   1.0000   1.0000
     1.0000   1.0000   1.0000   1.0000   1.0000   1.0000   1.0000   1.0000
     1.0000   1.0000   1.0000   1.0000   1.0000   1.0000   1.0000   1.0000
     1.0000   1.0000   1.0000   1.0000   1.0000   1.0000   1.0000   1.0000
     1.0000   1.0000   1.0000   1.0000   1.0000   1.0000   1.0000   1.0000
     1.0000   1.0000   1.0000   1.0000   1.0000   1.0000   1.0000   1.0000
     1.0000   1.0000   1.0000   1.0000   1.0000   1.0000   1.0000   1.0000
     1.0000   1.0000   1.0000   1.0000   1.0000   1.0000   1.0000   1.0000
     1.0000   1.0000   1.0000   1.0000   1.0000   1.0000   1.0000   1.0000

          k = 0.0192 0.0115 0.0566 ( 58126 PWs)   bands (ev):

   -23.8625 -23.8524 -23.8307 -23.8297 -23.5872 -23.5836 -23.5718 -23.5669
   -19.1023 -19.0974 -19.0924 -19.0826 -18.7890 -18.7881 -18.7726 -18.7709
   -18.1600 -18.1596 -17.1171 -17.1144 -16.9982 -16.9953 -15.9786 -15.9764
   -12.0190 -12.0145 -11.9492 -11.9283 -11.7801 -11.7679 -11.6974 -11.6890
    -8.7992  -8.7619  -8.1861  -8.1600  -7.5061  -7.4524  -7.3406  -7.2575
    -6.8480  -6.7184  -6.5302  -6.4881  -6.4799  -6.3691  -6.3132  -6.2814
    -6.1300  -6.0930  -5.9011  -5.8462  -5.8266  -5.7660  -5.7365  -5.6910
    -5.6440  -5.5845  -5.4051  -5.3561  -5.0777  -4.9974  -4.8573  -4.8194
    -4.3536  -4.3448  -4.2865  -4.2231  -4.0688  -4.0329  -3.9013  -3.9012
    -3.5938  -3.5370  -3.3652  -3.3539  -3.1145  -3.1100  -2.9407  -2.9159
    -0.7089  -0.6743  -0.2663  -0.2536  -0.1614  -0.1340  -0.0705  -0.0567
    -0.0242   0.0202   0.1283   0.1912   0.2922   0.3482   0.4030   0.4148
     0.6085   0.6732   0.7179   0.7656   0.8322   0.8542   0.8857   0.9366
     1.0477   1.0868   1.1610   1.1862   1.2847   1.3591   1.4325   1.4599

     occupation numbers 
     1.0000   1.0000   1.0000   1.0000   1.0000   1.0000   1.0000   1.0000
     1.0000   1.0000   1.0000   1.0000   1.0000   1.0000   1.0000   1.0000
     1.0000   1.0000   1.0000   1.0000   1.0000   1.0000   1.0000   1.0000
     1.0000   1.0000   1.0000   1.0000   1.0000   1.0000   1.0000   1.0000
     1.0000   1.0000   1.0000   1.0000   1.0000   1.0000   1.0000   1.0000
     1.0000   1.0000   1.0000   1.0000   1.0000   1.0000   1.0000   1.0000
     1.0000   1.0000   1.0000   1.0000   1.0000   1.0000   1.0000   1.0000
     1.0000   1.0000   1.0000   1.0000   1.0000   1.0000   1.0000   1.0000
     1.0000   1.0000   1.0000   1.0000   1.0000   1.0000   1.0000   1.0000
     1.0000   1.0000   1.0000   1.0000   1.0000   1.0000   1.0000   1.0000
     1.0000   1.0000   1.0000   1.0000   1.0000   1.0000   1.0000   1.0000
     1.0000   1.0000   1.0000   1.0000   1.0000   1.0000   1.0000   1.0000
     1.0000   1.0000   1.0000   1.0000   1.0000   1.0000   1.0000   1.0000
     1.0000   1.0000   1.0000   1.0000   1.0000   1.0000   1.0000   1.0000

          k = 0.0192 0.0115-0.0481 ( 58135 PWs)   bands (ev):

   -23.8633 -23.8519 -23.8346 -23.8254 -23.5887 -23.5854 -23.5684 -23.5670
   -19.0998 -19.0981 -19.0892 -19.0878 -18.7905 -18.7897 -18.7709 -18.7694
   -18.1720 -18.1463 -17.1397 -17.0915 -17.0008 -16.9990 -15.9823 -15.9659
   -12.0328 -12.0129 -11.9813 -11.8952 -11.8083 -11.7349 -11.6981 -11.6891
    -8.8083  -8.7219  -8.1724  -8.1696  -7.4998  -7.4838  -7.3501  -7.2330
    -6.8580  -6.7458  -6.5277  -6.4868  -6.4479  -6.4181  -6.3263  -6.2891
    -6.1487  -6.1192  -5.9037  -5.8646  -5.7659  -5.7264  -5.7221  -5.7080
    -5.6400  -5.5679  -5.4059  -5.3531  -5.0733  -4.9977  -4.8441  -4.8111
    -4.3811  -4.3114  -4.2803  -4.2242  -4.0877  -4.0677  -3.9086  -3.8530
    -3.5940  -3.5437  -3.4199  -3.3332  -3.1212  -3.0970  -2.9365  -2.9228
    -0.6406  -0.5786  -0.2547  -0.2461  -0.2256  -0.1921  -0.1123  -0.0948
    -0.0331  -0.0279   0.0954   0.1792   0.3128   0.3499   0.3572   0.4095
     0.6537   0.7329   0.7563   0.7673   0.8126   0.8963   0.9064   0.9178
     1.0397   1.0932   1.1724   1.2322   1.2902   1.3175   1.4237   1.4439

     occupation numbers 
     1.0000   1.0000   1.0000   1.0000   1.0000   1.0000   1.0000   1.0000
     1.0000   1.0000   1.0000   1.0000   1.0000   1.0000   1.0000   1.0000
     1.0000   1.0000   1.0000   1.0000   1.0000   1.0000   1.0000   1.0000
     1.0000   1.0000   1.0000   1.0000   1.0000   1.0000   1.0000   1.0000
     1.0000   1.0000   1.0000   1.0000   1.0000   1.0000   1.0000   1.0000
     1.0000   1.0000   1.0000   1.0000   1.0000   1.0000   1.0000   1.0000
     1.0000   1.0000   1.0000   1.0000   1.0000   1.0000   1.0000   1.0000
     1.0000   1.0000   1.0000   1.0000   1.0000   1.0000   1.0000   1.0000
     1.0000   1.0000   1.0000   1.0000   1.0000   1.0000   1.0000   1.0000
     1.0000   1.0000   1.0000   1.0000   1.0000   1.0000   1.0000   1.0000
     1.0000   1.0000   1.0000   1.0000   1.0000   1.0000   1.0000   1.0000
     1.0000   1.0000   1.0000   1.0000   1.0000   1.0000   1.0000   1.0000
     1.0000   1.0000   1.0000   1.0000   1.0000   1.0000   1.0000   1.0000
     1.0000   1.0000   1.0000   1.0000   1.0000   1.0000   1.0000   1.0000

          k = 0.0192 0.0115-0.0132 ( 58137 PWs)   bands (ev):

   -23.8714 -23.8467 -23.8357 -23.8228 -23.5882 -23.5790 -23.5714 -23.5694
   -19.1031 -19.0974 -19.0917 -19.0812 -18.7862 -18.7856 -18.7737 -18.7737
   -18.1769 -18.1399 -17.1514 -17.0801 -17.0046 -17.0036 -15.9837 -15.9627
   -12.0336 -12.0091 -11.9977 -11.8780 -11.8245 -11.7347 -11.6866 -11.6722
    -8.8303  -8.7367  -8.1988  -8.1699  -7.4955  -7.4710  -7.3936  -7.3093
    -6.7690  -6.7510  -6.5436  -6.4371  -6.4332  -6.3957  -6.2946  -6.2201
    -6.1175  -6.0699  -5.9464  -5.8935  -5.8007  -5.7536  -5.6715  -5.6430
    -5.6002  -5.5461  -5.4534  -5.4494  -5.0418  -4.9946  -4.8527  -4.8254
    -4.3949  -4.3792  -4.3540  -4.3282  -4.1563  -4.0414  -3.7949  -3.7366
    -3.6404  -3.4985  -3.4393  -3.3809  -3.0943  -3.0449  -2.9507  -2.9481
    -0.6938  -0.6720  -0.2416  -0.2375  -0.1531  -0.1197  -0.0582  -0.0336
    -0.0233   0.0147   0.1229   0.1824   0.2476   0.3290   0.3761   0.4431
     0.6229   0.6554   0.6913   0.7699   0.8315   0.8812   0.9390   0.9505
     0.9838   1.0669   1.1510   1.2168   1.2703   1.3902   1.4116   1.4446

     occupation numbers 
     1.0000   1.0000   1.0000   1.0000   1.0000   1.0000   1.0000   1.0000
     1.0000   1.0000   1.0000   1.0000   1.0000   1.0000   1.0000   1.0000
     1.0000   1.0000   1.0000   1.0000   1.0000   1.0000   1.0000   1.0000
     1.0000   1.0000   1.0000   1.0000   1.0000   1.0000   1.0000   1.0000
     1.0000   1.0000   1.0000   1.0000   1.0000   1.0000   1.0000   1.0000
     1.0000   1.0000   1.0000   1.0000   1.0000   1.0000   1.0000   1.0000
     1.0000   1.0000   1.0000   1.0000   1.0000   1.0000   1.0000   1.0000
     1.0000   1.0000   1.0000   1.0000   1.0000   1.0000   1.0000   1.0000
     1.0000   1.0000   1.0000   1.0000   1.0000   1.0000   1.0000   1.0000
     1.0000   1.0000   1.0000   1.0000   1.0000   1.0000   1.0000   1.0000
     1.0000   1.0000   1.0000   1.0000   1.0000   1.0000   1.0000   1.0000
     1.0000   1.0000   1.0000   1.0000   1.0000   1.0000   1.0000   1.0000
     1.0000   1.0000   1.0000   1.0000   1.0000   1.0000   1.0000   1.0000
     1.0000   1.0000   1.0000   1.0000   1.0000   1.0000   1.0000   1.0000

          k = 0.0192 0.0344 0.0217 ( 58102 PWs)   bands (ev):

   -23.8652 -23.8558 -23.8297 -23.8263 -23.5816 -23.5770 -23.5750 -23.5739
   -19.1039 -19.1023 -19.0858 -19.0812 -18.7825 -18.7824 -18.7775 -18.7770
   -18.1648 -18.1539 -17.1267 -17.1051 -17.0014 -17.0002 -15.9793 -15.9738
   -12.0105 -12.0102 -11.9734 -11.9309 -11.7852 -11.7587 -11.6836 -11.6763
    -8.8082  -8.7915  -8.1951  -8.1790  -7.4802  -7.4609  -7.3555  -7.3529
    -6.7763  -6.7276  -6.4916  -6.4442  -6.4398  -6.3982  -6.2637  -6.2369
    -6.0817  -6.0635  -5.9371  -5.9040  -5.8398  -5.7920  -5.6987  -5.6816
    -5.5476  -5.5349  -5.4650  -5.4412  -5.0266  -4.9567  -4.9113  -4.8845
    -4.4054  -4.3973  -4.3234  -4.3065  -4.1168  -4.0657  -3.7816  -3.7750
    -3.5772  -3.5216  -3.4155  -3.3952  -3.0798  -3.0659  -2.9497  -2.9427
    -0.7391  -0.7365  -0.2443  -0.2351  -0.1673  -0.1303  -0.0659  -0.0594
     0.0694   0.0804   0.2549   0.2655   0.2982   0.3051   0.4544   0.4582
     0.4732   0.5024   0.7076   0.7363   0.8149   0.8314   0.9421   0.9628
     1.0124   1.0595   1.1520   1.1770   1.3148   1.3719   1.4355   1.4437

     occupation numbers 
     1.0000   1.0000   1.0000   1.0000   1.0000   1.0000   1.0000   1.0000
     1.0000   1.0000   1.0000   1.0000   1.0000   1.0000   1.0000   1.0000
     1.0000   1.0000   1.0000   1.0000   1.0000   1.0000   1.0000   1.0000
     1.0000   1.0000   1.0000   1.0000   1.0000   1.0000   1.0000   1.0000
     1.0000   1.0000   1.0000   1.0000   1.0000   1.0000   1.0000   1.0000
     1.0000   1.0000   1.0000   1.0000   1.0000   1.0000   1.0000   1.0000
     1.0000   1.0000   1.0000   1.0000   1.0000   1.0000   1.0000   1.0000
     1.0000   1.0000   1.0000   1.0000   1.0000   1.0000   1.0000   1.0000
     1.0000   1.0000   1.0000   1.0000   1.0000   1.0000   1.0000   1.0000
     1.0000   1.0000   1.0000   1.0000   1.0000   1.0000   1.0000   1.0000
     1.0000   1.0000   1.0000   1.0000   1.0000   1.0000   1.0000   1.0000
     1.0000   1.0000   1.0000   1.0000   1.0000   1.0000   1.0000   1.0000
     1.0000   1.0000   1.0000   1.0000   1.0000   1.0000   1.0000   1.0000
     1.0000   1.0000   1.0000   1.0000   1.0000   1.0000   1.0000   1.0000

          k = 0.0192 0.0344 0.0566 ( 58130 PWs)   bands (ev):

   -23.8591 -23.8549 -23.8311 -23.8305 -23.5854 -23.5839 -23.5710 -23.5689
   -19.1022 -19.1008 -19.0876 -19.0841 -18.7888 -18.7884 -18.7721 -18.7714
   -18.1599 -18.1597 -17.1168 -17.1156 -16.9969 -16.9957 -15.9780 -15.9771
   -12.0172 -12.0151 -11.9459 -11.9369 -11.7733 -11.7676 -11.6965 -11.6929
    -8.7885  -8.7731  -8.1790  -8.1681  -7.4887  -7.4668  -7.3165  -7.2830
    -6.8273  -6.7797  -6.5119  -6.4989  -6.4296  -6.3819  -6.3230  -6.3031
    -6.0842  -6.0506  -5.9225  -5.8684  -5.8072  -5.7731  -5.7384  -5.7187
    -5.6287  -5.5921  -5.4123  -5.3890  -5.0108  -4.9589  -4.9074  -4.8682
    -4.3286  -4.3143  -4.2826  -4.2520  -4.0647  -4.0490  -3.9016  -3.9007
    -3.5712  -3.5472  -3.3638  -3.3588  -3.1094  -3.1048  -2.9414  -2.9291
    -0.6979  -0.6837  -0.2581  -0.2477  -0.1755  -0.1484  -0.0912  -0.0764
     0.0052   0.0244   0.1788   0.2000   0.2980   0.3251   0.3950   0.4072
     0.6258   0.6538   0.7306   0.7525   0.8416   0.8522   0.8924   0.9223
     1.0482   1.0687   1.1735   1.1833   1.3105   1.3406   1.4391   1.4504

     occupation numbers 
     1.0000   1.0000   1.0000   1.0000   1.0000   1.0000   1.0000   1.0000
     1.0000   1.0000   1.0000   1.0000   1.0000   1.0000   1.0000   1.0000
     1.0000   1.0000   1.0000   1.0000   1.0000   1.0000   1.0000   1.0000
     1.0000   1.0000   1.0000   1.0000   1.0000   1.0000   1.0000   1.0000
     1.0000   1.0000   1.0000   1.0000   1.0000   1.0000   1.0000   1.0000
     1.0000   1.0000   1.0000   1.0000   1.0000   1.0000   1.0000   1.0000
     1.0000   1.0000   1.0000   1.0000   1.0000   1.0000   1.0000   1.0000
     1.0000   1.0000   1.0000   1.0000   1.0000   1.0000   1.0000   1.0000
     1.0000   1.0000   1.0000   1.0000   1.0000   1.0000   1.0000   1.0000
     1.0000   1.0000   1.0000   1.0000   1.0000   1.0000   1.0000   1.0000
     1.0000   1.0000   1.0000   1.0000   1.0000   1.0000   1.0000   1.0000
     1.0000   1.0000   1.0000   1.0000   1.0000   1.0000   1.0000   1.0000
     1.0000   1.0000   1.0000   1.0000   1.0000   1.0000   1.0000   1.0000
     1.0000   1.0000   1.0000   1.0000   1.0000   1.0000   1.0000   1.0000

          k = 0.0192 0.0344-0.0481 ( 58137 PWs)   bands (ev):

   -23.8600 -23.8553 -23.8320 -23.8282 -23.5871 -23.5857 -23.5685 -23.5679
   -19.1004 -19.0997 -19.0876 -19.0871 -18.7903 -18.7900 -18.7705 -18.7698
   -18.1647 -18.1540 -17.1257 -17.1057 -17.0000 -16.9993 -15.9774 -15.9706
   -12.0277 -12.0199 -11.9621 -11.9297 -11.7771 -11.7495 -11.6954 -11.6912
    -8.7841  -8.7483  -8.1731  -8.1716  -7.4914  -7.4858  -7.3190  -7.2695
    -6.8237  -6.7764  -6.5342  -6.5033  -6.4283  -6.4125  -6.3549  -6.3344
    -6.0620  -6.0421  -5.9410  -5.9057  -5.7600  -5.7436  -5.7216  -5.6998
    -5.6269  -5.5909  -5.3989  -5.3701  -5.0445  -4.9915  -4.8683  -4.8346
    -4.3687  -4.3397  -4.2395  -4.2193  -4.0900  -4.0824  -3.8930  -3.8702
    -3.5714  -3.5505  -3.3950  -3.3589  -3.1075  -3.0961  -2.9425  -2.9375
    -0.6238  -0.5986  -0.2553  -0.2518  -0.1952  -0.1771  -0.1364  -0.1149
    -0.0509  -0.0370   0.1482   0.1806   0.3155   0.3324   0.3696   0.3978
     0.6767   0.7088   0.7787   0.7905   0.8022   0.8461   0.9140   0.9185
     1.0545   1.0719   1.1980   1.2208   1.2958   1.3080   1.4289   1.4377

     occupation numbers 
     1.0000   1.0000   1.0000   1.0000   1.0000   1.0000   1.0000   1.0000
     1.0000   1.0000   1.0000   1.0000   1.0000   1.0000   1.0000   1.0000
     1.0000   1.0000   1.0000   1.0000   1.0000   1.0000   1.0000   1.0000
     1.0000   1.0000   1.0000   1.0000   1.0000   1.0000   1.0000   1.0000
     1.0000   1.0000   1.0000   1.0000   1.0000   1.0000   1.0000   1.0000
     1.0000   1.0000   1.0000   1.0000   1.0000   1.0000   1.0000   1.0000
     1.0000   1.0000   1.0000   1.0000   1.0000   1.0000   1.0000   1.0000
     1.0000   1.0000   1.0000   1.0000   1.0000   1.0000   1.0000   1.0000
     1.0000   1.0000   1.0000   1.0000   1.0000   1.0000   1.0000   1.0000
     1.0000   1.0000   1.0000   1.0000   1.0000   1.0000   1.0000   1.0000
     1.0000   1.0000   1.0000   1.0000   1.0000   1.0000   1.0000   1.0000
     1.0000   1.0000   1.0000   1.0000   1.0000   1.0000   1.0000   1.0000
     1.0000   1.0000   1.0000   1.0000   1.0000   1.0000   1.0000   1.0000
     1.0000   1.0000   1.0000   1.0000   1.0000   1.0000   1.0000   1.0000

          k = 0.0192 0.0344-0.0132 ( 58109 PWs)   bands (ev):

   -23.8658 -23.8564 -23.8296 -23.8252 -23.5848 -23.5809 -23.5713 -23.5706
   -19.1028 -19.1011 -19.0866 -19.0829 -18.7860 -18.7858 -18.7737 -18.7737
   -18.1665 -18.1512 -17.1301 -17.1006 -17.0045 -17.0040 -15.9773 -15.9686
   -12.0251 -12.0167 -11.9745 -11.9321 -11.7807 -11.7503 -11.6814 -11.6754
    -8.8046  -8.7659  -8.1922  -8.1803  -7.4881  -7.4770  -7.3664  -7.3327
    -6.7425  -6.7254  -6.5329  -6.4757  -6.4319  -6.4113  -6.3156  -6.2815
    -6.0562  -6.0338  -5.9543  -5.9224  -5.7933  -5.7678  -5.6755  -5.6739
    -5.5517  -5.5350  -5.4446  -5.4379  -5.0372  -5.0043  -4.8668  -4.8463
    -4.4091  -4.4056  -4.3274  -4.3063  -4.1290  -4.0758  -3.7763  -3.7521
    -3.5880  -3.5281  -3.4258  -3.4007  -3.0829  -3.0627  -2.9494  -2.9484
    -0.6841  -0.6750  -0.2340  -0.2251  -0.1682  -0.1322  -0.0715  -0.0601
    -0.0185   0.0012   0.1544   0.1834   0.2722   0.3096   0.4128   0.4418
     0.6339   0.6594   0.6953   0.7513   0.8016   0.8355   0.9536   0.9568
     1.0203   1.0509   1.1822   1.2080   1.2989   1.3517   1.4221   1.4316

     occupation numbers 
     1.0000   1.0000   1.0000   1.0000   1.0000   1.0000   1.0000   1.0000
     1.0000   1.0000   1.0000   1.0000   1.0000   1.0000   1.0000   1.0000
     1.0000   1.0000   1.0000   1.0000   1.0000   1.0000   1.0000   1.0000
     1.0000   1.0000   1.0000   1.0000   1.0000   1.0000   1.0000   1.0000
     1.0000   1.0000   1.0000   1.0000   1.0000   1.0000   1.0000   1.0000
     1.0000   1.0000   1.0000   1.0000   1.0000   1.0000   1.0000   1.0000
     1.0000   1.0000   1.0000   1.0000   1.0000   1.0000   1.0000   1.0000
     1.0000   1.0000   1.0000   1.0000   1.0000   1.0000   1.0000   1.0000
     1.0000   1.0000   1.0000   1.0000   1.0000   1.0000   1.0000   1.0000
     1.0000   1.0000   1.0000   1.0000   1.0000   1.0000   1.0000   1.0000
     1.0000   1.0000   1.0000   1.0000   1.0000   1.0000   1.0000   1.0000
     1.0000   1.0000   1.0000   1.0000   1.0000   1.0000   1.0000   1.0000
     1.0000   1.0000   1.0000   1.0000   1.0000   1.0000   1.0000   1.0000
     1.0000   1.0000   1.0000   1.0000   1.0000   1.0000   1.0000   1.0000

          k = 0.0575 0.0115 0.0302 ( 58107 PWs)   bands (ev):

   -23.8597 -23.8489 -23.8315 -23.8309 -23.5842 -23.5808 -23.5763 -23.5711
   -19.1019 -19.0977 -19.0931 -19.0835 -18.7854 -18.7841 -18.7761 -18.7748
   -18.1664 -18.1661 -17.1150 -17.1127 -17.0022 -17.0001 -15.9795 -15.9771
   -12.0071 -12.0047 -11.9159 -11.8967 -11.7534 -11.7334 -11.7021 -11.6847
    -8.8193  -8.7848  -8.2049  -8.1819  -7.4799  -7.4556  -7.4305  -7.3708
    -6.9203  -6.8480  -6.6172  -6.4855  -6.3998  -6.3606  -6.1948  -6.1598
    -6.1383  -6.0834  -5.9538  -5.8839  -5.8284  -5.7783  -5.6983  -5.6741
    -5.5869  -5.5418  -5.4828  -5.4641  -5.0844  -4.9711  -4.8488  -4.8431
    -4.3866  -4.3635  -4.3189  -4.2724  -3.9443  -3.8896  -3.7342  -3.6928
    -3.6526  -3.5358  -3.4887  -3.4808  -3.0850  -3.0824  -2.9591  -2.9280
    -0.6962  -0.6824  -0.2359  -0.2308  -0.1423  -0.1226  -0.0646  -0.0420
    -0.0064   0.0252   0.1692   0.1847   0.2619   0.2781   0.4123   0.4340
     0.6361   0.6484   0.7229   0.7712   0.8393   0.8472   0.9271   0.9416
     1.0017   1.0499   1.0779   1.1295   1.3499   1.3837   1.4098   1.4487

     occupation numbers 
     1.0000   1.0000   1.0000   1.0000   1.0000   1.0000   1.0000   1.0000
     1.0000   1.0000   1.0000   1.0000   1.0000   1.0000   1.0000   1.0000
     1.0000   1.0000   1.0000   1.0000   1.0000   1.0000   1.0000   1.0000
     1.0000   1.0000   1.0000   1.0000   1.0000   1.0000   1.0000   1.0000
     1.0000   1.0000   1.0000   1.0000   1.0000   1.0000   1.0000   1.0000
     1.0000   1.0000   1.0000   1.0000   1.0000   1.0000   1.0000   1.0000
     1.0000   1.0000   1.0000   1.0000   1.0000   1.0000   1.0000   1.0000
     1.0000   1.0000   1.0000   1.0000   1.0000   1.0000   1.0000   1.0000
     1.0000   1.0000   1.0000   1.0000   1.0000   1.0000   1.0000   1.0000
     1.0000   1.0000   1.0000   1.0000   1.0000   1.0000   1.0000   1.0000
     1.0000   1.0000   1.0000   1.0000   1.0000   1.0000   1.0000   1.0000
     1.0000   1.0000   1.0000   1.0000   1.0000   1.0000   1.0000   1.0000
     1.0000   1.0000   1.0000   1.0000   1.0000   1.0000   1.0000   1.0000
     1.0000   1.0000   1.0000   1.0000   1.0000   1.0000   1.0000   1.0000

          k = 0.0575 0.0115 0.0650 ( 58106 PWs)   bands (ev):

   -23.8555 -23.8517 -23.8356 -23.8270 -23.5827 -23.5824 -23.5794 -23.5691
   -19.1024 -19.0993 -19.0935 -19.0825 -18.7954 -18.7929 -18.7687 -18.7650
   -18.1812 -18.1561 -17.1357 -17.0899 -16.9926 -16.9889 -15.9956 -15.9756
   -12.0222 -12.0118 -11.9471 -11.8694 -11.7502 -11.7086 -11.7054 -11.6859
    -8.8653  -8.7391  -8.1993  -8.1613  -7.4861  -7.4577  -7.3901  -7.2488
    -7.0255  -6.7953  -6.6209  -6.4347  -6.4238  -6.3774  -6.3538  -6.2490
    -6.1930  -6.1095  -5.9251  -5.8991  -5.8528  -5.7942  -5.7295  -5.6649
    -5.5594  -5.5090  -5.4380  -5.3613  -5.0961  -4.9321  -4.9205  -4.8520
    -4.3267  -4.3124  -4.2499  -4.2107  -3.9010  -3.8800  -3.8331  -3.8011
    -3.6717  -3.5627  -3.4959  -3.3965  -3.1345  -3.0997  -2.9572  -2.8961
    -0.7738  -0.7314  -0.2425  -0.2030  -0.1424  -0.1131  -0.0593  -0.0209
     0.0283   0.0634   0.2315   0.2633   0.2848   0.3042   0.3779   0.4773
     0.5548   0.5689   0.6277   0.7294   0.8331   0.8655   0.9067   0.9393
     1.0381   1.0752   1.0903   1.1181   1.3629   1.4029   1.4166   1.4641

     occupation numbers 
     1.0000   1.0000   1.0000   1.0000   1.0000   1.0000   1.0000   1.0000
     1.0000   1.0000   1.0000   1.0000   1.0000   1.0000   1.0000   1.0000
     1.0000   1.0000   1.0000   1.0000   1.0000   1.0000   1.0000   1.0000
     1.0000   1.0000   1.0000   1.0000   1.0000   1.0000   1.0000   1.0000
     1.0000   1.0000   1.0000   1.0000   1.0000   1.0000   1.0000   1.0000
     1.0000   1.0000   1.0000   1.0000   1.0000   1.0000   1.0000   1.0000
     1.0000   1.0000   1.0000   1.0000   1.0000   1.0000   1.0000   1.0000
     1.0000   1.0000   1.0000   1.0000   1.0000   1.0000   1.0000   1.0000
     1.0000   1.0000   1.0000   1.0000   1.0000   1.0000   1.0000   1.0000
     1.0000   1.0000   1.0000   1.0000   1.0000   1.0000   1.0000   1.0000
     1.0000   1.0000   1.0000   1.0000   1.0000   1.0000   1.0000   1.0000
     1.0000   1.0000   1.0000   1.0000   1.0000   1.0000   1.0000   1.0000
     1.0000   1.0000   1.0000   1.0000   1.0000   1.0000   1.0000   1.0000
     1.0000   1.0000   1.0000   1.0000   1.0000   1.0000   1.0000   1.0000

          k = 0.0575 0.0115-0.0396 ( 58091 PWs)   bands (ev):

   -23.8567 -23.8511 -23.8372 -23.8248 -23.5861 -23.5850 -23.5747 -23.5679
   -19.1003 -19.0983 -19.0938 -19.0854 -18.7964 -18.7940 -18.7676 -18.7640
   -18.1859 -18.1501 -17.1460 -17.0789 -16.9956 -16.9926 -15.9951 -15.9691
   -12.0279 -12.0134 -11.9706 -11.8489 -11.7677 -11.7034 -11.6965 -11.6794
    -8.8600  -8.7138  -8.1929  -8.1628  -7.4835  -7.4627  -7.4133  -7.2370
    -7.0451  -6.7973  -6.6085  -6.4635  -6.4268  -6.4113  -6.3408  -6.2749
    -6.1973  -6.1260  -5.9135  -5.8577  -5.8168  -5.8004  -5.7303  -5.6831
    -5.5328  -5.5044  -5.4440  -5.3613  -5.0869  -4.9576  -4.8937  -4.8368
    -4.3288  -4.2907  -4.2501  -4.2235  -3.9394  -3.9292  -3.7754  -3.7693
    -3.6204  -3.5942  -3.5509  -3.4011  -3.1382  -3.0965  -2.9534  -2.9017
    -0.7299  -0.6645  -0.2347  -0.1768  -0.1604  -0.1335  -0.0667  -0.0405
    -0.0342   0.0093   0.1653   0.2502   0.2820   0.3256   0.3424   0.3706
     0.6075   0.6742   0.7055   0.7222   0.8339   0.8582   0.9291   0.9511
     1.0271   1.0547   1.1075   1.1771   1.3768   1.3954   1.4002   1.4280

     occupation numbers 
     1.0000   1.0000   1.0000   1.0000   1.0000   1.0000   1.0000   1.0000
     1.0000   1.0000   1.0000   1.0000   1.0000   1.0000   1.0000   1.0000
     1.0000   1.0000   1.0000   1.0000   1.0000   1.0000   1.0000   1.0000
     1.0000   1.0000   1.0000   1.0000   1.0000   1.0000   1.0000   1.0000
     1.0000   1.0000   1.0000   1.0000   1.0000   1.0000   1.0000   1.0000
     1.0000   1.0000   1.0000   1.0000   1.0000   1.0000   1.0000   1.0000
     1.0000   1.0000   1.0000   1.0000   1.0000   1.0000   1.0000   1.0000
     1.0000   1.0000   1.0000   1.0000   1.0000   1.0000   1.0000   1.0000
     1.0000   1.0000   1.0000   1.0000   1.0000   1.0000   1.0000   1.0000
     1.0000   1.0000   1.0000   1.0000   1.0000   1.0000   1.0000   1.0000
     1.0000   1.0000   1.0000   1.0000   1.0000   1.0000   1.0000   1.0000
     1.0000   1.0000   1.0000   1.0000   1.0000   1.0000   1.0000   1.0000
     1.0000   1.0000   1.0000   1.0000   1.0000   1.0000   1.0000   1.0000
     1.0000   1.0000   1.0000   1.0000   1.0000   1.0000   1.0000   1.0000

          k = 0.0575 0.0115-0.0047 ( 58073 PWs)   bands (ev):

   -23.8604 -23.8489 -23.8354 -23.8264 -23.5869 -23.5832 -23.5720 -23.5703
   -19.0996 -19.0978 -19.0901 -19.0889 -18.7879 -18.7867 -18.7734 -18.7721
   -18.1784 -18.1526 -17.1382 -17.0888 -17.0045 -17.0044 -15.9832 -15.9666
   -12.0148 -12.0044 -11.9572 -11.8579 -11.7778 -11.7138 -11.6913 -11.6883
    -8.8288  -8.7441  -8.1932  -8.1893  -7.4790  -7.4687  -7.4563  -7.3497
    -6.9377  -6.8448  -6.5724  -6.5472  -6.3962  -6.3896  -6.2322  -6.2007
    -6.1154  -6.1109  -5.8937  -5.8556  -5.7917  -5.7567  -5.7148  -5.7049
    -5.5625  -5.5459  -5.4756  -5.4671  -5.0442  -5.0238  -4.8260  -4.8227
    -4.3881  -4.3606  -4.3144  -4.2799  -3.9585  -3.9160  -3.6953  -3.6870
    -3.6099  -3.5761  -3.5377  -3.4729  -3.1032  -3.0673  -2.9537  -2.9342
    -0.6391  -0.5893  -0.2424  -0.2318  -0.1542  -0.1480  -0.1205  -0.1138
    -0.0225   0.0106   0.1228   0.1896   0.2449   0.2871   0.3834   0.4212
     0.6248   0.6857   0.7782   0.8140   0.8366   0.8735   0.9401   0.9638
     0.9961   1.0161   1.0926   1.1811   1.3673   1.3755   1.3902   1.4079

     occupation numbers 
     1.0000   1.0000   1.0000   1.0000   1.0000   1.0000   1.0000   1.0000
     1.0000   1.0000   1.0000   1.0000   1.0000   1.0000   1.0000   1.0000
     1.0000   1.0000   1.0000   1.0000   1.0000   1.0000   1.0000   1.0000
     1.0000   1.0000   1.0000   1.0000   1.0000   1.0000   1.0000   1.0000
     1.0000   1.0000   1.0000   1.0000   1.0000   1.0000   1.0000   1.0000
     1.0000   1.0000   1.0000   1.0000   1.0000   1.0000   1.0000   1.0000
     1.0000   1.0000   1.0000   1.0000   1.0000   1.0000   1.0000   1.0000
     1.0000   1.0000   1.0000   1.0000   1.0000   1.0000   1.0000   1.0000
     1.0000   1.0000   1.0000   1.0000   1.0000   1.0000   1.0000   1.0000
     1.0000   1.0000   1.0000   1.0000   1.0000   1.0000   1.0000   1.0000
     1.0000   1.0000   1.0000   1.0000   1.0000   1.0000   1.0000   1.0000
     1.0000   1.0000   1.0000   1.0000   1.0000   1.0000   1.0000   1.0000
     1.0000   1.0000   1.0000   1.0000   1.0000   1.0000   1.0000   1.0000
     1.0000   1.0000   1.0000   1.0000   1.0000   1.0000   1.0000   1.0000

          k = 0.0575 0.0344 0.0302 ( 58065 PWs)   bands (ev):

   -23.8563 -23.8517 -23.8319 -23.8314 -23.5820 -23.5808 -23.5759 -23.5736
   -19.1019 -19.1008 -19.0885 -19.0850 -18.7850 -18.7844 -18.7757 -18.7752
   -18.1663 -18.1662 -17.1146 -17.1136 -17.0014 -17.0005 -15.9788 -15.9778
   -12.0066 -12.0056 -11.9087 -11.9005 -11.7498 -11.7413 -11.6967 -11.6895
    -8.8092  -8.7949  -8.1948  -8.1850  -7.4721  -7.4624  -7.4170  -7.3917
    -6.9239  -6.8997  -6.5362  -6.4890  -6.3828  -6.3585  -6.2257  -6.1915
    -6.1239  -6.0944  -5.9239  -5.8944  -5.8198  -5.7928  -5.6987  -5.6753
    -5.5664  -5.5533  -5.4756  -5.4669  -5.0541  -5.0073  -4.8534  -4.8498
    -4.3783  -4.3646  -4.3096  -4.2910  -3.9202  -3.8963  -3.7218  -3.7025
    -3.6218  -3.5725  -3.4878  -3.4810  -3.0841  -3.0815  -2.9549  -2.9411
    -0.6884  -0.6827  -0.2266  -0.2181  -0.1816  -0.1608  -0.0436  -0.0222
    -0.0005   0.0165   0.1805   0.1974   0.2686   0.2838   0.4121   0.4226
     0.6639   0.6674   0.7004   0.7279   0.8368   0.8464   0.9335   0.9537
     1.0144   1.0441   1.0824   1.1074   1.3607   1.3741   1.4221   1.4377

     occupation numbers 
     1.0000   1.0000   1.0000   1.0000   1.0000   1.0000   1.0000   1.0000
     1.0000   1.0000   1.0000   1.0000   1.0000   1.0000   1.0000   1.0000
     1.0000   1.0000   1.0000   1.0000   1.0000   1.0000   1.0000   1.0000
     1.0000   1.0000   1.0000   1.0000   1.0000   1.0000   1.0000   1.0000
     1.0000   1.0000   1.0000   1.0000   1.0000   1.0000   1.0000   1.0000
     1.0000   1.0000   1.0000   1.0000   1.0000   1.0000   1.0000   1.0000
     1.0000   1.0000   1.0000   1.0000   1.0000   1.0000   1.0000   1.0000
     1.0000   1.0000   1.0000   1.0000   1.0000   1.0000   1.0000   1.0000
     1.0000   1.0000   1.0000   1.0000   1.0000   1.0000   1.0000   1.0000
     1.0000   1.0000   1.0000   1.0000   1.0000   1.0000   1.0000   1.0000
     1.0000   1.0000   1.0000   1.0000   1.0000   1.0000   1.0000   1.0000
     1.0000   1.0000   1.0000   1.0000   1.0000   1.0000   1.0000   1.0000
     1.0000   1.0000   1.0000   1.0000   1.0000   1.0000   1.0000   1.0000
     1.0000   1.0000   1.0000   1.0000   1.0000   1.0000   1.0000   1.0000

          k = 0.0575 0.0344 0.0650 ( 58134 PWs)   bands (ev):

   -23.8539 -23.8523 -23.8337 -23.8301 -23.5825 -23.5822 -23.5766 -23.5721
   -19.1028 -19.1020 -19.0884 -19.0844 -18.7946 -18.7936 -18.7677 -18.7661
   -18.1740 -18.1637 -17.1223 -17.1033 -16.9915 -16.9900 -15.9896 -15.9813
   -12.0221 -12.0184 -11.9217 -11.8906 -11.7367 -11.7198 -11.7000 -11.6919
    -8.8296  -8.7775  -8.1865  -8.1706  -7.4616  -7.4480  -7.3766  -7.3130
    -6.9830  -6.9025  -6.5192  -6.4593  -6.4122  -6.3969  -6.3098  -6.2524
    -6.1784  -6.1256  -5.9040  -5.8857  -5.8478  -5.8238  -5.7434  -5.7020
    -5.5516  -5.5315  -5.4061  -5.3749  -5.0573  -4.9879  -4.8989  -4.8701
    -4.3109  -4.2910  -4.2495  -4.2147  -3.8900  -3.8819  -3.8280  -3.8150
    -3.6484  -3.6092  -3.4583  -3.4207  -3.1255  -3.1114  -2.9397  -2.9143
    -0.7578  -0.7405  -0.2286  -0.2112  -0.1739  -0.1648  -0.0311  -0.0196
     0.0599   0.0722   0.2499   0.2600   0.2992   0.3115   0.4020   0.4487
     0.5380   0.5461   0.6784   0.7353   0.8043   0.8436   0.9186   0.9362
     1.0305   1.0544   1.1091   1.1248   1.3737   1.3898   1.4305   1.4498

     occupation numbers 
     1.0000   1.0000   1.0000   1.0000   1.0000   1.0000   1.0000   1.0000
     1.0000   1.0000   1.0000   1.0000   1.0000   1.0000   1.0000   1.0000
     1.0000   1.0000   1.0000   1.0000   1.0000   1.0000   1.0000   1.0000
     1.0000   1.0000   1.0000   1.0000   1.0000   1.0000   1.0000   1.0000
     1.0000   1.0000   1.0000   1.0000   1.0000   1.0000   1.0000   1.0000
     1.0000   1.0000   1.0000   1.0000   1.0000   1.0000   1.0000   1.0000
     1.0000   1.0000   1.0000   1.0000   1.0000   1.0000   1.0000   1.0000
     1.0000   1.0000   1.0000   1.0000   1.0000   1.0000   1.0000   1.0000
     1.0000   1.0000   1.0000   1.0000   1.0000   1.0000   1.0000   1.0000
     1.0000   1.0000   1.0000   1.0000   1.0000   1.0000   1.0000   1.0000
     1.0000   1.0000   1.0000   1.0000   1.0000   1.0000   1.0000   1.0000
     1.0000   1.0000   1.0000   1.0000   1.0000   1.0000   1.0000   1.0000
     1.0000   1.0000   1.0000   1.0000   1.0000   1.0000   1.0000   1.0000
     1.0000   1.0000   1.0000   1.0000   1.0000   1.0000   1.0000   1.0000

          k = 0.0575 0.0344-0.0396 ( 58119 PWs)   bands (ev):

   -23.8551 -23.8528 -23.8336 -23.8285 -23.5855 -23.5849 -23.5730 -23.5701
   -19.1011 -19.1008 -19.0894 -19.0865 -18.7956 -18.7947 -18.7666 -18.7650
   -18.1758 -18.1610 -17.1261 -17.0983 -16.9948 -16.9936 -15.9872 -15.9765
   -12.0277 -12.0231 -11.9354 -11.8897 -11.7396 -11.7159 -11.6918 -11.6850
    -8.8192  -8.7589  -8.1838  -8.1711  -7.4661  -7.4485  -7.3890  -7.3072
    -6.9901  -6.9012  -6.5182  -6.4753  -6.4274  -6.4070  -6.3577  -6.3019
    -6.1416  -6.0979  -5.9087  -5.8714  -5.8260  -5.8162  -5.7383  -5.7067
    -5.5319  -5.5197  -5.4040  -5.3700  -5.0728  -5.0195  -4.8654  -4.8421
    -4.3294  -4.3129  -4.2207  -4.2027  -3.9321  -3.9281  -3.7760  -3.7728
    -3.6267  -3.6174  -3.4967  -3.4389  -3.1240  -3.1057  -2.9426  -2.9204
    -0.7081  -0.6807  -0.2243  -0.2030  -0.1842  -0.1654  -0.0440  -0.0364
    -0.0035   0.0228   0.1936   0.2261   0.2907   0.3084   0.3478   0.3741
     0.6292   0.6557   0.7361   0.7381   0.8273   0.8365   0.9123   0.9194
     1.0388   1.0568   1.1337   1.1605   1.3808   1.3900   1.4058   1.4188

     occupation numbers 
     1.0000   1.0000   1.0000   1.0000   1.0000   1.0000   1.0000   1.0000
     1.0000   1.0000   1.0000   1.0000   1.0000   1.0000   1.0000   1.0000
     1.0000   1.0000   1.0000   1.0000   1.0000   1.0000   1.0000   1.0000
     1.0000   1.0000   1.0000   1.0000   1.0000   1.0000   1.0000   1.0000
     1.0000   1.0000   1.0000   1.0000   1.0000   1.0000   1.0000   1.0000
     1.0000   1.0000   1.0000   1.0000   1.0000   1.0000   1.0000   1.0000
     1.0000   1.0000   1.0000   1.0000   1.0000   1.0000   1.0000   1.0000
     1.0000   1.0000   1.0000   1.0000   1.0000   1.0000   1.0000   1.0000
     1.0000   1.0000   1.0000   1.0000   1.0000   1.0000   1.0000   1.0000
     1.0000   1.0000   1.0000   1.0000   1.0000   1.0000   1.0000   1.0000
     1.0000   1.0000   1.0000   1.0000   1.0000   1.0000   1.0000   1.0000
     1.0000   1.0000   1.0000   1.0000   1.0000   1.0000   1.0000   1.0000
     1.0000   1.0000   1.0000   1.0000   1.0000   1.0000   1.0000   1.0000
     1.0000   1.0000   1.0000   1.0000   1.0000   1.0000   1.0000   1.0000

          k = 0.0575 0.0344-0.0047 ( 58062 PWs)   bands (ev):

   -23.8572 -23.8524 -23.8327 -23.8290 -23.5852 -23.5836 -23.5721 -23.5713
   -19.1001 -19.0995 -19.0886 -19.0882 -18.7875 -18.7871 -18.7730 -18.7725
   -18.1711 -18.1604 -17.1236 -17.1032 -17.0045 -17.0044 -15.9782 -15.9713
   -12.0134 -12.0098 -11.9307 -11.8924 -11.7527 -11.7285 -11.6905 -11.6879
    -8.8046  -8.7696  -8.1908  -8.1875  -7.4755  -7.4713  -7.4287  -7.3844
    -6.9262  -6.8891  -6.5286  -6.5161  -6.3866  -6.3771  -6.2890  -6.2780
    -6.0681  -6.0592  -5.9052  -5.8829  -5.7844  -5.7701  -5.6949  -5.6891
    -5.5643  -5.5487  -5.4728  -5.4697  -5.0495  -5.0381  -4.8240  -4.8227
    -4.3879  -4.3707  -4.3101  -4.2863  -3.9326  -3.9149  -3.6974  -3.6949
    -3.5863  -3.5599  -3.5419  -3.5012  -3.0906  -3.0746  -2.9554  -2.9481
    -0.6230  -0.6023  -0.2270  -0.2185  -0.1712  -0.1478  -0.1413  -0.1216
    -0.0201   0.0015   0.1465   0.1753   0.2659   0.2866   0.3950   0.4158
     0.6551   0.6888   0.7573   0.7830   0.8365   0.8649   0.9472   0.9522
     1.0163   1.0291   1.1096   1.1504   1.3705   1.3725   1.3947   1.4026

     occupation numbers 
     1.0000   1.0000   1.0000   1.0000   1.0000   1.0000   1.0000   1.0000
     1.0000   1.0000   1.0000   1.0000   1.0000   1.0000   1.0000   1.0000
     1.0000   1.0000   1.0000   1.0000   1.0000   1.0000   1.0000   1.0000
     1.0000   1.0000   1.0000   1.0000   1.0000   1.0000   1.0000   1.0000
     1.0000   1.0000   1.0000   1.0000   1.0000   1.0000   1.0000   1.0000
     1.0000   1.0000   1.0000   1.0000   1.0000   1.0000   1.0000   1.0000
     1.0000   1.0000   1.0000   1.0000   1.0000   1.0000   1.0000   1.0000
     1.0000   1.0000   1.0000   1.0000   1.0000   1.0000   1.0000   1.0000
     1.0000   1.0000   1.0000   1.0000   1.0000   1.0000   1.0000   1.0000
     1.0000   1.0000   1.0000   1.0000   1.0000   1.0000   1.0000   1.0000
     1.0000   1.0000   1.0000   1.0000   1.0000   1.0000   1.0000   1.0000
     1.0000   1.0000   1.0000   1.0000   1.0000   1.0000   1.0000   1.0000
     1.0000   1.0000   1.0000   1.0000   1.0000   1.0000   1.0000   1.0000
     1.0000   1.0000   1.0000   1.0000   1.0000   1.0000   1.0000   1.0000

          k =-0.0192 0.0115-0.0217 ( 58106 PWs)   bands (ev):

   -23.8711 -23.8464 -23.8345 -23.8247 -23.5857 -23.5760 -23.5752 -23.5710
   -19.1042 -19.0988 -19.0914 -19.0788 -18.7825 -18.7823 -18.7779 -18.7767
   -18.1723 -18.1459 -17.1421 -17.0897 -17.0023 -16.9996 -15.9833 -15.9699
   -12.0103 -12.0082 -11.9990 -11.8813 -11.8236 -11.7464 -11.6890 -11.6713
    -8.8190  -8.7787  -8.2056  -8.1668  -7.4909  -7.4458  -7.3632  -7.3572
    -6.8006  -6.6899  -6.5496  -6.4466  -6.4305  -6.3506  -6.2891  -6.2018
    -6.0703  -6.0357  -6.0145  -5.8932  -5.8406  -5.7544  -5.6885  -5.6461
    -5.5844  -5.5631  -5.4882  -5.4384  -5.0741  -4.9570  -4.8624  -4.8517
    -4.3908  -4.3862  -4.3562  -4.3164  -4.1431  -4.0327  -3.7867  -3.7780
    -3.6142  -3.4869  -3.4274  -3.3837  -3.0859  -3.0514  -2.9584  -2.9398
    -0.7440  -0.7388  -0.2528  -0.2494  -0.1505  -0.1007  -0.0415  -0.0246
     0.0326   0.0653   0.2264   0.2629   0.2756   0.3072   0.4337   0.4508
     0.4980   0.5177   0.6975   0.7494   0.8361   0.8746   0.9247   0.9519
     0.9761   1.0899   1.1217   1.1887   1.2750   1.4114   1.4268   1.4539

     occupation numbers 
     1.0000   1.0000   1.0000   1.0000   1.0000   1.0000   1.0000   1.0000
     1.0000   1.0000   1.0000   1.0000   1.0000   1.0000   1.0000   1.0000
     1.0000   1.0000   1.0000   1.0000   1.0000   1.0000   1.0000   1.0000
     1.0000   1.0000   1.0000   1.0000   1.0000   1.0000   1.0000   1.0000
     1.0000   1.0000   1.0000   1.0000   1.0000   1.0000   1.0000   1.0000
     1.0000   1.0000   1.0000   1.0000   1.0000   1.0000   1.0000   1.0000
     1.0000   1.0000   1.0000   1.0000   1.0000   1.0000   1.0000   1.0000
     1.0000   1.0000   1.0000   1.0000   1.0000   1.0000   1.0000   1.0000
     1.0000   1.0000   1.0000   1.0000   1.0000   1.0000   1.0000   1.0000
     1.0000   1.0000   1.0000   1.0000   1.0000   1.0000   1.0000   1.0000
     1.0000   1.0000   1.0000   1.0000   1.0000   1.0000   1.0000   1.0000
     1.0000   1.0000   1.0000   1.0000   1.0000   1.0000   1.0000   1.0000
     1.0000   1.0000   1.0000   1.0000   1.0000   1.0000   1.0000   1.0000
     1.0000   1.0000   1.0000   1.0000   1.0000   1.0000   1.0000   1.0000

          k =-0.0192 0.0115-0.0566 ( 58126 PWs)   bands (ev):

   -23.8625 -23.8524 -23.8307 -23.8297 -23.5872 -23.5836 -23.5718 -23.5669
   -19.1023 -19.0974 -19.0924 -19.0826 -18.7890 -18.7881 -18.7726 -18.7709
   -18.1600 -18.1596 -17.1171 -17.1144 -16.9982 -16.9953 -15.9786 -15.9764
   -12.0190 -12.0145 -11.9492 -11.9283 -11.7801 -11.7679 -11.6974 -11.6890
    -8.7992  -8.7619  -8.1861  -8.1600  -7.5061  -7.4524  -7.3406  -7.2575
    -6.8480  -6.7184  -6.5302  -6.4881  -6.4799  -6.3691  -6.3132  -6.2814
    -6.1300  -6.0930  -5.9011  -5.8462  -5.8266  -5.7660  -5.7365  -5.6910
    -5.6440  -5.5844  -5.4051  -5.3561  -5.0777  -4.9974  -4.8573  -4.8194
    -4.3536  -4.3448  -4.2865  -4.2231  -4.0688  -4.0329  -3.9013  -3.9012
    -3.5938  -3.5370  -3.3652  -3.3539  -3.1145  -3.1100  -2.9407  -2.9159
    -0.7089  -0.6743  -0.2663  -0.2536  -0.1615  -0.1340  -0.0705  -0.0567
    -0.0242   0.0202   0.1283   0.1912   0.2922   0.3482   0.4030   0.4148
     0.6085   0.6733   0.7179   0.7656   0.8322   0.8542   0.8857   0.9366
     1.0477   1.0868   1.1610   1.1862   1.2847   1.3591   1.4324   1.4600

     occupation numbers 
     1.0000   1.0000   1.0000   1.0000   1.0000   1.0000   1.0000   1.0000
     1.0000   1.0000   1.0000   1.0000   1.0000   1.0000   1.0000   1.0000
     1.0000   1.0000   1.0000   1.0000   1.0000   1.0000   1.0000   1.0000
     1.0000   1.0000   1.0000   1.0000   1.0000   1.0000   1.0000   1.0000
     1.0000   1.0000   1.0000   1.0000   1.0000   1.0000   1.0000   1.0000
     1.0000   1.0000   1.0000   1.0000   1.0000   1.0000   1.0000   1.0000
     1.0000   1.0000   1.0000   1.0000   1.0000   1.0000   1.0000   1.0000
     1.0000   1.0000   1.0000   1.0000   1.0000   1.0000   1.0000   1.0000
     1.0000   1.0000   1.0000   1.0000   1.0000   1.0000   1.0000   1.0000
     1.0000   1.0000   1.0000   1.0000   1.0000   1.0000   1.0000   1.0000
     1.0000   1.0000   1.0000   1.0000   1.0000   1.0000   1.0000   1.0000
     1.0000   1.0000   1.0000   1.0000   1.0000   1.0000   1.0000   1.0000
     1.0000   1.0000   1.0000   1.0000   1.0000   1.0000   1.0000   1.0000
     1.0000   1.0000   1.0000   1.0000   1.0000   1.0000   1.0000   1.0000

          k =-0.0192 0.0115 0.0481 ( 58135 PWs)   bands (ev):

   -23.8633 -23.8519 -23.8346 -23.8254 -23.5887 -23.5854 -23.5684 -23.5670
   -19.0998 -19.0981 -19.0892 -19.0878 -18.7905 -18.7897 -18.7709 -18.7694
   -18.1720 -18.1463 -17.1397 -17.0915 -17.0008 -16.9990 -15.9823 -15.9659
   -12.0328 -12.0129 -11.9813 -11.8952 -11.8083 -11.7349 -11.6981 -11.6891
    -8.8083  -8.7219  -8.1724  -8.1696  -7.4998  -7.4838  -7.3501  -7.2330
    -6.8580  -6.7458  -6.5277  -6.4868  -6.4479  -6.4181  -6.3262  -6.2891
    -6.1487  -6.1192  -5.9037  -5.8646  -5.7659  -5.7264  -5.7221  -5.7080
    -5.6400  -5.5679  -5.4059  -5.3531  -5.0733  -4.9977  -4.8441  -4.8111
    -4.3811  -4.3114  -4.2803  -4.2242  -4.0877  -4.0677  -3.9086  -3.8530
    -3.5940  -3.5437  -3.4199  -3.3332  -3.1212  -3.0970  -2.9365  -2.9228
    -0.6406  -0.5786  -0.2547  -0.2461  -0.2256  -0.1921  -0.1123  -0.0948
    -0.0331  -0.0279   0.0955   0.1792   0.3128   0.3499   0.3572   0.4095
     0.6537   0.7329   0.7563   0.7673   0.8126   0.8963   0.9064   0.9178
     1.0397   1.0932   1.1724   1.2322   1.2902   1.3175   1.4237   1.4439

     occupation numbers 
     1.0000   1.0000   1.0000   1.0000   1.0000   1.0000   1.0000   1.0000
     1.0000   1.0000   1.0000   1.0000   1.0000   1.0000   1.0000   1.0000
     1.0000   1.0000   1.0000   1.0000   1.0000   1.0000   1.0000   1.0000
     1.0000   1.0000   1.0000   1.0000   1.0000   1.0000   1.0000   1.0000
     1.0000   1.0000   1.0000   1.0000   1.0000   1.0000   1.0000   1.0000
     1.0000   1.0000   1.0000   1.0000   1.0000   1.0000   1.0000   1.0000
     1.0000   1.0000   1.0000   1.0000   1.0000   1.0000   1.0000   1.0000
     1.0000   1.0000   1.0000   1.0000   1.0000   1.0000   1.0000   1.0000
     1.0000   1.0000   1.0000   1.0000   1.0000   1.0000   1.0000   1.0000
     1.0000   1.0000   1.0000   1.0000   1.0000   1.0000   1.0000   1.0000
     1.0000   1.0000   1.0000   1.0000   1.0000   1.0000   1.0000   1.0000
     1.0000   1.0000   1.0000   1.0000   1.0000   1.0000   1.0000   1.0000
     1.0000   1.0000   1.0000   1.0000   1.0000   1.0000   1.0000   1.0000
     1.0000   1.0000   1.0000   1.0000   1.0000   1.0000   1.0000   1.0000

          k =-0.0192 0.0115 0.0132 ( 58137 PWs)   bands (ev):

   -23.8714 -23.8467 -23.8357 -23.8228 -23.5882 -23.5790 -23.5714 -23.5694
   -19.1031 -19.0974 -19.0917 -19.0812 -18.7862 -18.7856 -18.7737 -18.7737
   -18.1769 -18.1399 -17.1514 -17.0801 -17.0046 -17.0036 -15.9837 -15.9627
   -12.0336 -12.0091 -11.9977 -11.8780 -11.8245 -11.7347 -11.6866 -11.6722
    -8.8303  -8.7367  -8.1988  -8.1699  -7.4955  -7.4710  -7.3936  -7.3093
    -6.7690  -6.7510  -6.5436  -6.4371  -6.4332  -6.3957  -6.2946  -6.2201
    -6.1175  -6.0699  -5.9464  -5.8935  -5.8007  -5.7536  -5.6715  -5.6430
    -5.6002  -5.5461  -5.4534  -5.4494  -5.0418  -4.9946  -4.8527  -4.8254
    -4.3949  -4.3792  -4.3540  -4.3282  -4.1563  -4.0414  -3.7949  -3.7366
    -3.6404  -3.4985  -3.4393  -3.3809  -3.0943  -3.0449  -2.9507  -2.9481
    -0.6938  -0.6720  -0.2416  -0.2375  -0.1531  -0.1198  -0.0582  -0.0336
    -0.0233   0.0147   0.1229   0.1824   0.2476   0.3290   0.3761   0.4430
     0.6229   0.6554   0.6913   0.7699   0.8315   0.8812   0.9390   0.9505
     0.9838   1.0669   1.1510   1.2168   1.2703   1.3902   1.4116   1.4446

     occupation numbers 
     1.0000   1.0000   1.0000   1.0000   1.0000   1.0000   1.0000   1.0000
     1.0000   1.0000   1.0000   1.0000   1.0000   1.0000   1.0000   1.0000
     1.0000   1.0000   1.0000   1.0000   1.0000   1.0000   1.0000   1.0000
     1.0000   1.0000   1.0000   1.0000   1.0000   1.0000   1.0000   1.0000
     1.0000   1.0000   1.0000   1.0000   1.0000   1.0000   1.0000   1.0000
     1.0000   1.0000   1.0000   1.0000   1.0000   1.0000   1.0000   1.0000
     1.0000   1.0000   1.0000   1.0000   1.0000   1.0000   1.0000   1.0000
     1.0000   1.0000   1.0000   1.0000   1.0000   1.0000   1.0000   1.0000
     1.0000   1.0000   1.0000   1.0000   1.0000   1.0000   1.0000   1.0000
     1.0000   1.0000   1.0000   1.0000   1.0000   1.0000   1.0000   1.0000
     1.0000   1.0000   1.0000   1.0000   1.0000   1.0000   1.0000   1.0000
     1.0000   1.0000   1.0000   1.0000   1.0000   1.0000   1.0000   1.0000
     1.0000   1.0000   1.0000   1.0000   1.0000   1.0000   1.0000   1.0000
     1.0000   1.0000   1.0000   1.0000   1.0000   1.0000   1.0000   1.0000

          k =-0.0192 0.0344-0.0217 ( 58102 PWs)   bands (ev):

   -23.8652 -23.8558 -23.8297 -23.8263 -23.5816 -23.5770 -23.5750 -23.5739
   -19.1039 -19.1023 -19.0858 -19.0812 -18.7825 -18.7824 -18.7775 -18.7770
   -18.1648 -18.1539 -17.1267 -17.1051 -17.0014 -17.0002 -15.9793 -15.9738
   -12.0105 -12.0102 -11.9734 -11.9309 -11.7852 -11.7587 -11.6836 -11.6763
    -8.8082  -8.7915  -8.1951  -8.1790  -7.4802  -7.4609  -7.3555  -7.3529
    -6.7763  -6.7276  -6.4916  -6.4442  -6.4398  -6.3982  -6.2637  -6.2369
    -6.0817  -6.0635  -5.9371  -5.9040  -5.8398  -5.7920  -5.6987  -5.6816
    -5.5476  -5.5349  -5.4650  -5.4412  -5.0266  -4.9567  -4.9113  -4.8845
    -4.4054  -4.3973  -4.3234  -4.3065  -4.1168  -4.0657  -3.7816  -3.7750
    -3.5772  -3.5216  -3.4155  -3.3952  -3.0798  -3.0659  -2.9497  -2.9427
    -0.7391  -0.7365  -0.2443  -0.2351  -0.1673  -0.1303  -0.0659  -0.0595
     0.0694   0.0804   0.2549   0.2655   0.2982   0.3051   0.4544   0.4582
     0.4732   0.5024   0.7076   0.7363   0.8149   0.8314   0.9421   0.9628
     1.0124   1.0595   1.1520   1.1770   1.3148   1.3719   1.4355   1.4437

     occupation numbers 
     1.0000   1.0000   1.0000   1.0000   1.0000   1.0000   1.0000   1.0000
     1.0000   1.0000   1.0000   1.0000   1.0000   1.0000   1.0000   1.0000
     1.0000   1.0000   1.0000   1.0000   1.0000   1.0000   1.0000   1.0000
     1.0000   1.0000   1.0000   1.0000   1.0000   1.0000   1.0000   1.0000
     1.0000   1.0000   1.0000   1.0000   1.0000   1.0000   1.0000   1.0000
     1.0000   1.0000   1.0000   1.0000   1.0000   1.0000   1.0000   1.0000
     1.0000   1.0000   1.0000   1.0000   1.0000   1.0000   1.0000   1.0000
     1.0000   1.0000   1.0000   1.0000   1.0000   1.0000   1.0000   1.0000
     1.0000   1.0000   1.0000   1.0000   1.0000   1.0000   1.0000   1.0000
     1.0000   1.0000   1.0000   1.0000   1.0000   1.0000   1.0000   1.0000
     1.0000   1.0000   1.0000   1.0000   1.0000   1.0000   1.0000   1.0000
     1.0000   1.0000   1.0000   1.0000   1.0000   1.0000   1.0000   1.0000
     1.0000   1.0000   1.0000   1.0000   1.0000   1.0000   1.0000   1.0000
     1.0000   1.0000   1.0000   1.0000   1.0000   1.0000   1.0000   1.0000

          k =-0.0192 0.0344-0.0566 ( 58130 PWs)   bands (ev):

   -23.8591 -23.8549 -23.8311 -23.8305 -23.5854 -23.5839 -23.5710 -23.5689
   -19.1022 -19.1007 -19.0876 -19.0841 -18.7888 -18.7884 -18.7721 -18.7714
   -18.1599 -18.1597 -17.1168 -17.1156 -16.9969 -16.9957 -15.9780 -15.9771
   -12.0172 -12.0151 -11.9459 -11.9369 -11.7733 -11.7676 -11.6965 -11.6929
    -8.7885  -8.7731  -8.1790  -8.1681  -7.4887  -7.4668  -7.3165  -7.2830
    -6.8273  -6.7797  -6.5119  -6.4989  -6.4296  -6.3819  -6.3230  -6.3031
    -6.0842  -6.0506  -5.9225  -5.8684  -5.8072  -5.7731  -5.7384  -5.7187
    -5.6287  -5.5921  -5.4123  -5.3890  -5.0108  -4.9589  -4.9074  -4.8682
    -4.3286  -4.3143  -4.2826  -4.2520  -4.0647  -4.0490  -3.9016  -3.9007
    -3.5712  -3.5472  -3.3638  -3.3588  -3.1094  -3.1048  -2.9414  -2.9291
    -0.6979  -0.6837  -0.2581  -0.2477  -0.1755  -0.1484  -0.0912  -0.0764
     0.0052   0.0244   0.1788   0.2000   0.2980   0.3251   0.3950   0.4072
     0.6258   0.6538   0.7306   0.7525   0.8416   0.8522   0.8924   0.9223
     1.0482   1.0687   1.1735   1.1833   1.3105   1.3406   1.4391   1.4504

     occupation numbers 
     1.0000   1.0000   1.0000   1.0000   1.0000   1.0000   1.0000   1.0000
     1.0000   1.0000   1.0000   1.0000   1.0000   1.0000   1.0000   1.0000
     1.0000   1.0000   1.0000   1.0000   1.0000   1.0000   1.0000   1.0000
     1.0000   1.0000   1.0000   1.0000   1.0000   1.0000   1.0000   1.0000
     1.0000   1.0000   1.0000   1.0000   1.0000   1.0000   1.0000   1.0000
     1.0000   1.0000   1.0000   1.0000   1.0000   1.0000   1.0000   1.0000
     1.0000   1.0000   1.0000   1.0000   1.0000   1.0000   1.0000   1.0000
     1.0000   1.0000   1.0000   1.0000   1.0000   1.0000   1.0000   1.0000
     1.0000   1.0000   1.0000   1.0000   1.0000   1.0000   1.0000   1.0000
     1.0000   1.0000   1.0000   1.0000   1.0000   1.0000   1.0000   1.0000
     1.0000   1.0000   1.0000   1.0000   1.0000   1.0000   1.0000   1.0000
     1.0000   1.0000   1.0000   1.0000   1.0000   1.0000   1.0000   1.0000
     1.0000   1.0000   1.0000   1.0000   1.0000   1.0000   1.0000   1.0000
     1.0000   1.0000   1.0000   1.0000   1.0000   1.0000   1.0000   1.0000

          k =-0.0192 0.0344 0.0481 ( 58137 PWs)   bands (ev):

   -23.8600 -23.8553 -23.8320 -23.8282 -23.5871 -23.5857 -23.5685 -23.5679
   -19.1004 -19.0997 -19.0876 -19.0871 -18.7903 -18.7900 -18.7705 -18.7698
   -18.1647 -18.1540 -17.1257 -17.1057 -17.0000 -16.9993 -15.9774 -15.9706
   -12.0277 -12.0199 -11.9621 -11.9297 -11.7771 -11.7495 -11.6954 -11.6912
    -8.7841  -8.7483  -8.1731  -8.1716  -7.4914  -7.4858  -7.3190  -7.2695
    -6.8237  -6.7764  -6.5342  -6.5033  -6.4282  -6.4125  -6.3549  -6.3344
    -6.0620  -6.0421  -5.9410  -5.9057  -5.7600  -5.7436  -5.7216  -5.6998
    -5.6269  -5.5909  -5.3989  -5.3701  -5.0445  -4.9915  -4.8683  -4.8346
    -4.3687  -4.3397  -4.2395  -4.2193  -4.0900  -4.0824  -3.8930  -3.8702
    -3.5714  -3.5505  -3.3950  -3.3589  -3.1075  -3.0961  -2.9425  -2.9375
    -0.6238  -0.5986  -0.2553  -0.2518  -0.1952  -0.1771  -0.1364  -0.1149
    -0.0509  -0.0370   0.1482   0.1806   0.3155   0.3324   0.3696   0.3978
     0.6767   0.7088   0.7787   0.7905   0.8022   0.8460   0.9140   0.9185
     1.0545   1.0718   1.1980   1.2208   1.2958   1.3080   1.4289   1.4377

     occupation numbers 
     1.0000   1.0000   1.0000   1.0000   1.0000   1.0000   1.0000   1.0000
     1.0000   1.0000   1.0000   1.0000   1.0000   1.0000   1.0000   1.0000
     1.0000   1.0000   1.0000   1.0000   1.0000   1.0000   1.0000   1.0000
     1.0000   1.0000   1.0000   1.0000   1.0000   1.0000   1.0000   1.0000
     1.0000   1.0000   1.0000   1.0000   1.0000   1.0000   1.0000   1.0000
     1.0000   1.0000   1.0000   1.0000   1.0000   1.0000   1.0000   1.0000
     1.0000   1.0000   1.0000   1.0000   1.0000   1.0000   1.0000   1.0000
     1.0000   1.0000   1.0000   1.0000   1.0000   1.0000   1.0000   1.0000
     1.0000   1.0000   1.0000   1.0000   1.0000   1.0000   1.0000   1.0000
     1.0000   1.0000   1.0000   1.0000   1.0000   1.0000   1.0000   1.0000
     1.0000   1.0000   1.0000   1.0000   1.0000   1.0000   1.0000   1.0000
     1.0000   1.0000   1.0000   1.0000   1.0000   1.0000   1.0000   1.0000
     1.0000   1.0000   1.0000   1.0000   1.0000   1.0000   1.0000   1.0000
     1.0000   1.0000   1.0000   1.0000   1.0000   1.0000   1.0000   1.0000

          k =-0.0192 0.0344 0.0132 ( 58109 PWs)   bands (ev):

   -23.8658 -23.8564 -23.8296 -23.8252 -23.5848 -23.5809 -23.5713 -23.5706
   -19.1028 -19.1011 -19.0866 -19.0829 -18.7860 -18.7858 -18.7737 -18.7737
   -18.1665 -18.1512 -17.1301 -17.1006 -17.0045 -17.0040 -15.9773 -15.9686
   -12.0251 -12.0167 -11.9745 -11.9321 -11.7807 -11.7503 -11.6814 -11.6754
    -8.8046  -8.7659  -8.1922  -8.1803  -7.4881  -7.4770  -7.3664  -7.3327
[...]
     atom   38 type  4   force =    -1.14175772   -6.72441633    9.16471083
     atom   39 type  1   force =     2.22150755    2.41531656    1.89358234
     atom   40 type  1   force =    -0.16976186    1.60514139    0.07803717
     atom   41 type  4   force =     9.79192934    3.78136396   -4.41084503
     atom   42 type  1   force =    -2.85419817    0.60713255   -1.87701691
     atom   43 type  3   force =     0.17783266   -1.82213200   -2.29308829
     atom   44 type  3   force =    -2.30969999    0.91426866   -1.48470006
     atom   45 type  2   force =    -2.61618422   -0.81501406   -4.22060670
     atom   46 type  4   force =    -8.84593838   -4.69554964   -1.49561727
     atom   47 type  3   force =    -1.15510139   -2.48959587    0.58657867
     atom   48 type  3   force =    -2.01612347    0.06074708   -1.76869163
     atom   49 type  2   force =    -3.61360649   -2.93245542   -1.09449529
     atom   50 type  4   force =    -1.51030857   -5.08732297    9.80794709
     atom   51 type  1   force =    -0.34507147   -0.14571286    1.09650143
     atom   52 type  4   force =    -1.14176311    6.72441852    9.16470297
     atom   53 type  1   force =     2.22150351   -2.41530867    1.89358043
     atom   54 type  1   force =    -0.16974653   -1.60513727    0.07801440
     atom   55 type  4   force =     9.79194317   -3.78136342   -4.41085661
     atom   56 type  1   force =    -2.85419608   -0.60713137   -1.87702616
     The core correction contribution to forces
     atom    1 type  1   force =    -0.00301519   -0.00630246   -0.00184407
     atom    2 type  4   force =     0.01872766    0.00350331   -0.01202832
     atom    3 type  1   force =     0.00033937    0.00165429    0.00001297
     atom    4 type  1   force =     0.00926154    0.00643898    0.00164449
     atom    5 type  4   force =    -0.00136845   -0.01428851    0.01739904
     atom    6 type  1   force =    -0.00110563   -0.00162783   -0.00021223
     atom    7 type  4   force =    -0.00414000    0.00890077    0.02028941
     atom    8 type  2   force =    -0.01333200    0.00952572   -0.00466887
     atom    9 type  3   force =     0.00000000    0.00000000    0.00000000
     atom   10 type  3   force =     0.00000000    0.00000000    0.00000000
     atom   11 type  4   force =    -0.01762394    0.01154703   -0.00663328
     atom   12 type  2   force =    -0.00870849    0.00403631   -0.01584584
     atom   13 type  3   force =     0.00000000    0.00000000    0.00000000
     atom   14 type  3   force =     0.00000000    0.00000000    0.00000000
     atom   15 type  3   force =     0.00000000    0.00000000    0.00000000
     atom   16 type  3   force =     0.00000000    0.00000000    0.00000000
     atom   17 type  2   force =    -0.00870694   -0.00403624   -0.01584540
     atom   18 type  4   force =    -0.01762392   -0.01154702   -0.00663325
     atom   19 type  3   force =     0.00000000    0.00000000    0.00000000
     atom   20 type  3   force =     0.00000000    0.00000000    0.00000000
     atom   21 type  2   force =    -0.01332760   -0.00952567   -0.00466796
     atom   22 type  4   force =    -0.00413994   -0.00890077    0.02028936
     atom   23 type  1   force =    -0.00110566    0.00162785   -0.00021226
     atom   24 type  4   force =    -0.00136835    0.01428851    0.01739905
     atom   25 type  1   force =     0.00926153   -0.00643897    0.00164448
     atom   26 type  1   force =     0.00033949   -0.00165422    0.00001280
     atom   27 type  4   force =     0.01872769   -0.00350331   -0.01202838
     atom   28 type  1   force =    -0.00301516    0.00630246   -0.00184405
     atom   29 type  3   force =     0.00000000    0.00000000    0.00000000
     atom   30 type  3   force =     0.00000000    0.00000000    0.00000000
     atom   31 type  2   force =     0.00870849   -0.00403631    0.01584584
     atom   32 type  4   force =     0.01762394   -0.01154703    0.00663328
     atom   33 type  3   force =     0.00000000    0.00000000    0.00000000
     atom   34 type  3   force =     0.00000000    0.00000000    0.00000000
     atom   35 type  2   force =     0.01333200   -0.00952572    0.00466887
     atom   36 type  4   force =     0.00414000   -0.00890077   -0.02028941
     atom   37 type  1   force =     0.00110563    0.00162783    0.00021223
     atom   38 type  4   force =     0.00136845    0.01428851   -0.01739904
     atom   39 type  1   force =    -0.00926154   -0.00643898   -0.00164449
     atom   40 type  1   force =    -0.00033937   -0.00165429   -0.00001297
     atom   41 type  4   force =    -0.01872766   -0.00350331    0.01202832
     atom   42 type  1   force =     0.00301519    0.00630246    0.00184407
     atom   43 type  3   force =     0.00000000    0.00000000    0.00000000
     atom   44 type  3   force =     0.00000000    0.00000000    0.00000000
     atom   45 type  2   force =     0.00870694    0.00403624    0.01584540
     atom   46 type  4   force =     0.01762392    0.01154702    0.00663325
     atom   47 type  3   force =     0.00000000    0.00000000    0.00000000
     atom   48 type  3   force =     0.00000000    0.00000000    0.00000000
     atom   49 type  2   force =     0.01332760    0.00952567    0.00466796
     atom   50 type  4   force =     0.00413994    0.00890077   -0.02028936
     atom   51 type  1   force =     0.00110566   -0.00162785    0.00021226
     atom   52 type  4   force =     0.00136835   -0.01428851   -0.01739905
     atom   53 type  1   force =    -0.00926153    0.00643897   -0.00164448
     atom   54 type  1   force =    -0.00033949    0.00165422   -0.00001280
     atom   55 type  4   force =    -0.01872769    0.00350331    0.01202838
     atom   56 type  1   force =     0.00301516   -0.00630246    0.00184405
     The Hubbard contrib.    to forces
     atom    1 type  1   force =     0.00000000    0.00000000    0.00000000
     atom    2 type  4   force =     0.00000000    0.00000000    0.00000000
     atom    3 type  1   force =     0.00000000    0.00000000    0.00000000
     atom    4 type  1   force =     0.00000000    0.00000000    0.00000000
     atom    5 type  4   force =     0.00000000    0.00000000    0.00000000
     atom    6 type  1   force =     0.00000000    0.00000000    0.00000000
     atom    7 type  4   force =     0.00000000    0.00000000    0.00000000
     atom    8 type  2   force =     0.00000000    0.00000000    0.00000000
     atom    9 type  3   force =     0.00000000    0.00000000    0.00000000
     atom   10 type  3   force =     0.00000000    0.00000000    0.00000000
     atom   11 type  4   force =     0.00000000    0.00000000    0.00000000
     atom   12 type  2   force =     0.00000000    0.00000000    0.00000000
     atom   13 type  3   force =     0.00000000    0.00000000    0.00000000
     atom   14 type  3   force =     0.00000000    0.00000000    0.00000000
     atom   15 type  3   force =     0.00000000    0.00000000    0.00000000
     atom   16 type  3   force =     0.00000000    0.00000000    0.00000000
     atom   17 type  2   force =     0.00000000    0.00000000    0.00000000
     atom   18 type  4   force =     0.00000000    0.00000000    0.00000000
     atom   19 type  3   force =     0.00000000    0.00000000    0.00000000
     atom   20 type  3   force =     0.00000000    0.00000000    0.00000000
     atom   21 type  2   force =     0.00000000    0.00000000    0.00000000
     atom   22 type  4   force =     0.00000000    0.00000000    0.00000000
     atom   23 type  1   force =     0.00000000    0.00000000    0.00000000
     atom   24 type  4   force =     0.00000000    0.00000000    0.00000000
     atom   25 type  1   force =     0.00000000    0.00000000    0.00000000
     atom   26 type  1   force =     0.00000000    0.00000000    0.00000000
     atom   27 type  4   force =     0.00000000    0.00000000    0.00000000
     atom   28 type  1   force =     0.00000000    0.00000000    0.00000000
     atom   29 type  3   force =     0.00000000    0.00000000    0.00000000
     atom   30 type  3   force =     0.00000000    0.00000000    0.00000000
     atom   31 type  2   force =     0.00000000    0.00000000    0.00000000
     atom   32 type  4   force =     0.00000000    0.00000000    0.00000000
     atom   33 type  3   force =     0.00000000    0.00000000    0.00000000
     atom   34 type  3   force =     0.00000000    0.00000000    0.00000000
     atom   35 type  2   force =     0.00000000    0.00000000    0.00000000
     atom   36 type  4   force =     0.00000000    0.00000000    0.00000000
     atom   37 type  1   force =     0.00000000    0.00000000    0.00000000
     atom   38 type  4   force =     0.00000000    0.00000000    0.00000000
     atom   39 type  1   force =     0.00000000    0.00000000    0.00000000
     atom   40 type  1   force =     0.00000000    0.00000000    0.00000000
     atom   41 type  4   force =     0.00000000    0.00000000    0.00000000
     atom   42 type  1   force =     0.00000000    0.00000000    0.00000000
     atom   43 type  3   force =     0.00000000    0.00000000    0.00000000
     atom   44 type  3   force =     0.00000000    0.00000000    0.00000000
     atom   45 type  2   force =     0.00000000    0.00000000    0.00000000
     atom   46 type  4   force =     0.00000000    0.00000000    0.00000000
     atom   47 type  3   force =     0.00000000    0.00000000    0.00000000
     atom   48 type  3   force =     0.00000000    0.00000000    0.00000000
     atom   49 type  2   force =     0.00000000    0.00000000    0.00000000
     atom   50 type  4   force =     0.00000000    0.00000000    0.00000000
     atom   51 type  1   force =     0.00000000    0.00000000    0.00000000
     atom   52 type  4   force =     0.00000000    0.00000000    0.00000000
     atom   53 type  1   force =     0.00000000    0.00000000    0.00000000
     atom   54 type  1   force =     0.00000000    0.00000000    0.00000000
     atom   55 type  4   force =     0.00000000    0.00000000    0.00000000
     atom   56 type  1   force =     0.00000000    0.00000000    0.00000000
     The SCF correction term to forces
     atom    1 type  1   force =     0.00007781   -0.00002854   -0.00004047
     atom    2 type  4   force =     0.00008674   -0.00000316   -0.00011174
     atom    3 type  1   force =     0.00028222   -0.00007501   -0.00040452
     atom    4 type  1   force =    -0.00004710   -0.00004417    0.00003816
     atom    5 type  4   force =     0.00007479    0.00004572   -0.00007311
     atom    6 type  1   force =     0.00009471   -0.00006140    0.00004207
     atom    7 type  4   force =     0.00003766   -0.00006013   -0.00016678
     atom    8 type  2   force =    -0.00002684   -0.00002743    0.00003430
     atom    9 type  3   force =    -0.00000674   -0.00000487    0.00001167
     atom   10 type  3   force =    -0.00001727    0.00000139    0.00001434
     atom   11 type  4   force =     0.00013725   -0.00002198    0.00001714
     atom   12 type  2   force =     0.00006570    0.00000742   -0.00000584
     atom   13 type  3   force =     0.00001346   -0.00000051   -0.00000286
     atom   14 type  3   force =     0.00001666    0.00000114   -0.00000201
     atom   15 type  3   force =     0.00001709   -0.00000145   -0.00000065
     atom   16 type  3   force =     0.00001288   -0.00000070   -0.00000272
     atom   17 type  2   force =     0.00006669   -0.00001146   -0.00000504
     atom   18 type  4   force =     0.00013668    0.00003124    0.00001261
     atom   19 type  3   force =    -0.00001870   -0.00000048    0.00001192
     atom   20 type  3   force =    -0.00000782    0.00000461    0.00001045
     atom   21 type  2   force =    -0.00003138    0.00003063    0.00002801
     atom   22 type  4   force =     0.00004675    0.00006584   -0.00018079
     atom   23 type  1   force =     0.00009229    0.00007065    0.00003976
     atom   24 type  4   force =     0.00007013   -0.00004330   -0.00008171
     atom   25 type  1   force =    -0.00005117    0.00005273    0.00003599
     atom   26 type  1   force =     0.00030552    0.00008137   -0.00043832
     atom   27 type  4   force =     0.00010081    0.00000495   -0.00012554
     atom   28 type  1   force =     0.00008009    0.00002937   -0.00004959
     atom   29 type  3   force =    -0.00001666   -0.00000114    0.00000201
     atom   30 type  3   force =    -0.00001346    0.00000051    0.00000286
     atom   31 type  2   force =    -0.00006570   -0.00000742    0.00000584
     atom   32 type  4   force =    -0.00013725    0.00002198   -0.00001714
     atom   33 type  3   force =     0.00001727   -0.00000139   -0.00001434
     atom   34 type  3   force =     0.00000674    0.00000487   -0.00001167
     atom   35 type  2   force =     0.00002684    0.00002743   -0.00003430
     atom   36 type  4   force =    -0.00003766    0.00006013    0.00016678
     atom   37 type  1   force =    -0.00009471    0.00006140   -0.00004207
     atom   38 type  4   force =    -0.00007479   -0.00004572    0.00007311
     atom   39 type  1   force =     0.00004710    0.00004417   -0.00003816
     atom   40 type  1   force =    -0.00028222    0.00007501    0.00040452
     atom   41 type  4   force =    -0.00008674    0.00000316    0.00011174
     atom   42 type  1   force =    -0.00007781    0.00002854    0.00004047
     atom   43 type  3   force =    -0.00001709    0.00000145    0.00000065
     atom   44 type  3   force =    -0.00001288    0.00000070    0.00000272
     atom   45 type  2   force =    -0.00006669    0.00001146    0.00000504
     atom   46 type  4   force =    -0.00013668   -0.00003124   -0.00001261
     atom   47 type  3   force =     0.00001870    0.00000048   -0.00001192
     atom   48 type  3   force =     0.00000782   -0.00000461   -0.00001045
     atom   49 type  2   force =     0.00003138   -0.00003063   -0.00002801
     atom   50 type  4   force =    -0.00004675   -0.00006584    0.00018079
     atom   51 type  1   force =    -0.00009229   -0.00007065   -0.00003976
     atom   52 type  4   force =    -0.00007013    0.00004330    0.00008171
     atom   53 type  1   force =     0.00005117   -0.00005273   -0.00003599
     atom   54 type  1   force =    -0.00030552   -0.00008137    0.00043832
     atom   55 type  4   force =    -0.00010081   -0.00000495    0.00012554
     atom   56 type  1   force =    -0.00008009   -0.00002937    0.00004959

     Total force =     1.056458     Total SCF correction =     0.001266


     entering subroutine stress ...

          total   stress  (Ry/bohr**3)                   (kbar)     P=  138.11
   0.00097398  -0.00000000   0.00012025        143.28     -0.00     17.69
  -0.00000000   0.00094795   0.00000001         -0.00    139.45      0.00
   0.00012025   0.00000001   0.00089470         17.69      0.00    131.62

     kinetic stress (kbar)  15309.00     -0.00    336.21
                               -0.00  15728.14      0.00
                              336.21      0.00  15260.07

     local   stress (kbar) -15742.76     -0.00   7919.06
                               -0.00  -8768.00      0.00
                             7919.06      0.00 -11905.19

     nonloc. stress (kbar)   1036.72     -0.00     11.02
                               -0.00   1046.72      0.00
                               11.02      0.00   1006.66

     hartree stress (kbar)   7095.13      0.00  -2890.51
                                0.00   5050.02     -0.00
                            -2890.51     -0.00   5625.69

     exc-cor stress (kbar)  -2207.80      0.00    -10.98
                                0.00  -2228.33      0.00
                              -10.98      0.00  -2213.48

     corecor stress (kbar)  -1147.25     -0.00     -2.79
                               -0.00  -1149.23     -0.00
                               -2.79     -0.00  -1146.91

     ewald   stress (kbar)  -4199.77      0.00  -5344.31
                                0.00  -9539.87     -0.00
                            -5344.31     -0.00  -6495.22

     hubbard stress (kbar)      0.00      0.00      0.00
                                0.00      0.00      0.00
                                0.00      0.00      0.00

     london  stress (kbar)      0.00      0.00      0.00
                                0.00      0.00      0.00
                                0.00      0.00      0.00

     XDM     stress (kbar)      0.00      0.00      0.00
                                0.00      0.00      0.00
                                0.00      0.00      0.00

     dft-nl  stress (kbar)      0.00      0.00      0.00
                                0.00      0.00      0.00
                                0.00      0.00      0.00

     TS-vdW  stress (kbar)      0.00      0.00      0.00
                                0.00      0.00      0.00
                                0.00      0.00      0.00



     Writing output data file scf.pbe.ec-100.kp-444.HMX-792932.np-8.default-conv-thr.save

     init_run     :    585.30s CPU    630.47s WALL (       1 calls)
     electrons    :  23010.99s CPU  25212.35s WALL (       1 calls)
     forces       :    269.30s CPU    287.13s WALL (       1 calls)
     stress       :   1030.37s CPU   1057.14s WALL (       1 calls)

     Called by init_run:
     wfcinit      :    467.45s CPU    505.71s WALL (       1 calls)
     potinit      :     37.75s CPU     38.79s WALL (       1 calls)

     Called by electrons:
     c_bands      :  19981.71s CPU  21786.54s WALL (      19 calls)
     sum_band     :   2787.52s CPU   3147.24s WALL (      19 calls)
     v_of_rho     :     41.45s CPU     43.27s WALL (      20 calls)
     v_h          :      3.99s CPU      4.09s WALL (      20 calls)
     v_xc         :     41.15s CPU     43.19s WALL (      22 calls)
     newd         :    184.29s CPU    216.85s WALL (      20 calls)
     PAW_pot      :     13.34s CPU     13.86s WALL (      20 calls)
     mix_rho      :      9.51s CPU     10.16s WALL (      19 calls)

     Called by c_bands:
     init_us_2    :    114.15s CPU    117.47s WALL (    1312 calls)
     cegterg      :  19809.87s CPU  21583.85s WALL (     608 calls)

     Called by sum_band:
     sum_band:bec :      0.69s CPU      0.62s WALL (     608 calls)
     addusdens    :    303.11s CPU    514.63s WALL (      19 calls)

     Called by *egterg:
     h_psi        :  10930.48s CPU  11756.26s WALL (    2923 calls)
     s_psi        :   2363.87s CPU   2519.47s WALL (    2923 calls)
     g_psi        :     16.87s CPU     22.00s WALL (    2283 calls)
     cdiaghg      :    698.83s CPU    726.98s WALL (    2891 calls)
     cegterg:over :   2323.72s CPU   2617.44s WALL (    2283 calls)
     cegterg:upda :   1421.90s CPU   1474.35s WALL (    2283 calls)
     cegterg:last :    741.29s CPU    804.41s WALL (     608 calls)

     Called by h_psi:
     h_psi:vloc   :   6258.23s CPU   6682.60s WALL (    2923 calls)
     h_psi:vnl    :   4615.72s CPU   5014.73s WALL (    2923 calls)
     add_vuspsi   :   2375.02s CPU   2564.59s WALL (    2923 calls)

     General routines
     calbec       :   3180.74s CPU   3461.22s WALL (    3691 calls)
     fft          :     53.24s CPU     76.29s WALL (     341 calls)
     ffts         :      0.73s CPU      0.81s WALL (      39 calls)
     fftw         :   4296.21s CPU   4731.46s WALL (  466668 calls)
     interpolate  :      7.36s CPU      7.78s WALL (      39 calls)
     davcio       :      1.59s CPU     69.50s WALL (      32 calls)

     Parallel routines
     fft_scatter  :   1642.30s CPU   2068.55s WALL (  467048 calls)

     PAW routines
     PAW_pot      :     13.34s CPU     13.86s WALL (      20 calls)
     PAW_symme    :      0.01s CPU      0.02s WALL (      39 calls)

     PWSCF        :     6h55m CPU        7h34m WALL


   This run was terminated on:   0:27:14   1Jun2016            

=------------------------------------------------------------------------------=
   JOB DONE.
=------------------------------------------------------------------------------=
