
     Program PWSCF v.5.3.0 (svn rev. 11974) starts on 23May2016 at 17:22:32 

     This program is part of the open-source Quantum ESPRESSO suite
     for quantum simulation of materials; please cite
         "P. Giannozzi et al., J. Phys.:Condens. Matter 21 395502 (2009);
          URL http://www.quantum-espresso.org", 
     in publications or presentations arising from this work. More details at
     http://www.quantum-espresso.org/quote

     Parallel version (MPI), running on     8 processors
     R & G space division:  proc/nbgrp/npool/nimage =       8
     Waiting for input...
     Reading input from standard input
Warning: card    &IONS ignored
Warning: card TRUST_RADIUS_MAX=0.2 ignored
Warning: card / ignored
Warning: card     &CELL ignored
Warning: card CELL_DYNAMICS='BFGS' ignored
Warning: card / ignored

     Current dimensions of program PWSCF are:
     Max number of different atomic species (ntypx) = 10
     Max number of k-points (npk) =  40000
     Max angular momentum in pseudopotentials (lmaxx) =  3
               file N.pbe-n-kjpaw_psl.1.0.0.UPF: wavefunction(s)  2S renormalized
               file C.pbe-n-kjpaw_psl.1.0.0.UPF: wavefunction(s)  2S 2P renormalized
               file H.pbe-kjpaw_psl.1.0.0.UPF: wavefunction(s)  1S renormalized
               file O.pbe-n-kjpaw_psl.1.0.0.UPF: wavefunction(s)  2S 2P renormalized

     Subspace diagonalization in iterative solution of the eigenvalue problem:
     a serial algorithm will be used


     Parallelization info
     --------------------
     sticks:   dense  smooth     PW     G-vecs:    dense   smooth      PW
     Min        1788     716    191               136510    34530    4816
     Max        1789     717    192               136511    34543    4817
     Sum       14309    5731   1531              1092083   276299   38535


     Title: 
     HMX-scf-pbe-n-kjpaw-kp242-ec-70-nofor-nostress-conv-em4                    


     bravais-lattice index     =            0
     lattice parameter (alat)  =       1.8897  a.u.
     unit-cell volume          =    3491.9260 (a.u.)^3
     number of atoms/cell      =           56
     number of atomic types    =            4
     number of electrons       =       224.00
     number of Kohn-Sham states=          112
     kinetic-energy cutoff     =      70.0000  Ry
     charge density cutoff     =     700.0000  Ry
     convergence threshold     =      1.0E-06
     mixing beta               =       0.7000
     number of iterations used =            8  plain     mixing
     Exchange-correlation      =  SLA  PW   PBX  PBC ( 1  4  3  4 0 0)

     celldm(1)=   1.889726  celldm(2)=   0.000000  celldm(3)=   0.000000
     celldm(4)=   0.000000  celldm(5)=   0.000000  celldm(6)=   0.000000

     crystal axes: (cart. coord. in units of alat)
               a(1) = (   6.525500   0.000000   0.000000 )  
               a(2) = (   0.000000  11.036900   0.000000 )  
               a(3) = (  -1.615186   0.000000   7.184683 )  

     reciprocal axes: (cart. coord. in units 2 pi/alat)
               b(1) = (  0.153245 -0.000000  0.034451 )  
               b(2) = (  0.000000  0.090605 -0.000000 )  
               b(3) = (  0.000000  0.000000  0.139185 )  


     PseudoPot. # 1 for  N read from file:
     /users/majewski/.data/PSEUDOPOTENTIALS/N.pbe-n-kjpaw_psl.1.0.0.UPF
     MD5 check sum: c21df8f53e59d08c3548513d559cdda6
     Pseudo is Projector augmented-wave + core cor, Zval =  5.0
     Generated using "atomic" code by A. Dal Corso  v.5.3.0 svn rev. 11974
     Shape of augmentation charge: PSQ
     Using radial grid of 1085 points,  4 beta functions with: 
                l(1) =   0
                l(2) =   0
                l(3) =   1
                l(4) =   1
     Q(r) pseudized with 0 coefficients 


     PseudoPot. # 2 for  C read from file:
     /users/majewski/.data/PSEUDOPOTENTIALS/C.pbe-n-kjpaw_psl.1.0.0.UPF
     MD5 check sum: 2ba8448e293caca687844dde9a1b88a8
     Pseudo is Projector augmented-wave + core cor, Zval =  4.0
     Generated using "atomic" code by A. Dal Corso  v.5.3.0 svn rev. 11974
     Shape of augmentation charge: PSQ
     Using radial grid of 1073 points,  4 beta functions with: 
                l(1) =   0
                l(2) =   0
                l(3) =   1
                l(4) =   1
     Q(r) pseudized with 0 coefficients 


     PseudoPot. # 3 for  H read from file:
     /users/majewski/.data/PSEUDOPOTENTIALS/H.pbe-kjpaw_psl.1.0.0.UPF
     MD5 check sum: bc0feb48a24907a0b97fa6ee2d589a29
     Pseudo is Projector augmented-wave, Zval =  1.0
     Generated using "atomic" code by A. Dal Corso  v.5.3.0 svn rev. 11974
     Shape of augmentation charge: PSQ
     Using radial grid of  929 points,  2 beta functions with: 
                l(1) =   0
                l(2) =   0
     Q(r) pseudized with 0 coefficients 


     PseudoPot. # 4 for  O read from file:
     /users/majewski/.data/PSEUDOPOTENTIALS/O.pbe-n-kjpaw_psl.1.0.0.UPF
     MD5 check sum: 9c0ade6c043cf4a781bde3908a3a8206
     Pseudo is Projector augmented-wave + core cor, Zval =  6.0
     Generated using "atomic" code by A. Dal Corso  v.5.3.0 svn rev. 11974
     Shape of augmentation charge: PSQ
     Using radial grid of 1095 points,  4 beta functions with: 
                l(1) =   0
                l(2) =   0
                l(3) =   1
                l(4) =   1
     Q(r) pseudized with 0 coefficients 


     atomic species   valence    mass     pseudopotential
        N              5.00    14.00670      N( 1.00)
        C              4.00    12.01100      C( 1.00)
        H              1.00     1.00790      H( 1.00)
        O              6.00    15.99940      O( 1.00)

      4 Sym. Ops., with inversion, found ( 2 have fractional translation)


                                    s                        frac. trans.

      isym =  1     identity                                     

 cryst.   s( 1) = (     1          0          0      )
                  (     0          1          0      )
                  (     0          0          1      )

 cart.    s( 1) = (  1.0000000  0.0000000  0.0000000 )
                  (  0.0000000  1.0000000  0.0000000 )
                  (  0.0000000  0.0000000  1.0000000 )


      isym =  2     180 deg rotation - cart. axis [0,1,0]        

 cryst.   s( 2) = (    -1          0          0      )    f =(  0.5000000 )
                  (     0          1          0      )       (  0.5000000 )
                  (     0          0         -1      )       (  0.5000000 )

 cart.    s( 2) = ( -1.0000000  0.0000000 -0.0000000 )    f =(  2.4551571 )
                  (  0.0000000  1.0000000  0.0000000 )       (  5.5184500 )
                  (  0.0000000  0.0000000 -1.0000000 )       (  3.5923415 )


      isym =  3     inversion                                    

 cryst.   s( 3) = (    -1          0          0      )
                  (     0         -1          0      )
                  (     0          0         -1      )

 cart.    s( 3) = ( -1.0000000  0.0000000 -0.0000000 )
                  (  0.0000000 -1.0000000  0.0000000 )
                  (  0.0000000  0.0000000 -1.0000000 )


      isym =  4     inv. 180 deg rotation - cart. axis [0,1,0]   

 cryst.   s( 4) = (     1          0          0      )    f =(  0.5000000 )
                  (     0         -1          0      )       (  0.5000000 )
                  (     0          0          1      )       ( -0.5000000 )

 cart.    s( 4) = (  1.0000000  0.0000000  0.0000000 )    f =(  4.0703429 )
                  (  0.0000000 -1.0000000  0.0000000 )       (  5.5184500 )
                  (  0.0000000  0.0000000  1.0000000 )       ( -3.5923415 )


   Cartesian axes

     site n.     atom                  positions (alat units)
         1           N   tau(   1) = (  -0.8668413   6.8692562   3.3186051  )
         2           O   tau(   2) = (   1.0599706   7.9401666   3.1425804  )
         3           N   tau(   3) = (   0.0533091   7.7556296   3.8208145  )
         4           N   tau(   4) = (  -2.0680987   5.7890748   5.0659200  )
         5           O   tau(   5) = (  -3.2533088   4.7280976   6.6225535  )
         6           N   tau(   6) = (  -3.2451729   5.5281625   5.7010460  )
         7           O   tau(   7) = (  -0.1871403   8.2413636   4.9136048  )
         8           C   tau(   8) = (  -2.1362925   6.7804091   3.9788775  )
         9           H   tau(   9) = (  -2.8191539   6.5194968   3.3415961  )
        10           H   tau(  10) = (  -2.3765906   7.6474680   4.3424225  )
        11           O   tau(  11) = (  -4.2135894   6.1790085   5.3101993  )
        12           C   tau(  12) = (  -0.5998445   6.2495343   2.0325468  )
        13           H   tau(  13) = (  -1.4176786   5.8230684   1.7315086  )
        14           H   tau(  14) = (  -0.3318567   6.8947514   1.3600605  )
        15           H   tau(  15) = (   2.1233004  -1.3763014   4.9524020  )
        16           H   tau(  16) = (   1.0374785  -0.3046184   5.3238502  )
        17           C   tau(  17) = (   1.8553126  -0.7310843   5.6248884  )
        18           O   tau(  18) = (  -1.7584323  -0.6605585   8.9025408  )
        19           H   tau(  19) = (   0.0785665  -2.1290180   7.9347640  )
        20           H   tau(  20) = (  -0.3639967  -1.0010468   6.9339376  )
        21           C   tau(  21) = (   0.3188646  -1.2619591   7.5712190  )
        22           O   tau(  22) = (   2.2680169  -2.7229136   8.5059463  )
        23           N   tau(  23) = (  -0.7900158  -0.0097125   9.2933876  )
        24           O   tau(  24) = (  -0.7981517   0.7903524  10.2148950  )
        25           N   tau(  25) = (   0.3870584  -0.2706248   8.6582616  )
        26           N   tau(  26) = (   2.5084662  -2.2371796   7.4131560  )
        27           O   tau(  27) = (   3.5151277  -2.4217166   6.7349219  )
        28           N   tau(  28) = (   1.5883158  -1.3508062   6.9109467  )
        29           H   tau(  29) = (  -1.2833291   4.1421486   5.8246226  )
        30           H   tau(  30) = (  -0.1975072   5.2138316   5.4531745  )
        31           C   tau(  31) = (  -1.0153413   4.7873657   5.1521362  )
        32           O   tau(  32) = (   2.5984037   4.8578915   1.8744838  )
        33           H   tau(  33) = (   0.7614048   3.3894320   2.8422606  )
        34           H   tau(  34) = (   1.2039681   4.5174032   3.8430870  )
        35           C   tau(  35) = (   0.5211068   4.2564909   3.2058056  )
        36           O   tau(  36) = (  -1.4280455   2.7955364   2.2710783  )
        37           N   tau(  37) = (   1.6299871   5.5087375   1.4836371  )
        38           O   tau(  38) = (   1.6381231   6.3088024   0.5621296  )
        39           N   tau(  39) = (   0.4529129   5.2478252   2.1187630  )
        40           N   tau(  40) = (  -1.6684949   3.2812704   3.3638686  )
        41           O   tau(  41) = (  -2.6751564   3.0967334   4.0421027  )
        42           N   tau(  42) = (  -0.7483445   4.1676438   3.8660780  )
        43           H   tau(  43) = (   1.1718280   1.3763014   9.4169641  )
        44           H   tau(  44) = (   2.2576499   0.3046184   9.0455160  )
        45           C   tau(  45) = (   1.4398158   0.7310843   8.7444778  )
        46           O   tau(  46) = (   5.0535608   0.6605585   5.4668254  )
        47           H   tau(  47) = (   3.2165619   2.1290180   6.4346022  )
        48           H   tau(  48) = (   3.6591252   1.0010468   7.4354285  )
        49           C   tau(  49) = (   2.9762639   1.2619591   6.7981471  )
        50           O   tau(  50) = (   1.0271116   2.7229136   5.8634199  )
        51           N   tau(  51) = (   4.0851442   0.0097125   5.0759786  )
        52           O   tau(  52) = (   4.0932802  -0.7903524   4.1544711  )
        53           N   tau(  53) = (   2.9080700   0.2706248   5.7111046  )
        54           N   tau(  54) = (   0.7866622   2.2371796   6.9562102  )
        55           O   tau(  55) = (  -0.2199993   2.4217166   7.6344442  )
        56           N   tau(  56) = (   1.7068126   1.3508062   7.4584195  )

   Crystallographic axes

     site n.     atom                  positions (cryst. coord.)
         1           N   tau(   1) = ( -0.0185100  0.6223900  0.4619000  )
         2           O   tau(   2) = (  0.2707000  0.7194200  0.4374000  )
         3           N   tau(   3) = (  0.1398000  0.7027000  0.5318000  )
         4           N   tau(   4) = ( -0.1424000  0.5245200  0.7051000  )
         5           O   tau(   5) = ( -0.2704000  0.4283900  0.9217600  )
         6           N   tau(   6) = ( -0.3009000  0.5008800  0.7935000  )
         7           O   tau(   7) = (  0.1406000  0.7467100  0.6839000  )
         8           C   tau(   8) = ( -0.1903000  0.6143400  0.5538000  )
         9           H   tau(   9) = ( -0.3169000  0.5907000  0.4651000  )
        10           H   tau(  10) = ( -0.2146000  0.6929000  0.6044000  )
        11           O   tau(  11) = ( -0.4627700  0.5598500  0.7391000  )
        12           C   tau(  12) = ( -0.0219000  0.5662400  0.2829000  )
        13           H   tau(  13) = ( -0.1576000  0.5276000  0.2410000  )
        14           H   tau(  14) = ( -0.0040000  0.6247000  0.1893000  )
        15           H   tau(  15) = (  0.4960000 -0.1247000  0.6893000  )
        16           H   tau(  16) = (  0.3424000 -0.0276000  0.7410000  )
        17           C   tau(  17) = (  0.4781000 -0.0662400  0.7829000  )
        18           O   tau(  18) = (  0.0372300 -0.0598500  1.2391000  )
        19           H   tau(  19) = (  0.2854000 -0.1929000  1.1044000  )
        20           H   tau(  20) = (  0.1831000 -0.0907000  0.9651000  )
        21           C   tau(  21) = (  0.3097000 -0.1143400  1.0538000  )
        22           O   tau(  22) = (  0.6406000 -0.2467100  1.1839000  )
        23           N   tau(  23) = (  0.1991000 -0.0008800  1.2935000  )
        24           O   tau(  24) = (  0.2296000  0.0716100  1.4217600  )
        25           N   tau(  25) = (  0.3576000 -0.0245200  1.2051000  )
        26           N   tau(  26) = (  0.6398000 -0.2027000  1.0318000  )
        27           O   tau(  27) = (  0.7707000 -0.2194200  0.9374000  )
        28           N   tau(  28) = (  0.4814900 -0.1223900  0.9619000  )
        29           H   tau(  29) = (  0.0040000  0.3753000  0.8107000  )
        30           H   tau(  30) = (  0.1576000  0.4724000  0.7590000  )
        31           C   tau(  31) = (  0.0219000  0.4337600  0.7171000  )
        32           O   tau(  32) = (  0.4627700  0.4401500  0.2609000  )
        33           H   tau(  33) = (  0.2146000  0.3071000  0.3956000  )
        34           H   tau(  34) = (  0.3169000  0.4093000  0.5349000  )
        35           C   tau(  35) = (  0.1903000  0.3856600  0.4462000  )
        36           O   tau(  36) = ( -0.1406000  0.2532900  0.3161000  )
        37           N   tau(  37) = (  0.3009000  0.4991200  0.2065000  )
        38           O   tau(  38) = (  0.2704000  0.5716100  0.0782400  )
        39           N   tau(  39) = (  0.1424000  0.4754800  0.2949000  )
        40           N   tau(  40) = ( -0.1398000  0.2973000  0.4682000  )
        41           O   tau(  41) = ( -0.2707000  0.2805800  0.5626000  )
        42           N   tau(  42) = (  0.0185100  0.3776100  0.5381000  )
        43           H   tau(  43) = (  0.5040000  0.1247000  1.3107000  )
        44           H   tau(  44) = (  0.6576000  0.0276000  1.2590000  )
        45           C   tau(  45) = (  0.5219000  0.0662400  1.2171000  )
        46           O   tau(  46) = (  0.9627700  0.0598500  0.7609000  )
        47           H   tau(  47) = (  0.7146000  0.1929000  0.8956000  )
        48           H   tau(  48) = (  0.8169000  0.0907000  1.0349000  )
        49           C   tau(  49) = (  0.6903000  0.1143400  0.9462000  )
        50           O   tau(  50) = (  0.3594000  0.2467100  0.8161000  )
        51           N   tau(  51) = (  0.8009000  0.0008800  0.7065000  )
        52           O   tau(  52) = (  0.7704000 -0.0716100  0.5782400  )
        53           N   tau(  53) = (  0.6424000  0.0245200  0.7949000  )
        54           N   tau(  54) = (  0.3602000  0.2027000  0.9682000  )
        55           O   tau(  55) = (  0.2293000  0.2194200  1.0626000  )
        56           N   tau(  56) = (  0.5185100  0.1223900  1.0381000  )

     number of k points=    16
                       cart. coord. in units 2pi/alat
        k(    1) = (   0.0191556   0.0113256   0.0217045), wk =   0.1250000
        k(    2) = (   0.0191556   0.0113256   0.0565007), wk =   0.1250000
        k(    3) = (   0.0191556   0.0113256  -0.0478880), wk =   0.1250000
        k(    4) = (   0.0191556   0.0113256  -0.0130918), wk =   0.1250000
        k(    5) = (   0.0191556   0.0339769   0.0217045), wk =   0.1250000
        k(    6) = (   0.0191556   0.0339769   0.0565007), wk =   0.1250000
        k(    7) = (   0.0191556   0.0339769  -0.0478880), wk =   0.1250000
        k(    8) = (   0.0191556   0.0339769  -0.0130918), wk =   0.1250000
        k(    9) = (   0.0574669   0.0113256   0.0303172), wk =   0.1250000
        k(   10) = (   0.0574669   0.0113256   0.0651135), wk =   0.1250000
        k(   11) = (   0.0574669   0.0113256  -0.0392753), wk =   0.1250000
        k(   12) = (   0.0574669   0.0113256  -0.0044790), wk =   0.1250000
        k(   13) = (   0.0574669   0.0339769   0.0303172), wk =   0.1250000
        k(   14) = (   0.0574669   0.0339769   0.0651135), wk =   0.1250000
        k(   15) = (   0.0574669   0.0339769  -0.0392753), wk =   0.1250000
        k(   16) = (   0.0574669   0.0339769  -0.0044790), wk =   0.1250000

                       cryst. coord.
        k(    1) = (   0.1250000   0.1250000   0.1250000), wk =   0.1250000
        k(    2) = (   0.1250000   0.1250000   0.3750000), wk =   0.1250000
        k(    3) = (   0.1250000   0.1250000  -0.3750000), wk =   0.1250000
        k(    4) = (   0.1250000   0.1250000  -0.1250000), wk =   0.1250000
        k(    5) = (   0.1250000   0.3750000   0.1250000), wk =   0.1250000
        k(    6) = (   0.1250000   0.3750000   0.3750000), wk =   0.1250000
        k(    7) = (   0.1250000   0.3750000  -0.3750000), wk =   0.1250000
        k(    8) = (   0.1250000   0.3750000  -0.1250000), wk =   0.1250000
        k(    9) = (   0.3750000   0.1250000   0.1250000), wk =   0.1250000
        k(   10) = (   0.3750000   0.1250000   0.3750000), wk =   0.1250000
        k(   11) = (   0.3750000   0.1250000  -0.3750000), wk =   0.1250000
        k(   12) = (   0.3750000   0.1250000  -0.1250000), wk =   0.1250000
        k(   13) = (   0.3750000   0.3750000   0.1250000), wk =   0.1250000
        k(   14) = (   0.3750000   0.3750000   0.3750000), wk =   0.1250000
        k(   15) = (   0.3750000   0.3750000  -0.3750000), wk =   0.1250000
        k(   16) = (   0.3750000   0.3750000  -0.1250000), wk =   0.1250000

     Dense  grid:  1092083 G-vectors     FFT dimensions: ( 108, 180, 120)

     Smooth grid:   276299 G-vectors     FFT dimensions: (  72, 120,  75)

     Largest allocated arrays     est. size (Mb)     dimensions
        Kohn-Sham Wavefunctions         7.38 Mb     (    4316,  112)
        NL pseudopotentials            23.18 Mb     (    4316,  352)
        Each V/rho on FFT grid          4.45 Mb     (  291600)
        Each G-vector array             1.04 Mb     (  136511)
        G-vector shells                 0.96 Mb     (  125421)
     Largest temporary arrays     est. size (Mb)     dimensions
        Auxiliary wavefunctions        29.50 Mb     (    4316,  448)
        Each subspace H/S matrix        3.06 Mb     (     448,  448)
        Each <psi_i|beta_j> matrix      0.60 Mb     (     352,  112)
        Arrays for rho mixing          35.60 Mb     (  291600,    8)

     Initial potential from superposition of free atoms

     starting charge  223.99937, renormalised to  224.00000
     Starting wfc are  176 randomized atomic wfcs
     Checking if some PAW data can be deallocated... 
       node    0, deallocated PAW data for type:  2
       node    0, deallocated PAW data for type:  3
       node    1, deallocated PAW data for type:  1
       node    2, deallocated PAW data for type:  1
       node    3, deallocated PAW data for type:  2
       node    3, deallocated PAW data for type:  3
       node    4, deallocated PAW data for type:  1
       node    5, deallocated PAW data for type:  2
       node    5, deallocated PAW data for type:  3
       node    6, deallocated PAW data for type:  1
       node    7, deallocated PAW data for type:  2
       node    7, deallocated PAW data for type:  3

     total cpu time spent up to now is      324.8 secs

     per-process dynamical memory:   237.1 Mb

     Self-consistent Calculation

     iteration #  1     ecut=    70.00 Ry     beta=0.70
     Davidson diagonalization with overlap
     ethr =  1.00E-02,  avg # of iterations =  3.0

     total cpu time spent up to now is      786.5 secs

     total energy              =   -1279.52473573 Ry
     Harris-Foulkes estimate   =   -1283.93237937 Ry
     estimated scf accuracy    <       6.78117238 Ry

     iteration #  2     ecut=    70.00 Ry     beta=0.70
     Davidson diagonalization with overlap
     ethr =  3.03E-03,  avg # of iterations =  4.0

     total cpu time spent up to now is     1345.7 secs

     total energy              =   -1280.24144267 Ry
     Harris-Foulkes estimate   =   -1283.79656684 Ry
     estimated scf accuracy    <       7.17164849 Ry

     iteration #  3     ecut=    70.00 Ry     beta=0.70
     Davidson diagonalization with overlap
     ethr =  3.03E-03,  avg # of iterations =  4.1

     total cpu time spent up to now is     1755.0 secs

     total energy              =   -1281.78113862 Ry
     Harris-Foulkes estimate   =   -1282.01459863 Ry
     estimated scf accuracy    <       0.43315514 Ry

     iteration #  4     ecut=    70.00 Ry     beta=0.70
     Davidson diagonalization with overlap
     ethr =  1.93E-04,  avg # of iterations =  4.9

     total cpu time spent up to now is     2301.6 secs

     total energy              =   -1281.92624217 Ry
     Harris-Foulkes estimate   =   -1282.01589375 Ry
     estimated scf accuracy    <       0.19846678 Ry

     iteration #  5     ecut=    70.00 Ry     beta=0.70
     Davidson diagonalization with overlap
     ethr =  8.86E-05,  avg # of iterations =  4.0

     total cpu time spent up to now is     2722.3 secs

     total energy              =   -1281.96682173 Ry
     Harris-Foulkes estimate   =   -1281.97542890 Ry
     estimated scf accuracy    <       0.02107489 Ry

     iteration #  6     ecut=    70.00 Ry     beta=0.70
     Davidson diagonalization with overlap
     ethr =  9.41E-06,  avg # of iterations =  8.1

     total cpu time spent up to now is     3104.6 secs

     total energy              =   -1281.96970420 Ry
     Harris-Foulkes estimate   =   -1281.97111331 Ry
     estimated scf accuracy    <       0.00322254 Ry

     iteration #  7     ecut=    70.00 Ry     beta=0.70
     Davidson diagonalization with overlap
     ethr =  1.44E-06,  avg # of iterations =  4.4

     total cpu time spent up to now is     3650.0 secs

     total energy              =   -1281.97140398 Ry
     Harris-Foulkes estimate   =   -1281.97190466 Ry
     estimated scf accuracy    <       0.00130322 Ry

     iteration #  8     ecut=    70.00 Ry     beta=0.70
     Davidson diagonalization with overlap
     ethr =  5.82E-07,  avg # of iterations =  2.6

     total cpu time spent up to now is     3952.7 secs

     total energy              =   -1281.97127792 Ry
     Harris-Foulkes estimate   =   -1281.97147176 Ry
     estimated scf accuracy    <       0.00041356 Ry

     iteration #  9     ecut=    70.00 Ry     beta=0.70
     Davidson diagonalization with overlap
     ethr =  1.85E-07,  avg # of iterations =  4.9

     total cpu time spent up to now is     4521.9 secs

     total energy              =   -1281.97172478 Ry
     Harris-Foulkes estimate   =   -1281.97194452 Ry
     estimated scf accuracy    <       0.00149288 Ry

     iteration # 10     ecut=    70.00 Ry     beta=0.70
     Davidson diagonalization with overlap
     ethr =  1.85E-07,  avg # of iterations =  1.0

     total cpu time spent up to now is     4820.2 secs

     total energy              =   -1281.97125793 Ry
     Harris-Foulkes estimate   =   -1281.97172983 Ry
     estimated scf accuracy    <       0.00113698 Ry

     iteration # 11     ecut=    70.00 Ry     beta=0.70
     Davidson diagonalization with overlap
     ethr =  1.85E-07,  avg # of iterations =  5.0

     total cpu time spent up to now is     5376.7 secs

     total energy              =   -1281.97163144 Ry
     Harris-Foulkes estimate   =   -1281.97172236 Ry
     estimated scf accuracy    <       0.00034847 Ry

     iteration # 12     ecut=    70.00 Ry     beta=0.70
     Davidson diagonalization with overlap
     ethr =  1.56E-07,  avg # of iterations =  1.0

     total cpu time spent up to now is     5669.4 secs

     total energy              =   -1281.97155285 Ry
     Harris-Foulkes estimate   =   -1281.97163547 Ry
     estimated scf accuracy    <       0.00020379 Ry

     iteration # 13     ecut=    70.00 Ry     beta=0.70
     Davidson diagonalization with overlap
     ethr =  9.10E-08,  avg # of iterations =  5.0

     total cpu time spent up to now is     6127.5 secs

     total energy              =   -1281.97164976 Ry
     Harris-Foulkes estimate   =   -1281.97168540 Ry
     estimated scf accuracy    <       0.00015535 Ry

     iteration # 14     ecut=    70.00 Ry     beta=0.70
     Davidson diagonalization with overlap
     ethr =  6.94E-08,  avg # of iterations =  1.0

     total cpu time spent up to now is     6419.1 secs

     total energy              =   -1281.97162301 Ry
     Harris-Foulkes estimate   =   -1281.97165112 Ry
     estimated scf accuracy    <       0.00009874 Ry

     iteration # 15     ecut=    70.00 Ry     beta=0.70
     Davidson diagonalization with overlap
     ethr =  4.41E-08,  avg # of iterations =  5.0

     total cpu time spent up to now is     6829.0 secs

     total energy              =   -1281.97165781 Ry
     Harris-Foulkes estimate   =   -1281.97165689 Ry
     estimated scf accuracy    <       0.00001018 Ry

     iteration # 16     ecut=    70.00 Ry     beta=0.70
     Davidson diagonalization with overlap
     ethr =  4.54E-09,  avg # of iterations =  2.8

     total cpu time spent up to now is     7145.8 secs

     total energy              =   -1281.97165684 Ry
     Harris-Foulkes estimate   =   -1281.97165840 Ry
     estimated scf accuracy    <       0.00001258 Ry

     iteration # 17     ecut=    70.00 Ry     beta=0.70
     Davidson diagonalization with overlap
     ethr =  4.54E-09,  avg # of iterations =  1.0

     total cpu time spent up to now is     7438.7 secs

     total energy              =   -1281.97165437 Ry
     Harris-Foulkes estimate   =   -1281.97165694 Ry
     estimated scf accuracy    <       0.00001005 Ry

     iteration # 18     ecut=    70.00 Ry     beta=0.70
     Davidson diagonalization with overlap
     ethr =  4.49E-09,  avg # of iterations =  1.0

     total cpu time spent up to now is     7730.6 secs

     total energy              =   -1281.97165391 Ry
     Harris-Foulkes estimate   =   -1281.97165454 Ry
     estimated scf accuracy    <       0.00000551 Ry

     iteration # 19     ecut=    70.00 Ry     beta=0.70
     Davidson diagonalization with overlap
     ethr =  2.46E-09,  avg # of iterations =  5.3

     total cpu time spent up to now is     8119.6 secs

     End of self-consistent calculation

          k = 0.0192 0.0113 0.0217 ( 34571 PWs)   bands (ev):

   -24.0429 -24.0209 -24.0089 -23.9995 -23.7611 -23.7528 -23.7519 -23.7483
   -19.2683 -19.2628 -19.2565 -19.2444 -18.9535 -18.9530 -18.9498 -18.9485
   -18.3367 -18.3122 -17.3126 -17.2646 -17.1482 -17.1468 -16.1272 -16.1137
   -12.2002 -12.1977 -12.1561 -12.0420 -11.9893 -11.9190 -11.8740 -11.8547
    -8.9538  -8.9153  -8.3717  -8.3370  -7.6458  -7.6094  -7.5343  -7.5322
    -6.9361  -6.8348  -6.6778  -6.6133  -6.5975  -6.4848  -6.4217  -6.3461
    -6.2125  -6.1861  -6.1554  -6.0387  -5.9775  -5.8997  -5.8431  -5.8025
    -5.7458  -5.7245  -5.6281  -5.5929  -5.2036  -5.0927  -5.0163  -4.9992
    -4.5525  -4.5341  -4.5030  -4.4560  -4.3245  -4.2360  -3.9379  -3.9317
    -3.7831  -3.6840  -3.6395  -3.6044  -3.2483  -3.2056  -3.1470  -3.1254
    -0.8629  -0.8595  -0.3824  -0.3812  -0.2826  -0.2300  -0.1682  -0.1483
    -0.0951  -0.0731   0.1034   0.1346   0.1456   0.1743   0.3017   0.3225
     0.3752   0.3940   0.5636   0.6158   0.6998   0.7467   0.7918   0.8221
     0.8414   0.9552   0.9889   1.0527   1.1446   1.2722   1.2998   1.3231

     occupation numbers 
     1.0000   1.0000   1.0000   1.0000   1.0000   1.0000   1.0000   1.0000
     1.0000   1.0000   1.0000   1.0000   1.0000   1.0000   1.0000   1.0000
     1.0000   1.0000   1.0000   1.0000   1.0000   1.0000   1.0000   1.0000
     1.0000   1.0000   1.0000   1.0000   1.0000   1.0000   1.0000   1.0000
     1.0000   1.0000   1.0000   1.0000   1.0000   1.0000   1.0000   1.0000
     1.0000   1.0000   1.0000   1.0000   1.0000   1.0000   1.0000   1.0000
     1.0000   1.0000   1.0000   1.0000   1.0000   1.0000   1.0000   1.0000
     1.0000   1.0000   1.0000   1.0000   1.0000   1.0000   1.0000   1.0000
     1.0000   1.0000   1.0000   1.0000   1.0000   1.0000   1.0000   1.0000
     1.0000   1.0000   1.0000   1.0000   1.0000   1.0000   1.0000   1.0000
     1.0000   1.0000   1.0000   1.0000   1.0000   1.0000   1.0000   1.0000
     1.0000   1.0000   1.0000   1.0000   1.0000   1.0000   1.0000   1.0000
     1.0000   1.0000   1.0000   1.0000   1.0000   1.0000   1.0000   1.0000
     1.0000   1.0000   1.0000   1.0000   1.0000   1.0000   1.0000   1.0000

          k = 0.0192 0.0113 0.0565 ( 34543 PWs)   bands (ev):

   -24.0351 -24.0263 -24.0052 -24.0042 -23.7629 -23.7600 -23.7485 -23.7442
   -19.2667 -19.2619 -19.2571 -19.2477 -18.9589 -18.9582 -18.9453 -18.9434
   -18.3255 -18.3254 -17.2897 -17.2874 -17.1439 -17.1416 -16.1225 -16.1213
   -12.2092 -12.2084 -12.1023 -12.0837 -11.9480 -11.9408 -11.8816 -11.8745
    -8.9343  -8.9001  -8.3540  -8.3306  -7.6590  -7.6133  -7.5163  -7.4452
    -6.9818  -6.8605  -6.6685  -6.6420  -6.6253  -6.5058  -6.4446  -6.4183
    -6.2729  -6.2446  -6.0439  -5.9978  -5.9759  -5.9046  -5.8794  -5.8429
    -5.8047  -5.7499  -5.5520  -5.5116  -5.2072  -5.1296  -5.0110  -4.9748
    -4.5044  -4.4964  -4.4632  -4.3742  -4.2503  -4.2295  -4.0493  -4.0426
    -3.7715  -3.7282  -3.5786  -3.5690  -3.2682  -3.2620  -3.1304  -3.1059
    -0.8298  -0.7984  -0.3954  -0.3868  -0.2894  -0.2512  -0.2043  -0.1775
    -0.1461  -0.1099   0.0032   0.0607   0.1694   0.2151   0.2707   0.2831
     0.4837   0.5394   0.5851   0.6242   0.7046   0.7247   0.7533   0.8037
     0.9145   0.9533   1.0222   1.0465   1.1569   1.2235   1.3047   1.3270

     occupation numbers 
     1.0000   1.0000   1.0000   1.0000   1.0000   1.0000   1.0000   1.0000
     1.0000   1.0000   1.0000   1.0000   1.0000   1.0000   1.0000   1.0000
     1.0000   1.0000   1.0000   1.0000   1.0000   1.0000   1.0000   1.0000
     1.0000   1.0000   1.0000   1.0000   1.0000   1.0000   1.0000   1.0000
     1.0000   1.0000   1.0000   1.0000   1.0000   1.0000   1.0000   1.0000
     1.0000   1.0000   1.0000   1.0000   1.0000   1.0000   1.0000   1.0000
     1.0000   1.0000   1.0000   1.0000   1.0000   1.0000   1.0000   1.0000
     1.0000   1.0000   1.0000   1.0000   1.0000   1.0000   1.0000   1.0000
     1.0000   1.0000   1.0000   1.0000   1.0000   1.0000   1.0000   1.0000
     1.0000   1.0000   1.0000   1.0000   1.0000   1.0000   1.0000   1.0000
     1.0000   1.0000   1.0000   1.0000   1.0000   1.0000   1.0000   1.0000
     1.0000   1.0000   1.0000   1.0000   1.0000   1.0000   1.0000   1.0000
     1.0000   1.0000   1.0000   1.0000   1.0000   1.0000   1.0000   1.0000
     1.0000   1.0000   1.0000   1.0000   1.0000   1.0000   1.0000   1.0000

          k = 0.0192 0.0113-0.0479 ( 34529 PWs)   bands (ev):

   -24.0361 -24.0257 -24.0088 -24.0002 -23.7644 -23.7615 -23.7455 -23.7442
   -19.2643 -19.2629 -19.2537 -19.2528 -18.9604 -18.9600 -18.9435 -18.9419
   -18.3370 -18.3127 -17.3107 -17.2662 -17.1465 -17.1443 -16.1265 -16.1112
   -12.2150 -12.2081 -12.1380 -12.0504 -11.9804 -11.9047 -11.8869 -11.8714
    -8.9438  -8.8628  -8.3420  -8.3393  -7.6546  -7.6396  -7.5294  -7.4190
    -6.9905  -6.8857  -6.6687  -6.6402  -6.5804  -6.5581  -6.4608  -6.4266
    -6.2920  -6.2650  -6.0505  -6.0221  -5.9015  -5.8718  -5.8671  -5.8573
    -5.8061  -5.7393  -5.5537  -5.5063  -5.2007  -5.1293  -4.9977  -4.9704
    -4.5373  -4.4709  -4.4361  -4.3763  -4.2922  -4.2312  -4.0514  -4.0084
    -3.7806  -3.7270  -3.6307  -3.5536  -3.2730  -3.2524  -3.1213  -3.1156
    -0.7677  -0.7097  -0.3858  -0.3779  -0.3356  -0.3081  -0.2398  -0.2165
    -0.1607  -0.1547  -0.0370   0.0453   0.1839   0.2186   0.2303   0.2778
     0.5189   0.6064   0.6248   0.6382   0.6706   0.7635   0.7735   0.7875
     0.9072   0.9606   1.0363   1.0869   1.1638   1.1900   1.2921   1.3111

     occupation numbers 
     1.0000   1.0000   1.0000   1.0000   1.0000   1.0000   1.0000   1.0000
     1.0000   1.0000   1.0000   1.0000   1.0000   1.0000   1.0000   1.0000
     1.0000   1.0000   1.0000   1.0000   1.0000   1.0000   1.0000   1.0000
     1.0000   1.0000   1.0000   1.0000   1.0000   1.0000   1.0000   1.0000
     1.0000   1.0000   1.0000   1.0000   1.0000   1.0000   1.0000   1.0000
     1.0000   1.0000   1.0000   1.0000   1.0000   1.0000   1.0000   1.0000
     1.0000   1.0000   1.0000   1.0000   1.0000   1.0000   1.0000   1.0000
     1.0000   1.0000   1.0000   1.0000   1.0000   1.0000   1.0000   1.0000
     1.0000   1.0000   1.0000   1.0000   1.0000   1.0000   1.0000   1.0000
     1.0000   1.0000   1.0000   1.0000   1.0000   1.0000   1.0000   1.0000
     1.0000   1.0000   1.0000   1.0000   1.0000   1.0000   1.0000   1.0000
     1.0000   1.0000   1.0000   1.0000   1.0000   1.0000   1.0000   1.0000
     1.0000   1.0000   1.0000   1.0000   1.0000   1.0000   1.0000   1.0000
     1.0000   1.0000   1.0000   1.0000   1.0000   1.0000   1.0000   1.0000

          k = 0.0192 0.0113-0.0131 ( 34553 PWs)   bands (ev):

   -24.0433 -24.0210 -24.0100 -23.9978 -23.7635 -23.7557 -23.7483 -23.7466
   -19.2672 -19.2617 -19.2567 -19.2467 -18.9569 -18.9568 -18.9456 -18.9455
   -18.3411 -18.3065 -17.3212 -17.2558 -17.1504 -17.1500 -16.1276 -16.1072
   -12.2071 -12.1987 -12.1669 -12.0428 -11.9885 -11.9104 -11.8705 -11.8547
    -8.9647  -8.8767  -8.3657  -8.3399  -7.6502  -7.6316  -7.5671  -7.4834
    -6.9052  -6.8925  -6.6791  -6.5992  -6.5876  -6.5307  -6.4310  -6.3617
    -6.2580  -6.2202  -6.0907  -6.0443  -5.9403  -5.8923  -5.8251  -5.8001
    -5.7581  -5.7156  -5.6061  -5.5961  -5.1704  -5.1275  -5.0153  -4.9693
    -4.5514  -4.5261  -4.4971  -4.4778  -4.3282  -4.2465  -3.9417  -3.8852
    -3.8225  -3.6908  -3.6533  -3.6050  -3.2524  -3.2032  -3.1407  -3.1297
    -0.8177  -0.7941  -0.3743  -0.3688  -0.2824  -0.2486  -0.1742  -0.1622
    -0.1498  -0.1138  -0.0085   0.0537   0.1192   0.1913   0.2487   0.3137
     0.4947   0.5342   0.5551   0.6419   0.6887   0.7520   0.8049   0.8191
     0.8514   0.9350   1.0153   1.0808   1.1439   1.2559   1.2866   1.3071

     occupation numbers 
     1.0000   1.0000   1.0000   1.0000   1.0000   1.0000   1.0000   1.0000
     1.0000   1.0000   1.0000   1.0000   1.0000   1.0000   1.0000   1.0000
     1.0000   1.0000   1.0000   1.0000   1.0000   1.0000   1.0000   1.0000
     1.0000   1.0000   1.0000   1.0000   1.0000   1.0000   1.0000   1.0000
     1.0000   1.0000   1.0000   1.0000   1.0000   1.0000   1.0000   1.0000
     1.0000   1.0000   1.0000   1.0000   1.0000   1.0000   1.0000   1.0000
     1.0000   1.0000   1.0000   1.0000   1.0000   1.0000   1.0000   1.0000
     1.0000   1.0000   1.0000   1.0000   1.0000   1.0000   1.0000   1.0000
     1.0000   1.0000   1.0000   1.0000   1.0000   1.0000   1.0000   1.0000
     1.0000   1.0000   1.0000   1.0000   1.0000   1.0000   1.0000   1.0000
     1.0000   1.0000   1.0000   1.0000   1.0000   1.0000   1.0000   1.0000
     1.0000   1.0000   1.0000   1.0000   1.0000   1.0000   1.0000   1.0000
     1.0000   1.0000   1.0000   1.0000   1.0000   1.0000   1.0000   1.0000
     1.0000   1.0000   1.0000   1.0000   1.0000   1.0000   1.0000   1.0000

          k = 0.0192 0.0340 0.0217 ( 34561 PWs)   bands (ev):

   -24.0377 -24.0292 -24.0044 -24.0011 -23.7576 -23.7538 -23.7518 -23.7507
   -19.2679 -19.2663 -19.2511 -19.2467 -18.9534 -18.9532 -18.9494 -18.9488
   -18.3297 -18.3196 -17.2984 -17.2786 -17.1477 -17.1471 -16.1232 -16.1176
   -12.1998 -12.1988 -12.1326 -12.0912 -11.9522 -11.9287 -11.8689 -11.8607
    -8.9433  -8.9274  -8.3623  -8.3479  -7.6384  -7.6227  -7.5274  -7.5264
    -6.9130  -6.8679  -6.6323  -6.6079  -6.6008  -6.5355  -6.3996  -6.3750
    -6.2223  -6.2055  -6.0865  -6.0485  -5.9797  -5.9441  -5.8438  -5.8300
    -5.7131  -5.7012  -5.6099  -5.5926  -5.1622  -5.0996  -5.0517  -5.0304
    -4.5570  -4.5488  -4.4642  -4.4439  -4.3138  -4.2687  -3.9312  -3.9264
    -3.7582  -3.7135  -3.6300  -3.6117  -3.2396  -3.2229  -3.1364  -3.1286
    -0.8589  -0.8570  -0.3747  -0.3691  -0.2932  -0.2585  -0.1893  -0.1825
    -0.0639  -0.0566   0.1262   0.1364   0.1659   0.1727   0.3247   0.3294
     0.3530   0.3711   0.5782   0.6043   0.6856   0.7027   0.8089   0.8287
     0.8811   0.9272   1.0159   1.0405   1.1785   1.2301   1.3105   1.3182

     occupation numbers 
     1.0000   1.0000   1.0000   1.0000   1.0000   1.0000   1.0000   1.0000
     1.0000   1.0000   1.0000   1.0000   1.0000   1.0000   1.0000   1.0000
     1.0000   1.0000   1.0000   1.0000   1.0000   1.0000   1.0000   1.0000
     1.0000   1.0000   1.0000   1.0000   1.0000   1.0000   1.0000   1.0000
     1.0000   1.0000   1.0000   1.0000   1.0000   1.0000   1.0000   1.0000
     1.0000   1.0000   1.0000   1.0000   1.0000   1.0000   1.0000   1.0000
     1.0000   1.0000   1.0000   1.0000   1.0000   1.0000   1.0000   1.0000
     1.0000   1.0000   1.0000   1.0000   1.0000   1.0000   1.0000   1.0000
     1.0000   1.0000   1.0000   1.0000   1.0000   1.0000   1.0000   1.0000
     1.0000   1.0000   1.0000   1.0000   1.0000   1.0000   1.0000   1.0000
     1.0000   1.0000   1.0000   1.0000   1.0000   1.0000   1.0000   1.0000
     1.0000   1.0000   1.0000   1.0000   1.0000   1.0000   1.0000   1.0000
     1.0000   1.0000   1.0000   1.0000   1.0000   1.0000   1.0000   1.0000
     1.0000   1.0000   1.0000   1.0000   1.0000   1.0000   1.0000   1.0000

          k = 0.0192 0.0340 0.0565 ( 34563 PWs)   bands (ev):

   -24.0322 -24.0286 -24.0054 -24.0048 -23.7614 -23.7603 -23.7477 -23.7459
   -19.2665 -19.2650 -19.2526 -19.2493 -18.9587 -18.9584 -18.9448 -18.9440
   -18.3255 -18.3255 -17.2893 -17.2883 -17.1429 -17.1419 -16.1222 -16.1217
   -12.2086 -12.2082 -12.0993 -12.0915 -11.9419 -11.9381 -11.8820 -11.8788
    -8.9244  -8.9103  -8.3476  -8.3379  -7.6441  -7.6256  -7.4955  -7.4668
    -6.9617  -6.9166  -6.6589  -6.6501  -6.5701  -6.5212  -6.4570  -6.4385
    -6.2289  -6.2031  -6.0675  -6.0245  -5.9518  -5.9203  -5.8791  -5.8631
    -5.7895  -5.7571  -5.5557  -5.5368  -5.1467  -5.0955  -5.0570  -5.0222
    -4.4849  -4.4711  -4.4459  -4.4044  -4.2536  -4.2431  -4.0459  -4.0435
    -3.7530  -3.7340  -3.5794  -3.5740  -3.2628  -3.2591  -3.1292  -3.1178
    -0.8197  -0.8068  -0.3887  -0.3814  -0.2986  -0.2709  -0.2145  -0.1977
    -0.1219  -0.1059   0.0479   0.0677   0.1728   0.1949   0.2643   0.2756
     0.4987   0.5238   0.5955   0.6141   0.7115   0.7224   0.7581   0.7893
     0.9193   0.9391   1.0335   1.0431   1.1788   1.2059   1.3106   1.3197

     occupation numbers 
     1.0000   1.0000   1.0000   1.0000   1.0000   1.0000   1.0000   1.0000
     1.0000   1.0000   1.0000   1.0000   1.0000   1.0000   1.0000   1.0000
     1.0000   1.0000   1.0000   1.0000   1.0000   1.0000   1.0000   1.0000
     1.0000   1.0000   1.0000   1.0000   1.0000   1.0000   1.0000   1.0000
     1.0000   1.0000   1.0000   1.0000   1.0000   1.0000   1.0000   1.0000
     1.0000   1.0000   1.0000   1.0000   1.0000   1.0000   1.0000   1.0000
     1.0000   1.0000   1.0000   1.0000   1.0000   1.0000   1.0000   1.0000
     1.0000   1.0000   1.0000   1.0000   1.0000   1.0000   1.0000   1.0000
     1.0000   1.0000   1.0000   1.0000   1.0000   1.0000   1.0000   1.0000
     1.0000   1.0000   1.0000   1.0000   1.0000   1.0000   1.0000   1.0000
     1.0000   1.0000   1.0000   1.0000   1.0000   1.0000   1.0000   1.0000
     1.0000   1.0000   1.0000   1.0000   1.0000   1.0000   1.0000   1.0000
     1.0000   1.0000   1.0000   1.0000   1.0000   1.0000   1.0000   1.0000
     1.0000   1.0000   1.0000   1.0000   1.0000   1.0000   1.0000   1.0000

          k = 0.0192 0.0340-0.0479 ( 34544 PWs)   bands (ev):

   -24.0332 -24.0289 -24.0062 -24.0027 -23.7631 -23.7619 -23.7455 -23.7449
   -19.2647 -19.2642 -19.2525 -19.2522 -18.9603 -18.9601 -18.9430 -18.9423
   -18.3301 -18.3200 -17.2976 -17.2792 -17.1458 -17.1449 -16.1219 -16.1156
   -12.2130 -12.2101 -12.1203 -12.0877 -11.9469 -11.9193 -11.8820 -11.8755
    -8.9210  -8.8875  -8.3424  -8.3410  -7.6469  -7.6417  -7.4998  -7.4531
    -6.9588  -6.9148  -6.6712  -6.6492  -6.5691  -6.5577  -6.4877  -6.4678
    -6.2098  -6.1951  -6.0836  -6.0597  -5.8979  -5.8864  -5.8711  -5.8527
    -5.7897  -5.7577  -5.5457  -5.5208  -5.1769  -5.1267  -5.0204  -4.9875
    -4.5239  -4.4960  -4.3987  -4.3756  -4.2828  -4.2564  -4.0385  -4.0206
    -3.7579  -3.7351  -3.6096  -3.5773  -3.2627  -3.2525  -3.1268  -3.1252
    -0.7515  -0.7278  -0.3852  -0.3812  -0.3084  -0.2923  -0.2643  -0.2396
    -0.1744  -0.1655   0.0140   0.0454   0.1847   0.2003   0.2422   0.2671
     0.5448   0.5793   0.6419   0.6551   0.6708   0.7166   0.7815   0.7879
     0.9220   0.9399   1.0589   1.0779   1.1695   1.1809   1.2974   1.3055

     occupation numbers 
     1.0000   1.0000   1.0000   1.0000   1.0000   1.0000   1.0000   1.0000
     1.0000   1.0000   1.0000   1.0000   1.0000   1.0000   1.0000   1.0000
     1.0000   1.0000   1.0000   1.0000   1.0000   1.0000   1.0000   1.0000
     1.0000   1.0000   1.0000   1.0000   1.0000   1.0000   1.0000   1.0000
     1.0000   1.0000   1.0000   1.0000   1.0000   1.0000   1.0000   1.0000
     1.0000   1.0000   1.0000   1.0000   1.0000   1.0000   1.0000   1.0000
     1.0000   1.0000   1.0000   1.0000   1.0000   1.0000   1.0000   1.0000
     1.0000   1.0000   1.0000   1.0000   1.0000   1.0000   1.0000   1.0000
     1.0000   1.0000   1.0000   1.0000   1.0000   1.0000   1.0000   1.0000
     1.0000   1.0000   1.0000   1.0000   1.0000   1.0000   1.0000   1.0000
     1.0000   1.0000   1.0000   1.0000   1.0000   1.0000   1.0000   1.0000
     1.0000   1.0000   1.0000   1.0000   1.0000   1.0000   1.0000   1.0000
     1.0000   1.0000   1.0000   1.0000   1.0000   1.0000   1.0000   1.0000
     1.0000   1.0000   1.0000   1.0000   1.0000   1.0000   1.0000   1.0000

          k = 0.0192 0.0340-0.0131 ( 34537 PWs)   bands (ev):

   -24.0382 -24.0298 -24.0043 -24.0000 -23.7607 -23.7573 -23.7482 -23.7476
   -19.2669 -19.2652 -19.2518 -19.2483 -18.9569 -18.9568 -18.9455 -18.9455
   -18.3314 -18.3171 -17.3017 -17.2745 -17.1504 -17.1503 -16.1214 -16.1130
   -12.2048 -12.2018 -12.1415 -12.0967 -11.9476 -11.9216 -11.8661 -11.8593
    -8.9405  -8.9041  -8.3596  -8.3490  -7.6455  -7.6369  -7.5393  -7.5058
    -6.8825  -6.8695  -6.6663  -6.6237  -6.5915  -6.5602  -6.4471  -6.4159
    -6.2015  -6.1829  -6.0967  -6.0683  -5.9374  -5.9134  -5.8269  -5.8221
    -5.7165  -5.7038  -5.5966  -5.5886  -5.1689  -5.1421  -5.0156  -4.9917
    -4.5618  -4.5537  -4.4651  -4.4450  -4.3215  -4.2783  -3.9233  -3.9000
    -3.7758  -3.7198  -3.6422  -3.6209  -3.2421  -3.2223  -3.1348  -3.1308
    -0.8079  -0.7980  -0.3661  -0.3605  -0.2930  -0.2602  -0.1910  -0.1820
    -0.1463  -0.1258   0.0237   0.0526   0.1397   0.1726   0.2818   0.3098
     0.5047   0.5275   0.5719   0.6229   0.6706   0.7047   0.8210   0.8231
     0.8869   0.9183   1.0443   1.0706   1.1684   1.2154   1.2962   1.3025

     occupation numbers 
     1.0000   1.0000   1.0000   1.0000   1.0000   1.0000   1.0000   1.0000
     1.0000   1.0000   1.0000   1.0000   1.0000   1.0000   1.0000   1.0000
     1.0000   1.0000   1.0000   1.0000   1.0000   1.0000   1.0000   1.0000
     1.0000   1.0000   1.0000   1.0000   1.0000   1.0000   1.0000   1.0000
     1.0000   1.0000   1.0000   1.0000   1.0000   1.0000   1.0000   1.0000
     1.0000   1.0000   1.0000   1.0000   1.0000   1.0000   1.0000   1.0000
     1.0000   1.0000   1.0000   1.0000   1.0000   1.0000   1.0000   1.0000
     1.0000   1.0000   1.0000   1.0000   1.0000   1.0000   1.0000   1.0000
     1.0000   1.0000   1.0000   1.0000   1.0000   1.0000   1.0000   1.0000
     1.0000   1.0000   1.0000   1.0000   1.0000   1.0000   1.0000   1.0000
     1.0000   1.0000   1.0000   1.0000   1.0000   1.0000   1.0000   1.0000
     1.0000   1.0000   1.0000   1.0000   1.0000   1.0000   1.0000   1.0000
     1.0000   1.0000   1.0000   1.0000   1.0000   1.0000   1.0000   1.0000
     1.0000   1.0000   1.0000   1.0000   1.0000   1.0000   1.0000   1.0000

          k = 0.0575 0.0113 0.0303 ( 34548 PWs)   bands (ev):

   -24.0325 -24.0232 -24.0059 -24.0053 -23.7597 -23.7572 -23.7531 -23.7483
   -19.2664 -19.2622 -19.2579 -19.2485 -18.9563 -18.9553 -18.9478 -18.9462
   -18.3313 -18.3313 -17.2868 -17.2848 -17.1493 -17.1475 -16.1228 -16.1214
   -12.1984 -12.1972 -12.0766 -12.0573 -11.9211 -11.9108 -11.8798 -11.8679
    -8.9530  -8.9213  -8.3714  -8.3502  -7.6395  -7.6192  -7.5963  -7.5459
    -7.0559  -6.9839  -6.7379  -6.6176  -6.5609  -6.5210  -6.3406  -6.3042
    -6.2793  -6.2316  -6.1027  -6.0346  -5.9742  -5.9242  -5.8501  -5.8302
    -5.7395  -5.6928  -5.6258  -5.6130  -5.2226  -5.1148  -4.9990  -4.9896
    -4.5319  -4.5126  -4.4658  -4.4084  -4.1476  -4.0953  -3.8903  -3.8724
    -3.8222  -3.7423  -3.6852  -3.6782  -3.2426  -3.2346  -3.1473  -3.1187
    -0.8207  -0.8080  -0.3641  -0.3623  -0.2722  -0.2542  -0.1899  -0.1616
    -0.1370  -0.1078   0.0432   0.0576   0.1394   0.1526   0.2785   0.3024
     0.5138   0.5201   0.5828   0.6349   0.7141   0.7221   0.7901   0.8065
     0.8619   0.9120   0.9426   0.9881   1.2185   1.2463   1.2877   1.3234

     occupation numbers 
     1.0000   1.0000   1.0000   1.0000   1.0000   1.0000   1.0000   1.0000
     1.0000   1.0000   1.0000   1.0000   1.0000   1.0000   1.0000   1.0000
     1.0000   1.0000   1.0000   1.0000   1.0000   1.0000   1.0000   1.0000
     1.0000   1.0000   1.0000   1.0000   1.0000   1.0000   1.0000   1.0000
     1.0000   1.0000   1.0000   1.0000   1.0000   1.0000   1.0000   1.0000
     1.0000   1.0000   1.0000   1.0000   1.0000   1.0000   1.0000   1.0000
     1.0000   1.0000   1.0000   1.0000   1.0000   1.0000   1.0000   1.0000
     1.0000   1.0000   1.0000   1.0000   1.0000   1.0000   1.0000   1.0000
     1.0000   1.0000   1.0000   1.0000   1.0000   1.0000   1.0000   1.0000
     1.0000   1.0000   1.0000   1.0000   1.0000   1.0000   1.0000   1.0000
     1.0000   1.0000   1.0000   1.0000   1.0000   1.0000   1.0000   1.0000
     1.0000   1.0000   1.0000   1.0000   1.0000   1.0000   1.0000   1.0000
     1.0000   1.0000   1.0000   1.0000   1.0000   1.0000   1.0000   1.0000
     1.0000   1.0000   1.0000   1.0000   1.0000   1.0000   1.0000   1.0000

          k = 0.0575 0.0113 0.0651 ( 34515 PWs)   bands (ev):

   -24.0286 -24.0259 -24.0096 -24.0017 -23.7593 -23.7590 -23.7551 -23.7460
   -19.2669 -19.2636 -19.2583 -19.2474 -18.9657 -18.9638 -18.9407 -18.9369
   -18.3460 -18.3217 -17.3063 -17.2640 -17.1398 -17.1361 -16.1380 -16.1205
   -12.2089 -12.2069 -12.1047 -12.0285 -11.9270 -11.8858 -11.8782 -11.8722
    -8.9956  -8.8775  -8.3664  -8.3319  -7.6463  -7.6223  -7.5595  -7.4371
    -7.1529  -6.9333  -6.7445  -6.5880  -6.5779  -6.5074  -6.4828  -6.3927
    -6.3336  -6.2564  -6.0673  -6.0436  -5.9965  -5.9501  -5.8814  -5.8285
    -5.7198  -5.6631  -5.5803  -5.5137  -5.2322  -5.0735  -5.0604  -5.0053
    -4.4820  -4.4671  -4.4115  -4.3620  -4.1052  -4.0570  -3.9882  -3.9471
    -3.8537  -3.7698  -3.6977  -3.6123  -3.2787  -3.2569  -3.1414  -3.0885
    -0.8938  -0.8537  -0.3702  -0.3394  -0.2763  -0.2452  -0.1862  -0.1475
    -0.1023  -0.0675   0.1078   0.1398   0.1578   0.1795   0.2463   0.3364
     0.4295   0.4522   0.4922   0.6067   0.7026   0.7323   0.7723   0.8024
     0.8975   0.9389   0.9532   0.9808   1.2330   1.2678   1.2902   1.3323

     occupation numbers 
     1.0000   1.0000   1.0000   1.0000   1.0000   1.0000   1.0000   1.0000
     1.0000   1.0000   1.0000   1.0000   1.0000   1.0000   1.0000   1.0000
     1.0000   1.0000   1.0000   1.0000   1.0000   1.0000   1.0000   1.0000
     1.0000   1.0000   1.0000   1.0000   1.0000   1.0000   1.0000   1.0000
     1.0000   1.0000   1.0000   1.0000   1.0000   1.0000   1.0000   1.0000
     1.0000   1.0000   1.0000   1.0000   1.0000   1.0000   1.0000   1.0000
     1.0000   1.0000   1.0000   1.0000   1.0000   1.0000   1.0000   1.0000
     1.0000   1.0000   1.0000   1.0000   1.0000   1.0000   1.0000   1.0000
     1.0000   1.0000   1.0000   1.0000   1.0000   1.0000   1.0000   1.0000
     1.0000   1.0000   1.0000   1.0000   1.0000   1.0000   1.0000   1.0000
     1.0000   1.0000   1.0000   1.0000   1.0000   1.0000   1.0000   1.0000
     1.0000   1.0000   1.0000   1.0000   1.0000   1.0000   1.0000   1.0000
     1.0000   1.0000   1.0000   1.0000   1.0000   1.0000   1.0000   1.0000
     1.0000   1.0000   1.0000   1.0000   1.0000   1.0000   1.0000   1.0000

          k = 0.0575 0.0113-0.0393 ( 34503 PWs)   bands (ev):

   -24.0303 -24.0247 -24.0111 -23.9996 -23.7623 -23.7611 -23.7510 -23.7449
   -19.2651 -19.2628 -19.2585 -19.2501 -18.9666 -18.9648 -18.9396 -18.9360
   -18.3504 -18.3161 -17.3159 -17.2540 -17.1425 -17.1391 -16.1378 -16.1145
   -12.2105 -12.2088 -12.1288 -12.0082 -11.9425 -11.8877 -11.8804 -11.8519
    -8.9912  -8.8542  -8.3608  -8.3335  -7.6421  -7.6309  -7.5795  -7.4245
    -7.1697  -6.9366  -6.7309  -6.6043  -6.5763  -6.5504  -6.4758  -6.4149
    -6.3392  -6.2717  -6.0556  -5.9967  -5.9762  -5.9537  -5.8828  -5.8439
    -5.6958  -5.6598  -5.5873  -5.5117  -5.2224  -5.0960  -5.0345  -4.9939
    -4.4869  -4.4464  -4.4056  -4.3825  -4.1205  -4.0861  -3.9408  -3.9355
    -3.8026  -3.7938  -3.7609  -3.6215  -3.2833  -3.2520  -3.1363  -3.0940
    -0.8526  -0.7917  -0.3639  -0.3176  -0.2869  -0.2642  -0.1907  -0.1642
    -0.1584  -0.1216   0.0392   0.1177   0.1549   0.1994   0.2153   0.2383
     0.4735   0.5537   0.5782   0.5931   0.7002   0.7262   0.7910   0.8158
     0.8900   0.9191   0.9739   1.0343   1.2509   1.2654   1.2700   1.2943

     occupation numbers 
     1.0000   1.0000   1.0000   1.0000   1.0000   1.0000   1.0000   1.0000
     1.0000   1.0000   1.0000   1.0000   1.0000   1.0000   1.0000   1.0000
     1.0000   1.0000   1.0000   1.0000   1.0000   1.0000   1.0000   1.0000
     1.0000   1.0000   1.0000   1.0000   1.0000   1.0000   1.0000   1.0000
     1.0000   1.0000   1.0000   1.0000   1.0000   1.0000   1.0000   1.0000
     1.0000   1.0000   1.0000   1.0000   1.0000   1.0000   1.0000   1.0000
     1.0000   1.0000   1.0000   1.0000   1.0000   1.0000   1.0000   1.0000
     1.0000   1.0000   1.0000   1.0000   1.0000   1.0000   1.0000   1.0000
     1.0000   1.0000   1.0000   1.0000   1.0000   1.0000   1.0000   1.0000
     1.0000   1.0000   1.0000   1.0000   1.0000   1.0000   1.0000   1.0000
     1.0000   1.0000   1.0000   1.0000   1.0000   1.0000   1.0000   1.0000
     1.0000   1.0000   1.0000   1.0000   1.0000   1.0000   1.0000   1.0000
     1.0000   1.0000   1.0000   1.0000   1.0000   1.0000   1.0000   1.0000
     1.0000   1.0000   1.0000   1.0000   1.0000   1.0000   1.0000   1.0000

          k = 0.0575 0.0113-0.0045 ( 34541 PWs)   bands (ev):

   -24.0334 -24.0229 -24.0096 -24.0011 -23.7626 -23.7592 -23.7491 -23.7474
   -19.2641 -19.2627 -19.2546 -19.2538 -18.9586 -18.9580 -18.9452 -18.9438
   -18.3429 -18.3184 -17.3083 -17.2628 -17.1516 -17.1509 -16.1268 -16.1113
   -12.2003 -12.1988 -12.1173 -12.0191 -11.9495 -11.8976 -11.8705 -11.8628
    -8.9628  -8.8834  -8.3605  -8.3575  -7.6394  -7.6293  -7.6236  -7.5231
    -7.0700  -6.9835  -6.6936  -6.6709  -6.5552  -6.5529  -6.3738  -6.3407
    -6.2634  -6.2583  -6.0438  -6.0144  -5.9381  -5.9047  -5.8665  -5.8561
    -5.7119  -5.7024  -5.6245  -5.6118  -5.1822  -5.1642  -4.9812  -4.9696
    -4.5337  -4.5101  -4.4514  -4.4253  -4.1459  -4.1204  -3.8598  -3.8544
    -3.7962  -3.7768  -3.7263  -3.6854  -3.2553  -3.2235  -3.1399  -3.1256
    -0.7693  -0.7228  -0.3661  -0.3560  -0.2788  -0.2779  -0.2443  -0.2379
    -0.1500  -0.1235  -0.0021   0.0580   0.1212   0.1587   0.2528   0.2874
     0.4956   0.5648   0.6428   0.6843   0.6967   0.7416   0.8052   0.8304
     0.8624   0.8779   0.9556   1.0373   1.2349   1.2405   1.2684   1.2858

     occupation numbers 
     1.0000   1.0000   1.0000   1.0000   1.0000   1.0000   1.0000   1.0000
     1.0000   1.0000   1.0000   1.0000   1.0000   1.0000   1.0000   1.0000
     1.0000   1.0000   1.0000   1.0000   1.0000   1.0000   1.0000   1.0000
     1.0000   1.0000   1.0000   1.0000   1.0000   1.0000   1.0000   1.0000
     1.0000   1.0000   1.0000   1.0000   1.0000   1.0000   1.0000   1.0000
     1.0000   1.0000   1.0000   1.0000   1.0000   1.0000   1.0000   1.0000
     1.0000   1.0000   1.0000   1.0000   1.0000   1.0000   1.0000   1.0000
     1.0000   1.0000   1.0000   1.0000   1.0000   1.0000   1.0000   1.0000
     1.0000   1.0000   1.0000   1.0000   1.0000   1.0000   1.0000   1.0000
     1.0000   1.0000   1.0000   1.0000   1.0000   1.0000   1.0000   1.0000
     1.0000   1.0000   1.0000   1.0000   1.0000   1.0000   1.0000   1.0000
     1.0000   1.0000   1.0000   1.0000   1.0000   1.0000   1.0000   1.0000
     1.0000   1.0000   1.0000   1.0000   1.0000   1.0000   1.0000   1.0000
     1.0000   1.0000   1.0000   1.0000   1.0000   1.0000   1.0000   1.0000

          k = 0.0575 0.0340 0.0303 ( 34547 PWs)   bands (ev):

   -24.0296 -24.0257 -24.0061 -24.0057 -23.7580 -23.7571 -23.7526 -23.7504
   -19.2663 -19.2651 -19.2535 -19.2501 -18.9560 -18.9556 -18.9474 -18.9467
   -18.3313 -18.3313 -17.2864 -17.2855 -17.1486 -17.1478 -16.1224 -16.1218
   -12.1980 -12.1975 -12.0698 -12.0616 -11.9197 -11.9151 -11.8765 -11.8714
    -8.9436  -8.9305  -8.3625  -8.3535  -7.6324  -7.6243  -7.5853  -7.5637
    -7.0564  -7.0313  -6.6661  -6.6257  -6.5427  -6.5170  -6.3674  -6.3325
    -6.2692  -6.2420  -6.0737  -6.0455  -5.9660  -5.9401  -5.8473  -5.8288
    -5.7206  -5.7056  -5.6223  -5.6151  -5.1933  -5.1487  -5.0009  -4.9962
    -4.5258  -4.5150  -4.4519  -4.4290  -4.1256  -4.1016  -3.8804  -3.8675
    -3.8103  -3.7722  -3.6846  -3.6784  -3.2399  -3.2362  -3.1421  -3.1297
    -0.8136  -0.8084  -0.3545  -0.3492  -0.3053  -0.2892  -0.1707  -0.1505
    -0.1308  -0.1157   0.0554   0.0702   0.1434   0.1558   0.2782   0.2894
     0.5337   0.5421   0.5660   0.5952   0.7131   0.7194   0.7985   0.8187
     0.8756   0.9063   0.9453   0.9665   1.2273   1.2387   1.2987   1.3133

     occupation numbers 
     1.0000   1.0000   1.0000   1.0000   1.0000   1.0000   1.0000   1.0000
     1.0000   1.0000   1.0000   1.0000   1.0000   1.0000   1.0000   1.0000
     1.0000   1.0000   1.0000   1.0000   1.0000   1.0000   1.0000   1.0000
     1.0000   1.0000   1.0000   1.0000   1.0000   1.0000   1.0000   1.0000
     1.0000   1.0000   1.0000   1.0000   1.0000   1.0000   1.0000   1.0000
     1.0000   1.0000   1.0000   1.0000   1.0000   1.0000   1.0000   1.0000
     1.0000   1.0000   1.0000   1.0000   1.0000   1.0000   1.0000   1.0000
     1.0000   1.0000   1.0000   1.0000   1.0000   1.0000   1.0000   1.0000
     1.0000   1.0000   1.0000   1.0000   1.0000   1.0000   1.0000   1.0000
     1.0000   1.0000   1.0000   1.0000   1.0000   1.0000   1.0000   1.0000
     1.0000   1.0000   1.0000   1.0000   1.0000   1.0000   1.0000   1.0000
     1.0000   1.0000   1.0000   1.0000   1.0000   1.0000   1.0000   1.0000
     1.0000   1.0000   1.0000   1.0000   1.0000   1.0000   1.0000   1.0000
     1.0000   1.0000   1.0000   1.0000   1.0000   1.0000   1.0000   1.0000

          k = 0.0575 0.0340 0.0651 ( 34519 PWs)   bands (ev):

   -24.0274 -24.0264 -24.0077 -24.0044 -23.7591 -23.7589 -23.7525 -23.7487
   -19.2671 -19.2663 -19.2534 -19.2494 -18.9651 -18.9643 -18.9396 -18.9380
   -18.3391 -18.3290 -17.2938 -17.2763 -17.1387 -17.1372 -16.1328 -16.1255
   -12.2098 -12.2083 -12.0836 -12.0531 -11.9091 -11.8896 -11.8821 -11.8771
    -8.9622  -8.9134  -8.3549  -8.3406  -7.6213  -7.6104  -7.5516  -7.4946
    -7.1113  -7.0330  -6.6511  -6.6019  -6.5654  -6.5401  -6.4431  -6.3915
    -6.3229  -6.2734  -6.0476  -6.0308  -5.9959  -5.9779  -5.8915  -5.8580
    -5.7080  -5.6856  -5.5534  -5.5261  -5.1954  -5.1289  -5.0417  -5.0178
    -4.4693  -4.4502  -4.4030  -4.3696  -4.0908  -4.0717  -3.9785  -3.9617
    -3.8326  -3.8031  -3.6680  -3.6347  -3.2725  -3.2636  -3.1268  -3.1048
    -0.8790  -0.8626  -0.3592  -0.3454  -0.3005  -0.2907  -0.1612  -0.1487
    -0.0734  -0.0611   0.1237   0.1348   0.1715   0.1833   0.2680   0.3102
     0.4171   0.4282   0.5443   0.5998   0.6824   0.7139   0.7863   0.8017
     0.8906   0.9156   0.9721   0.9877   1.2419   1.2561   1.3029   1.3200

     occupation numbers 
     1.0000   1.0000   1.0000   1.0000   1.0000   1.0000   1.0000   1.0000
     1.0000   1.0000   1.0000   1.0000   1.0000   1.0000   1.0000   1.0000
     1.0000   1.0000   1.0000   1.0000   1.0000   1.0000   1.0000   1.0000
     1.0000   1.0000   1.0000   1.0000   1.0000   1.0000   1.0000   1.0000
     1.0000   1.0000   1.0000   1.0000   1.0000   1.0000   1.0000   1.0000
     1.0000   1.0000   1.0000   1.0000   1.0000   1.0000   1.0000   1.0000
     1.0000   1.0000   1.0000   1.0000   1.0000   1.0000   1.0000   1.0000
     1.0000   1.0000   1.0000   1.0000   1.0000   1.0000   1.0000   1.0000
     1.0000   1.0000   1.0000   1.0000   1.0000   1.0000   1.0000   1.0000
     1.0000   1.0000   1.0000   1.0000   1.0000   1.0000   1.0000   1.0000
     1.0000   1.0000   1.0000   1.0000   1.0000   1.0000   1.0000   1.0000
     1.0000   1.0000   1.0000   1.0000   1.0000   1.0000   1.0000   1.0000
     1.0000   1.0000   1.0000   1.0000   1.0000   1.0000   1.0000   1.0000
     1.0000   1.0000   1.0000   1.0000   1.0000   1.0000   1.0000   1.0000

          k = 0.0575 0.0340-0.0393 ( 34497 PWs)   bands (ev):

   -24.0288 -24.0265 -24.0077 -24.0029 -23.7618 -23.7612 -23.7494 -23.7468
   -19.2656 -19.2652 -19.2542 -19.2513 -18.9661 -18.9653 -18.9385 -18.9370
   -18.3407 -18.3265 -17.2974 -17.2718 -17.1417 -17.1403 -16.1308 -16.1211
   -12.2123 -12.2109 -12.0992 -12.0539 -11.9120 -11.8940 -11.8746 -11.8623
    -8.9531  -8.8966  -8.3524  -8.3410  -7.6255  -7.6098  -7.5643  -7.4885
    -7.1171  -7.0316  -6.6512  -6.6140  -6.5725  -6.5517  -6.4941  -6.4401
    -6.2874  -6.2472  -6.0539  -6.0189  -5.9739  -5.9648  -5.8890  -5.8641
    -5.6914  -5.6766  -5.5523  -5.5212  -5.2078  -5.1561  -5.0111  -4.9926
    -4.4865  -4.4693  -4.3781  -4.3619  -4.1085  -4.0950  -3.9417  -3.9393
    -3.8131  -3.8059  -3.7110  -3.6568  -3.2725  -3.2587  -3.1274  -3.1095
    -0.8324  -0.8069  -0.3555  -0.3383  -0.3072  -0.2922  -0.1719  -0.1648
    -0.1289  -0.1074   0.0653   0.0950   0.1633   0.1806   0.2186   0.2402
     0.5013   0.5307   0.6018   0.6054   0.6982   0.7094   0.7794   0.7885
     0.8983   0.9162   0.9984   1.0215   1.2541   1.2614   1.2749   1.2862

     occupation numbers 
     1.0000   1.0000   1.0000   1.0000   1.0000   1.0000   1.0000   1.0000
     1.0000   1.0000   1.0000   1.0000   1.0000   1.0000   1.0000   1.0000
     1.0000   1.0000   1.0000   1.0000   1.0000   1.0000   1.0000   1.0000
     1.0000   1.0000   1.0000   1.0000   1.0000   1.0000   1.0000   1.0000
     1.0000   1.0000   1.0000   1.0000   1.0000   1.0000   1.0000   1.0000
     1.0000   1.0000   1.0000   1.0000   1.0000   1.0000   1.0000   1.0000
     1.0000   1.0000   1.0000   1.0000   1.0000   1.0000   1.0000   1.0000
     1.0000   1.0000   1.0000   1.0000   1.0000   1.0000   1.0000   1.0000
     1.0000   1.0000   1.0000   1.0000   1.0000   1.0000   1.0000   1.0000
     1.0000   1.0000   1.0000   1.0000   1.0000   1.0000   1.0000   1.0000
     1.0000   1.0000   1.0000   1.0000   1.0000   1.0000   1.0000   1.0000
     1.0000   1.0000   1.0000   1.0000   1.0000   1.0000   1.0000   1.0000
     1.0000   1.0000   1.0000   1.0000   1.0000   1.0000   1.0000   1.0000
     1.0000   1.0000   1.0000   1.0000   1.0000   1.0000   1.0000   1.0000

          k = 0.0575 0.0340-0.0045 ( 34516 PWs)   bands (ev):

   -24.0305 -24.0262 -24.0069 -24.0034 -23.7612 -23.7597 -23.7490 -23.7482
   -19.2645 -19.2640 -19.2534 -19.2532 -18.9584 -18.9581 -18.9448 -18.9442
   -18.3360 -18.3258 -17.2949 -17.2760 -17.1514 -17.1511 -16.1222 -16.1158
   -12.2006 -12.2001 -12.0935 -12.0557 -11.9244 -11.9053 -11.8699 -11.8667
    -8.9401  -8.9073  -8.3586  -8.3560  -7.6360  -7.6319  -7.5969  -7.5551
    -7.0577  -7.0228  -6.6597  -6.6488  -6.5404  -6.5373  -6.4275  -6.4139
    -6.2186  -6.2120  -6.0546  -6.0361  -5.9296  -5.9151  -5.8497  -5.8432
    -5.7156  -5.7050  -5.6212  -5.6165  -5.1865  -5.1766  -4.9753  -4.9716
    -4.5343  -4.5188  -4.4504  -4.4283  -4.1275  -4.1159  -3.8607  -3.8586
    -3.7749  -3.7571  -3.7386  -3.7114  -3.2454  -3.2313  -3.1402  -3.1349
    -0.7539  -0.7346  -0.3514  -0.3462  -0.2982  -0.2764  -0.2620  -0.2433
    -0.1483  -0.1283   0.0193   0.0452   0.1375   0.1560   0.2618   0.2804
     0.5274   0.5624   0.6278   0.6508   0.7072   0.7352   0.8103   0.8167
     0.8811   0.8905   0.9709   1.0082   1.2374   1.2389   1.2729   1.2805

     occupation numbers 
     1.0000   1.0000   1.0000   1.0000   1.0000   1.0000   1.0000   1.0000
     1.0000   1.0000   1.0000   1.0000   1.0000   1.0000   1.0000   1.0000
     1.0000   1.0000   1.0000   1.0000   1.0000   1.0000   1.0000   1.0000
     1.0000   1.0000   1.0000   1.0000   1.0000   1.0000   1.0000   1.0000
     1.0000   1.0000   1.0000   1.0000   1.0000   1.0000   1.0000   1.0000
     1.0000   1.0000   1.0000   1.0000   1.0000   1.0000   1.0000   1.0000
     1.0000   1.0000   1.0000   1.0000   1.0000   1.0000   1.0000   1.0000
     1.0000   1.0000   1.0000   1.0000   1.0000   1.0000   1.0000   1.0000
     1.0000   1.0000   1.0000   1.0000   1.0000   1.0000   1.0000   1.0000
     1.0000   1.0000   1.0000   1.0000   1.0000   1.0000   1.0000   1.0000
     1.0000   1.0000   1.0000   1.0000   1.0000   1.0000   1.0000   1.0000
     1.0000   1.0000   1.0000   1.0000   1.0000   1.0000   1.0000   1.0000
     1.0000   1.0000   1.0000   1.0000   1.0000   1.0000   1.0000   1.0000
     1.0000   1.0000   1.0000   1.0000   1.0000   1.0000   1.0000   1.0000

     highest occupied level (ev):     1.3323

!    total energy              =   -1281.97165515 Ry
     Harris-Foulkes estimate   =   -1281.97165520 Ry
     estimated scf accuracy    <       0.00000007 Ry

     total all-electron energy =     -4786.415403 Ry

     The total energy is the sum of the following terms:

     one-electron contribution =    -654.39738315 Ry
     hartree contribution      =     424.86927242 Ry
     xc contribution           =    -260.40923687 Ry
     ewald contribution        =    -461.63880349 Ry
     one-center paw contrib.   =    -330.39550405 Ry

     convergence has been achieved in  19 iterations

     Writing output data file scf.pbe-ec-70-kp444.HMX-792830-nofor.nostress.save

     init_run     :    231.69s CPU    321.11s WALL (       1 calls)
     electrons    :   7037.15s CPU   7796.09s WALL (       1 calls)

     Called by init_run:
     wfcinit      :    163.77s CPU    227.88s WALL (       1 calls)
     potinit      :     22.28s CPU     31.23s WALL (       1 calls)

     Called by electrons:
     c_bands      :   5874.89s CPU   6482.70s WALL (      19 calls)
     sum_band     :   1044.46s CPU   1173.13s WALL (      19 calls)
     v_of_rho     :     27.07s CPU     30.14s WALL (      20 calls)
     v_h          :      2.54s CPU      3.00s WALL (      20 calls)
     v_xc         :     24.53s CPU     27.14s WALL (      20 calls)
     newd         :     72.72s CPU     93.15s WALL (      20 calls)
     PAW_pot      :     13.47s CPU     15.11s WALL (      20 calls)
     mix_rho      :      6.33s CPU      6.51s WALL (      19 calls)

     Called by c_bands:
     init_us_2    :     47.21s CPU     48.17s WALL (     624 calls)
     cegterg      :   5813.44s CPU   6406.68s WALL (     304 calls)

     Called by sum_band:
     sum_band:bec :      0.28s CPU      0.30s WALL (     304 calls)
     addusdens    :    125.65s CPU    190.41s WALL (      19 calls)

     Called by *egterg:
     h_psi        :   3379.50s CPU   3708.91s WALL (    1410 calls)
     s_psi        :    644.04s CPU    684.04s WALL (    1410 calls)
     g_psi        :      4.93s CPU      6.38s WALL (    1090 calls)
     cdiaghg      :    322.53s CPU    331.92s WALL (    1394 calls)
     cegterg:over :    675.15s CPU    801.35s WALL (    1090 calls)
     cegterg:upda :    383.06s CPU    397.01s WALL (    1090 calls)
     cegterg:last :    198.44s CPU    218.08s WALL (     304 calls)

     Called by h_psi:
     h_psi:vloc   :   2059.27s CPU   2247.99s WALL (    1410 calls)
     h_psi:vnl    :   1297.61s CPU   1437.54s WALL (    1410 calls)
     add_vuspsi   :    643.12s CPU    701.33s WALL (    1410 calls)

     General routines
     calbec       :    879.45s CPU    983.82s WALL (    1714 calls)
     fft          :     29.05s CPU     37.25s WALL (     316 calls)
     ffts         :      0.45s CPU      0.64s WALL (      39 calls)
     fftw         :   1402.30s CPU   1606.56s WALL (  226762 calls)
     interpolate  :      4.84s CPU      5.48s WALL (      39 calls)
     davcio       :      0.61s CPU     26.12s WALL (      16 calls)

     Parallel routines
     fft_scatter  :    727.66s CPU    933.58s WALL (  227117 calls)

     PAW routines
     PAW_pot      :     13.47s CPU     15.11s WALL (      20 calls)
     PAW_symme    :      0.02s CPU      0.04s WALL (      39 calls)

     PWSCF        :     2h 1m CPU        2h15m WALL


   This run was terminated on:  19:38:25  23May2016            

=------------------------------------------------------------------------------=
   JOB DONE.
=------------------------------------------------------------------------------=
