
     Program PWSCF v.5.3.0 (svn rev. 11974) starts on 23May2016 at 17:14:11 

     This program is part of the open-source Quantum ESPRESSO suite
     for quantum simulation of materials; please cite
         "P. Giannozzi et al., J. Phys.:Condens. Matter 21 395502 (2009);
          URL http://www.quantum-espresso.org", 
     in publications or presentations arising from this work. More details at
     http://www.quantum-espresso.org/quote

     Parallel version (MPI), running on     8 processors
     R & G space division:  proc/nbgrp/npool/nimage =       8
     Waiting for input...
     Reading input from standard input
Warning: card    &IONS ignored
Warning: card TRUST_RADIUS_MAX=0.2 ignored
Warning: card / ignored
Warning: card     &CELL ignored
Warning: card CELL_DYNAMICS='BFGS' ignored
Warning: card / ignored

     Current dimensions of program PWSCF are:
     Max number of different atomic species (ntypx) = 10
     Max number of k-points (npk) =  40000
     Max angular momentum in pseudopotentials (lmaxx) =  3
               file N.pbe-n-kjpaw_psl.1.0.0.UPF: wavefunction(s)  2S renormalized
               file C.pbe-n-kjpaw_psl.1.0.0.UPF: wavefunction(s)  2S 2P renormalized
               file H.pbe-kjpaw_psl.1.0.0.UPF: wavefunction(s)  1S renormalized
               file O.pbe-n-kjpaw_psl.1.0.0.UPF: wavefunction(s)  2S 2P renormalized

     Subspace diagonalization in iterative solution of the eigenvalue problem:
     a serial algorithm will be used


     Parallelization info
     --------------------
     sticks:   dense  smooth     PW     G-vecs:    dense   smooth      PW
     Min        2035     813    218               165532    41853    5799
     Max        2036     814    219               165534    41889    5801
     Sum       16281    6509   1749              1324263   334983   46395


     Title: 
     HMX-scf-pbe-n-kjpaw-kp242-ec-80-nofor-nostress-conv-em4                    


     bravais-lattice index     =            0
     lattice parameter (alat)  =       1.8897  a.u.
     unit-cell volume          =    3465.5049 (a.u.)^3
     number of atoms/cell      =           56
     number of atomic types    =            4
     number of electrons       =       224.00
     number of Kohn-Sham states=          112
     kinetic-energy cutoff     =      80.0000  Ry
     charge density cutoff     =     800.0000  Ry
     convergence threshold     =      1.0E-06
     mixing beta               =       0.7000
     number of iterations used =            8  plain     mixing
     Exchange-correlation      =  SLA  PW   PBX  PBC ( 1  4  3  4 0 0)

     celldm(1)=   1.889726  celldm(2)=   0.000000  celldm(3)=   0.000000
     celldm(4)=   0.000000  celldm(5)=   0.000000  celldm(6)=   0.000000

     crystal axes: (cart. coord. in units of alat)
               a(1) = (   6.525400   0.000000   0.000000 )  
               a(2) = (   0.000000  10.970200   0.000000 )  
               a(3) = (  -1.601165   0.000000   7.173784 )  

     reciprocal axes: (cart. coord. in units 2 pi/alat)
               b(1) = (  0.153247 -0.000000  0.034204 )  
               b(2) = (  0.000000  0.091156 -0.000000 )  
               b(3) = (  0.000000  0.000000  0.139396 )  


     PseudoPot. # 1 for  N read from file:
     /users/majewski/.data/PSEUDOPOTENTIALS/N.pbe-n-kjpaw_psl.1.0.0.UPF
     MD5 check sum: c21df8f53e59d08c3548513d559cdda6
     Pseudo is Projector augmented-wave + core cor, Zval =  5.0
     Generated using "atomic" code by A. Dal Corso  v.5.3.0 svn rev. 11974
     Shape of augmentation charge: PSQ
     Using radial grid of 1085 points,  4 beta functions with: 
                l(1) =   0
                l(2) =   0
                l(3) =   1
                l(4) =   1
     Q(r) pseudized with 0 coefficients 


     PseudoPot. # 2 for  C read from file:
     /users/majewski/.data/PSEUDOPOTENTIALS/C.pbe-n-kjpaw_psl.1.0.0.UPF
     MD5 check sum: 2ba8448e293caca687844dde9a1b88a8
     Pseudo is Projector augmented-wave + core cor, Zval =  4.0
     Generated using "atomic" code by A. Dal Corso  v.5.3.0 svn rev. 11974
     Shape of augmentation charge: PSQ
     Using radial grid of 1073 points,  4 beta functions with: 
                l(1) =   0
                l(2) =   0
                l(3) =   1
                l(4) =   1
     Q(r) pseudized with 0 coefficients 


     PseudoPot. # 3 for  H read from file:
     /users/majewski/.data/PSEUDOPOTENTIALS/H.pbe-kjpaw_psl.1.0.0.UPF
     MD5 check sum: bc0feb48a24907a0b97fa6ee2d589a29
     Pseudo is Projector augmented-wave, Zval =  1.0
     Generated using "atomic" code by A. Dal Corso  v.5.3.0 svn rev. 11974
     Shape of augmentation charge: PSQ
     Using radial grid of  929 points,  2 beta functions with: 
                l(1) =   0
                l(2) =   0
     Q(r) pseudized with 0 coefficients 


     PseudoPot. # 4 for  O read from file:
     /users/majewski/.data/PSEUDOPOTENTIALS/O.pbe-n-kjpaw_psl.1.0.0.UPF
     MD5 check sum: 9c0ade6c043cf4a781bde3908a3a8206
     Pseudo is Projector augmented-wave + core cor, Zval =  6.0
     Generated using "atomic" code by A. Dal Corso  v.5.3.0 svn rev. 11974
     Shape of augmentation charge: PSQ
     Using radial grid of 1095 points,  4 beta functions with: 
                l(1) =   0
                l(2) =   0
                l(3) =   1
                l(4) =   1
     Q(r) pseudized with 0 coefficients 


     atomic species   valence    mass     pseudopotential
        N              5.00    14.00670      N( 1.00)
        C              4.00    12.01100      C( 1.00)
        H              1.00     1.00790      H( 1.00)
        O              6.00    15.99940      O( 1.00)

      2 Sym. Ops., with inversion, found
          (note:  2 additional sym.ops. were found but ignored
           their fractional translations are incommensurate with FFT grid)

                                    s                        frac. trans.

      isym =  1     identity                                     

 cryst.   s( 1) = (     1          0          0      )
                  (     0          1          0      )
                  (     0          0          1      )

 cart.    s( 1) = (  1.0000000  0.0000000  0.0000000 )
                  (  0.0000000  1.0000000  0.0000000 )
                  (  0.0000000  0.0000000  1.0000000 )


      isym =  2     inversion                                    

 cryst.   s( 2) = (    -1          0          0      )
                  (     0         -1          0      )
                  (     0          0         -1      )

 cart.    s( 2) = ( -1.0000000  0.0000000  0.0000000 )
                  (  0.0000000 -1.0000000  0.0000000 )
                  (  0.0000000  0.0000000 -1.0000000 )


   Cartesian axes

     site n.     atom                  positions (alat units)
         1           N   tau(   1) = (  -0.8600534   6.8323503   3.3057516  )
         2           O   tau(   2) = (   1.0740307   7.8956917   3.1284874  )
         3           N   tau(   3) = (   0.0641502   7.7134767   3.8085621  )
         4           N   tau(   4) = (  -2.0611165   5.7640722   5.0625396  )
         5           O   tau(   5) = (  -3.2546734   4.7030344   6.6181748  )
         6           N   tau(   6) = (  -3.2420076   5.5007874   5.6931153  )
         7           O   tau(   7) = (  -0.1744868   8.2015409   4.9011295  )
         8           C   tau(   8) = (  -2.1308106   6.7490864   3.9685375  )
         9           H   tau(   9) = (  -2.8209601   6.4811942   3.3272012  )
        10           H   tau(  10) = (  -2.3726867   7.6275801   4.3300962  )
        11           O   tau(  11) = (  -4.2139476   6.1474807   5.2942529  )
        12           C   tau(  12) = (  -0.5939543   6.2077071   2.0208551  )
        13           H   tau(  13) = (  -1.4110814   5.7834894   1.7145345  )
        14           H   tau(  14) = (  -0.3209154   6.8519869   1.3501062  )
        15           H   tau(  15) = (   2.1412023  -1.3668869   4.9369984  )
        16           H   tau(  16) = (   1.0510363  -0.2983894   5.3014266  )
        17           C   tau(  17) = (   1.8681633  -0.7226071   5.6077472  )
        18           O   tau(  18) = (  -1.7518299  -0.6623807   8.8811450  )
        19           H   tau(  19) = (   0.0894310  -2.1424801   7.9169884  )
        20           H   tau(  20) = (  -0.3588424  -0.9960942   6.9140934  )
        21           C   tau(  21) = (   0.3313071  -1.2639864   7.5554297  )
        22           O   tau(  22) = (   2.2876309  -2.7164409   8.4880216  )
        23           N   tau(  23) = (  -0.7798899  -0.0156874   9.2800074  )
        24           O   tau(  24) = (  -0.7925557   0.7820656  10.2050669  )
        25           N   tau(  25) = (   0.4010012  -0.2789722   8.6494318  )
        26           N   tau(  26) = (   2.5262679  -2.2283767   7.3954543  )
        27           O   tau(  27) = (   3.5361484  -2.4105917   6.7153795  )
        28           N   tau(  28) = (   1.6020643  -1.3472503   6.8926437  )
        29           H   tau(  29) = (  -1.2802493   4.1182131   5.8236781  )
        30           H   tau(  30) = (  -0.1900832   5.1867106   5.4592499  )
        31           C   tau(  31) = (  -1.0072103   4.7624929   5.1529293  )
        32           O   tau(  32) = (   2.6127830   4.8227193   1.8795315  )
        33           H   tau(  33) = (   0.7715220   3.3426199   2.8436881  )
        34           H   tau(  34) = (   1.2197954   4.4890058   3.8465832  )
        35           C   tau(  35) = (   0.5296460   4.2211136   3.2052468  )
        36           O   tau(  36) = (  -1.4266778   2.7686591   2.2726549  )
        37           N   tau(  37) = (   1.6408430   5.4694126   1.4806691  )
        38           O   tau(  38) = (   1.6535088   6.2671656   0.5556096  )
        39           N   tau(  39) = (   0.4599518   5.2061278   2.1112447  )
        40           N   tau(  40) = (  -1.6653149   3.2567233   3.3652222  )
        41           O   tau(  41) = (  -2.6751954   3.0745083   4.0452970  )
        42           N   tau(  42) = (  -0.7411112   4.1378497   3.8680328  )
        43           H   tau(  43) = (   1.1818684   1.3668869   9.4105703  )
        44           H   tau(  44) = (   2.2720344   0.2983894   9.0461421  )
        45           C   tau(  45) = (   1.4549074   0.7226071   8.7398215  )
        46           O   tau(  46) = (   5.0749007   0.6623807   5.4664237  )
        47           H   tau(  47) = (   3.2336397   2.1424801   6.4305803  )
        48           H   tau(  48) = (   3.6819131   0.9960942   7.4334753  )
        49           C   tau(  49) = (   2.9917636   1.2639864   6.7921390  )
        50           O   tau(  50) = (   1.0354399   2.7164409   5.8595471  )
        51           N   tau(  51) = (   4.1029606   0.0156874   5.0675613  )
        52           O   tau(  52) = (   4.1156264  -0.7820656   4.1425018  )
        53           N   tau(  53) = (   2.9220695   0.2789722   5.6981369  )
        54           N   tau(  54) = (   0.7968028   2.2283767   6.9521144  )
        55           O   tau(  55) = (  -0.2130777   2.4105917   7.6321892  )
        56           N   tau(  56) = (   1.7210065   1.3472503   7.4549250  )

   Crystallographic axes

     site n.     atom                  positions (cryst. coord.)
         1           N   tau(   1) = ( -0.0187300  0.6228100  0.4608100  )
         2           O   tau(   2) = (  0.2716000  0.7197400  0.4361000  )
         3           N   tau(   3) = (  0.1401000  0.7031300  0.5309000  )
         4           N   tau(   4) = ( -0.1427000  0.5254300  0.7057000  )
         5           O   tau(   5) = ( -0.2724000  0.4287100  0.9225500  )
         6           N   tau(   6) = ( -0.3021000  0.5014300  0.7936000  )
         7           O   tau(   7) = (  0.1409000  0.7476200  0.6832000  )
         8           C   tau(   8) = ( -0.1908000  0.6152200  0.5532000  )
         9           H   tau(   9) = ( -0.3185000  0.5908000  0.4638000  )
        10           H   tau(  10) = ( -0.2155000  0.6953000  0.6036000  )
        11           O   tau(  11) = ( -0.4646900  0.5603800  0.7380000  )
        12           C   tau(  12) = ( -0.0219000  0.5658700  0.2817000  )
        13           H   tau(  13) = ( -0.1576000  0.5272000  0.2390000  )
        14           H   tau(  14) = ( -0.0030000  0.6246000  0.1882000  )
        15           H   tau(  15) = (  0.4970000 -0.1246000  0.6882000  )
        16           H   tau(  16) = (  0.3424000 -0.0272000  0.7390000  )
        17           C   tau(  17) = (  0.4781000 -0.0658700  0.7817000  )
        18           O   tau(  18) = (  0.0353100 -0.0603800  1.2380000  )
        19           H   tau(  19) = (  0.2845000 -0.1953000  1.1036000  )
        20           H   tau(  20) = (  0.1815000 -0.0908000  0.9638000  )
        21           C   tau(  21) = (  0.3092000 -0.1152200  1.0532000  )
        22           O   tau(  22) = (  0.6409000 -0.2476200  1.1832000  )
        23           N   tau(  23) = (  0.1979000 -0.0014300  1.2936000  )
        24           O   tau(  24) = (  0.2276000  0.0712900  1.4225500  )
        25           N   tau(  25) = (  0.3573000 -0.0254300  1.2057000  )
        26           N   tau(  26) = (  0.6401000 -0.2031300  1.0309000  )
        27           O   tau(  27) = (  0.7716000 -0.2197400  0.9361000  )
        28           N   tau(  28) = (  0.4812700 -0.1228100  0.9608100  )
        29           H   tau(  29) = (  0.0030000  0.3754000  0.8118000  )
        30           H   tau(  30) = (  0.1576000  0.4728000  0.7610000  )
        31           C   tau(  31) = (  0.0219000  0.4341300  0.7183000  )
        32           O   tau(  32) = (  0.4646900  0.4396200  0.2620000  )
        33           H   tau(  33) = (  0.2155000  0.3047000  0.3964000  )
        34           H   tau(  34) = (  0.3185000  0.4092000  0.5362000  )
        35           C   tau(  35) = (  0.1908000  0.3847800  0.4468000  )
        36           O   tau(  36) = ( -0.1409000  0.2523800  0.3168000  )
        37           N   tau(  37) = (  0.3021000  0.4985700  0.2064000  )
        38           O   tau(  38) = (  0.2724000  0.5712900  0.0774500  )
        39           N   tau(  39) = (  0.1427000  0.4745700  0.2943000  )
        40           N   tau(  40) = ( -0.1401000  0.2968700  0.4691000  )
        41           O   tau(  41) = ( -0.2716000  0.2802600  0.5639000  )
        42           N   tau(  42) = (  0.0187300  0.3771900  0.5391900  )
        43           H   tau(  43) = (  0.5030000  0.1246000  1.3118000  )
        44           H   tau(  44) = (  0.6576000  0.0272000  1.2610000  )
        45           C   tau(  45) = (  0.5219000  0.0658700  1.2183000  )
        46           O   tau(  46) = (  0.9646900  0.0603800  0.7620000  )
        47           H   tau(  47) = (  0.7155000  0.1953000  0.8964000  )
        48           H   tau(  48) = (  0.8185000  0.0908000  1.0362000  )
        49           C   tau(  49) = (  0.6908000  0.1152200  0.9468000  )
        50           O   tau(  50) = (  0.3591000  0.2476200  0.8168000  )
        51           N   tau(  51) = (  0.8021000  0.0014300  0.7064000  )
        52           O   tau(  52) = (  0.7724000 -0.0712900  0.5774500  )
        53           N   tau(  53) = (  0.6427000  0.0254300  0.7943000  )
        54           N   tau(  54) = (  0.3599000  0.2031300  0.9691000  )
        55           O   tau(  55) = (  0.2284000  0.2197400  1.0639000  )
        56           N   tau(  56) = (  0.5187300  0.1228100  1.0391900  )

     number of k points=    32
                       cart. coord. in units 2pi/alat
        k(    1) = (   0.0191559   0.0113945   0.0217001), wk =   0.0625000
        k(    2) = (   0.0191559   0.0113945   0.0565492), wk =   0.0625000
        k(    3) = (   0.0191559   0.0113945  -0.0479981), wk =   0.0625000
        k(    4) = (   0.0191559   0.0113945  -0.0131490), wk =   0.0625000
        k(    5) = (   0.0191559   0.0341835   0.0217001), wk =   0.0625000
        k(    6) = (   0.0191559   0.0341835   0.0565492), wk =   0.0625000
        k(    7) = (   0.0191559   0.0341835  -0.0479981), wk =   0.0625000
        k(    8) = (   0.0191559   0.0341835  -0.0131490), wk =   0.0625000
        k(    9) = (   0.0574677   0.0113945   0.0302512), wk =   0.0625000
        k(   10) = (   0.0574677   0.0113945   0.0651003), wk =   0.0625000
        k(   11) = (   0.0574677   0.0113945  -0.0394471), wk =   0.0625000
        k(   12) = (   0.0574677   0.0113945  -0.0045979), wk =   0.0625000
        k(   13) = (   0.0574677   0.0341835   0.0302512), wk =   0.0625000
        k(   14) = (   0.0574677   0.0341835   0.0651003), wk =   0.0625000
        k(   15) = (   0.0574677   0.0341835  -0.0394471), wk =   0.0625000
        k(   16) = (   0.0574677   0.0341835  -0.0045979), wk =   0.0625000
        k(   17) = (  -0.0191559   0.0113945  -0.0217001), wk =   0.0625000
        k(   18) = (  -0.0191559   0.0113945  -0.0565492), wk =   0.0625000
        k(   19) = (  -0.0191559   0.0113945   0.0479981), wk =   0.0625000
        k(   20) = (  -0.0191559   0.0113945   0.0131490), wk =   0.0625000
        k(   21) = (  -0.0191559   0.0341835  -0.0217001), wk =   0.0625000
        k(   22) = (  -0.0191559   0.0341835  -0.0565492), wk =   0.0625000
        k(   23) = (  -0.0191559   0.0341835   0.0479981), wk =   0.0625000
        k(   24) = (  -0.0191559   0.0341835   0.0131490), wk =   0.0625000
        k(   25) = (  -0.0574677   0.0113945  -0.0302512), wk =   0.0625000
        k(   26) = (  -0.0574677   0.0113945  -0.0651003), wk =   0.0625000
        k(   27) = (  -0.0574677   0.0113945   0.0394471), wk =   0.0625000
        k(   28) = (  -0.0574677   0.0113945   0.0045979), wk =   0.0625000
        k(   29) = (  -0.0574677   0.0341835  -0.0302512), wk =   0.0625000
        k(   30) = (  -0.0574677   0.0341835  -0.0651003), wk =   0.0625000
        k(   31) = (  -0.0574677   0.0341835   0.0394471), wk =   0.0625000
        k(   32) = (  -0.0574677   0.0341835   0.0045979), wk =   0.0625000

                       cryst. coord.
        k(    1) = (   0.1250000   0.1250000   0.1250000), wk =   0.0625000
        k(    2) = (   0.1250000   0.1250000   0.3750000), wk =   0.0625000
        k(    3) = (   0.1250000   0.1250000  -0.3750000), wk =   0.0625000
        k(    4) = (   0.1250000   0.1250000  -0.1250000), wk =   0.0625000
        k(    5) = (   0.1250000   0.3750000   0.1250000), wk =   0.0625000
        k(    6) = (   0.1250000   0.3750000   0.3750000), wk =   0.0625000
        k(    7) = (   0.1250000   0.3750000  -0.3750000), wk =   0.0625000
        k(    8) = (   0.1250000   0.3750000  -0.1250000), wk =   0.0625000
        k(    9) = (   0.3750000   0.1250000   0.1250000), wk =   0.0625000
        k(   10) = (   0.3750000   0.1250000   0.3750000), wk =   0.0625000
        k(   11) = (   0.3750000   0.1250000  -0.3750000), wk =   0.0625000
        k(   12) = (   0.3750000   0.1250000  -0.1250000), wk =   0.0625000
        k(   13) = (   0.3750000   0.3750000   0.1250000), wk =   0.0625000
        k(   14) = (   0.3750000   0.3750000   0.3750000), wk =   0.0625000
        k(   15) = (   0.3750000   0.3750000  -0.3750000), wk =   0.0625000
        k(   16) = (   0.3750000   0.3750000  -0.1250000), wk =   0.0625000
        k(   17) = (  -0.1250000   0.1250000  -0.1250000), wk =   0.0625000
        k(   18) = (  -0.1250000   0.1250000  -0.3750000), wk =   0.0625000
        k(   19) = (  -0.1250000   0.1250000   0.3750000), wk =   0.0625000
        k(   20) = (  -0.1250000   0.1250000   0.1250000), wk =   0.0625000
        k(   21) = (  -0.1250000   0.3750000  -0.1250000), wk =   0.0625000
        k(   22) = (  -0.1250000   0.3750000  -0.3750000), wk =   0.0625000
        k(   23) = (  -0.1250000   0.3750000   0.3750000), wk =   0.0625000
        k(   24) = (  -0.1250000   0.3750000   0.1250000), wk =   0.0625000
        k(   25) = (  -0.3750000   0.1250000  -0.1250000), wk =   0.0625000
        k(   26) = (  -0.3750000   0.1250000  -0.3750000), wk =   0.0625000
        k(   27) = (  -0.3750000   0.1250000   0.3750000), wk =   0.0625000
        k(   28) = (  -0.3750000   0.1250000   0.1250000), wk =   0.0625000
        k(   29) = (  -0.3750000   0.3750000  -0.1250000), wk =   0.0625000
        k(   30) = (  -0.3750000   0.3750000  -0.3750000), wk =   0.0625000
        k(   31) = (  -0.3750000   0.3750000   0.3750000), wk =   0.0625000
        k(   32) = (  -0.3750000   0.3750000   0.1250000), wk =   0.0625000

     Dense  grid:  1324263 G-vectors     FFT dimensions: ( 120, 192, 125)

     Smooth grid:   334983 G-vectors     FFT dimensions: (  72, 120,  80)

     Largest allocated arrays     est. size (Mb)     dimensions
        Kohn-Sham Wavefunctions         8.99 Mb     (    5261,  112)
        NL pseudopotentials            28.26 Mb     (    5261,  352)
        Each V/rho on FFT grid          5.63 Mb     (  368640)
        Each G-vector array             1.26 Mb     (  165533)
        G-vector shells                 1.16 Mb     (  151523)
     Largest temporary arrays     est. size (Mb)     dimensions
        Auxiliary wavefunctions        35.96 Mb     (    5261,  448)
        Each subspace H/S matrix        3.06 Mb     (     448,  448)
        Each <psi_i|beta_j> matrix      0.60 Mb     (     352,  112)
        Arrays for rho mixing          45.00 Mb     (  368640,    8)

     Initial potential from superposition of free atoms

     starting charge  223.99937, renormalised to  224.00000
     Starting wfc are  176 randomized atomic wfcs
     Checking if some PAW data can be deallocated... 
       node    0, deallocated PAW data for type:  2
       node    0, deallocated PAW data for type:  3
       node    1, deallocated PAW data for type:  1
       node    2, deallocated PAW data for type:  1
       node    3, deallocated PAW data for type:  2
       node    3, deallocated PAW data for type:  3
       node    4, deallocated PAW data for type:  1
       node    5, deallocated PAW data for type:  2
       node    5, deallocated PAW data for type:  3
       node    6, deallocated PAW data for type:  1
       node    7, deallocated PAW data for type:  2
       node    7, deallocated PAW data for type:  3

     total cpu time spent up to now is      458.3 secs

     per-process dynamical memory:   435.3 Mb

     Self-consistent Calculation

     iteration #  1     ecut=    80.00 Ry     beta=0.70
     Davidson diagonalization with overlap
     ethr =  1.00E-02,  avg # of iterations =  3.0

     total cpu time spent up to now is     1554.3 secs

     total energy              =   -1279.62933320 Ry
     Harris-Foulkes estimate   =   -1283.96874059 Ry
     estimated scf accuracy    <       6.68401727 Ry

     iteration #  2     ecut=    80.00 Ry     beta=0.70
     Davidson diagonalization with overlap
     ethr =  2.98E-03,  avg # of iterations =  4.0

     total cpu time spent up to now is     2816.3 secs

     total energy              =   -1280.30419111 Ry
     Harris-Foulkes estimate   =   -1283.80855679 Ry
     estimated scf accuracy    <       7.07372552 Ry

     iteration #  3     ecut=    80.00 Ry     beta=0.70
     Davidson diagonalization with overlap
     ethr =  2.98E-03,  avg # of iterations =  4.5

     total cpu time spent up to now is     3746.2 secs

     total energy              =   -1281.82185150 Ry
     Harris-Foulkes estimate   =   -1282.05085684 Ry
     estimated scf accuracy    <       0.42520394 Ry

     iteration #  4     ecut=    80.00 Ry     beta=0.70
     Davidson diagonalization with overlap
     ethr =  1.90E-04,  avg # of iterations =  4.8

     total cpu time spent up to now is     4946.5 secs

     total energy              =   -1281.96790887 Ry
     Harris-Foulkes estimate   =   -1282.05477355 Ry
     estimated scf accuracy    <       0.19126933 Ry

     iteration #  5     ecut=    80.00 Ry     beta=0.70
     Davidson diagonalization with overlap
     ethr =  8.54E-05,  avg # of iterations =  4.0

     total cpu time spent up to now is     5919.4 secs

     total energy              =   -1282.00721941 Ry
     Harris-Foulkes estimate   =   -1282.01577638 Ry
     estimated scf accuracy    <       0.02110677 Ry

     iteration #  6     ecut=    80.00 Ry     beta=0.70
     Davidson diagonalization with overlap
     ethr =  9.42E-06,  avg # of iterations =  6.0

     total cpu time spent up to now is     6714.6 secs

     total energy              =   -1282.00933234 Ry
     Harris-Foulkes estimate   =   -1282.01065653 Ry
     estimated scf accuracy    <       0.00337660 Ry

     iteration #  7     ecut=    80.00 Ry     beta=0.70
     Davidson diagonalization with overlap
     ethr =  1.51E-06,  avg # of iterations =  4.6

     total cpu time spent up to now is     8006.8 secs

     total energy              =   -1282.01158724 Ry
     Harris-Foulkes estimate   =   -1282.01248450 Ry
     estimated scf accuracy    <       0.00300105 Ry

     iteration #  8     ecut=    80.00 Ry     beta=0.70
     Davidson diagonalization with overlap
     ethr =  1.34E-06,  avg # of iterations =  1.0

     total cpu time spent up to now is     8663.6 secs

     total energy              =   -1282.01082510 Ry
     Harris-Foulkes estimate   =   -1282.01164789 Ry
     estimated scf accuracy    <       0.00156887 Ry

     iteration #  9     ecut=    80.00 Ry     beta=0.70
     Davidson diagonalization with overlap
     ethr =  7.00E-07,  avg # of iterations =  5.0

     total cpu time spent up to now is     9896.9 secs

     total energy              =   -1282.01193085 Ry
     Harris-Foulkes estimate   =   -1282.01278208 Ry
     estimated scf accuracy    <       0.00457866 Ry

     iteration # 10     ecut=    80.00 Ry     beta=0.70
     Davidson diagonalization with overlap
     ethr =  7.00E-07,  avg # of iterations =  1.0

     total cpu time spent up to now is    10557.1 secs

     total energy              =   -1282.01082392 Ry
     Harris-Foulkes estimate   =   -1282.01195593 Ry
     estimated scf accuracy    <       0.00320499 Ry

     iteration # 11     ecut=    80.00 Ry     beta=0.70
     Davidson diagonalization with overlap
     ethr =  7.00E-07,  avg # of iterations =  5.0

     total cpu time spent up to now is    11603.8 secs

     total energy              =   -1282.01185612 Ry
     Harris-Foulkes estimate   =   -1282.01202993 Ry
     estimated scf accuracy    <       0.00066574 Ry

     iteration # 12     ecut=    80.00 Ry     beta=0.70
     Davidson diagonalization with overlap
     ethr =  2.97E-07,  avg # of iterations =  1.0

     total cpu time spent up to now is    12264.3 secs

     total energy              =   -1282.01170419 Ry
     Harris-Foulkes estimate   =   -1282.01186527 Ry
     estimated scf accuracy    <       0.00038859 Ry

     iteration # 13     ecut=    80.00 Ry     beta=0.70
     Davidson diagonalization with overlap
     ethr =  1.73E-07,  avg # of iterations =  5.0

     total cpu time spent up to now is    13294.4 secs

     total energy              =   -1282.01190068 Ry
     Harris-Foulkes estimate   =   -1282.01196839 Ry
     estimated scf accuracy    <       0.00033387 Ry

     iteration # 14     ecut=    80.00 Ry     beta=0.70
     Davidson diagonalization with overlap
     ethr =  1.49E-07,  avg # of iterations =  1.0

     total cpu time spent up to now is    13960.2 secs

     total energy              =   -1282.01185111 Ry
     Harris-Foulkes estimate   =   -1282.01190297 Ry
     estimated scf accuracy    <       0.00022581 Ry

     iteration # 15     ecut=    80.00 Ry     beta=0.70
     Davidson diagonalization with overlap
     ethr =  1.01E-07,  avg # of iterations =  5.1

     total cpu time spent up to now is    14821.3 secs

     total energy              =   -1282.01190997 Ry
     Harris-Foulkes estimate   =   -1282.01190307 Ry
     estimated scf accuracy    <       0.00000188 Ry

     iteration # 16     ecut=    80.00 Ry     beta=0.70
     Davidson diagonalization with overlap
     ethr =  8.39E-10,  avg # of iterations =  5.0

     total cpu time spent up to now is    16489.5 secs

     total energy              =   -1282.01189855 Ry
     Harris-Foulkes estimate   =   -1282.01192544 Ry
     estimated scf accuracy    <       0.00010920 Ry

     iteration # 17     ecut=    80.00 Ry     beta=0.70
     Davidson diagonalization with overlap
     ethr =  8.39E-10,  avg # of iterations =  5.0

     total cpu time spent up to now is    17955.5 secs

     total energy              =   -1282.01190352 Ry
     Harris-Foulkes estimate   =   -1282.01190615 Ry
     estimated scf accuracy    <       0.00001167 Ry

     iteration # 18     ecut=    80.00 Ry     beta=0.70
     Davidson diagonalization with overlap
     ethr =  8.39E-10,  avg # of iterations =  5.0

     total cpu time spent up to now is    18909.6 secs

     total energy              =   -1282.01190395 Ry
     Harris-Foulkes estimate   =   -1282.01190433 Ry
     estimated scf accuracy    <       0.00000133 Ry

     iteration # 19     ecut=    80.00 Ry     beta=0.70
     Davidson diagonalization with overlap
     ethr =  5.96E-10,  avg # of iterations =  1.0

     total cpu time spent up to now is    19573.5 secs

     End of self-consistent calculation

          k = 0.0192 0.0114 0.0217 ( 41901 PWs)   bands (ev):

   -23.9415 -23.9184 -23.9065 -23.8968 -23.6491 -23.6399 -23.6390 -23.6356
   -19.1680 -19.1625 -19.1555 -19.1431 -18.8482 -18.8480 -18.8437 -18.8425
   -18.2517 -18.2264 -17.2299 -17.1795 -17.0677 -17.0655 -16.0503 -16.0370
   -12.1050 -12.1018 -12.0816 -11.9631 -11.9075 -11.8330 -11.7782 -11.7581
    -8.8863  -8.8471  -8.2874  -8.2507  -7.5711  -7.5297  -7.4464  -7.4451
    -6.8631  -6.7564  -6.6085  -6.5279  -6.5110  -6.4134  -6.3516  -6.2687
    -6.1359  -6.1062  -6.0762  -5.9578  -5.9036  -5.8195  -5.7556  -5.7156
    -5.6579  -5.6372  -5.5583  -5.5175  -5.1355  -5.0205  -4.9328  -4.9228
    -4.4657  -4.4562  -4.4240  -4.3833  -4.2307  -4.1294  -3.8582  -3.8535
    -3.6976  -3.5862  -3.5331  -3.4941  -3.1649  -3.1255  -3.0539  -3.0339
    -0.8022  -0.7969  -0.3132  -0.3107  -0.2131  -0.1604  -0.1002  -0.0812
    -0.0259   0.0024   0.1686   0.2021   0.2138   0.2426   0.3719   0.3895
     0.4408   0.4569   0.6322   0.6850   0.7691   0.8153   0.8635   0.8898
     0.9124   1.0262   1.0584   1.1247   1.2122   1.3456   1.3650   1.3887

     occupation numbers 
     1.0000   1.0000   1.0000   1.0000   1.0000   1.0000   1.0000   1.0000
     1.0000   1.0000   1.0000   1.0000   1.0000   1.0000   1.0000   1.0000
     1.0000   1.0000   1.0000   1.0000   1.0000   1.0000   1.0000   1.0000
     1.0000   1.0000   1.0000   1.0000   1.0000   1.0000   1.0000   1.0000
     1.0000   1.0000   1.0000   1.0000   1.0000   1.0000   1.0000   1.0000
     1.0000   1.0000   1.0000   1.0000   1.0000   1.0000   1.0000   1.0000
     1.0000   1.0000   1.0000   1.0000   1.0000   1.0000   1.0000   1.0000
     1.0000   1.0000   1.0000   1.0000   1.0000   1.0000   1.0000   1.0000
     1.0000   1.0000   1.0000   1.0000   1.0000   1.0000   1.0000   1.0000
     1.0000   1.0000   1.0000   1.0000   1.0000   1.0000   1.0000   1.0000
     1.0000   1.0000   1.0000   1.0000   1.0000   1.0000   1.0000   1.0000
     1.0000   1.0000   1.0000   1.0000   1.0000   1.0000   1.0000   1.0000
     1.0000   1.0000   1.0000   1.0000   1.0000   1.0000   1.0000   1.0000
     1.0000   1.0000   1.0000   1.0000   1.0000   1.0000   1.0000   1.0000

          k = 0.0192 0.0114 0.0565 ( 41879 PWs)   bands (ev):

   -23.9333 -23.9241 -23.9028 -23.9017 -23.6505 -23.6473 -23.6358 -23.6314
   -19.1661 -19.1613 -19.1564 -19.1468 -18.8543 -18.8535 -18.8388 -18.8372
   -18.2399 -18.2397 -17.2058 -17.2033 -17.0635 -17.0609 -16.0457 -16.0440
   -12.1138 -12.1121 -12.0277 -12.0075 -11.8646 -11.8548 -11.7862 -11.7777
    -8.8666  -8.8307  -8.2688  -8.2441  -7.5849  -7.5350  -7.4273  -7.3507
    -6.9099  -6.7832  -6.5946  -6.5621  -6.5504  -6.4344  -6.3755  -6.3471
    -6.1969  -6.1629  -5.9637  -5.9105  -5.8951  -5.8280  -5.8005  -5.7618
    -5.7147  -5.6599  -5.4775  -5.4333  -5.1388  -5.0587  -4.9297  -4.8929
    -4.4235  -4.4149  -4.3711  -4.2944  -4.1559  -4.1270  -3.9731  -3.9689
    -3.6825  -3.6337  -3.4720  -3.4614  -3.1880  -3.1839  -3.0367  -3.0119
    -0.7685  -0.7343  -0.3266  -0.3154  -0.2213  -0.1895  -0.1336  -0.1115
    -0.0803  -0.0393   0.0684   0.1299   0.2343   0.2858   0.3424   0.3537
     0.5472   0.6086   0.6531   0.6964   0.7734   0.7919   0.8245   0.8741
     0.9835   1.0234   1.0947   1.1194   1.2231   1.2937   1.3709   1.3951

     occupation numbers 
     1.0000   1.0000   1.0000   1.0000   1.0000   1.0000   1.0000   1.0000
     1.0000   1.0000   1.0000   1.0000   1.0000   1.0000   1.0000   1.0000
     1.0000   1.0000   1.0000   1.0000   1.0000   1.0000   1.0000   1.0000
     1.0000   1.0000   1.0000   1.0000   1.0000   1.0000   1.0000   1.0000
     1.0000   1.0000   1.0000   1.0000   1.0000   1.0000   1.0000   1.0000
     1.0000   1.0000   1.0000   1.0000   1.0000   1.0000   1.0000   1.0000
     1.0000   1.0000   1.0000   1.0000   1.0000   1.0000   1.0000   1.0000
     1.0000   1.0000   1.0000   1.0000   1.0000   1.0000   1.0000   1.0000
     1.0000   1.0000   1.0000   1.0000   1.0000   1.0000   1.0000   1.0000
     1.0000   1.0000   1.0000   1.0000   1.0000   1.0000   1.0000   1.0000
     1.0000   1.0000   1.0000   1.0000   1.0000   1.0000   1.0000   1.0000
     1.0000   1.0000   1.0000   1.0000   1.0000   1.0000   1.0000   1.0000
     1.0000   1.0000   1.0000   1.0000   1.0000   1.0000   1.0000   1.0000
     1.0000   1.0000   1.0000   1.0000   1.0000   1.0000   1.0000   1.0000

          k = 0.0192 0.0114-0.0480 ( 41877 PWs)   bands (ev):

   -23.9343 -23.9234 -23.9065 -23.8975 -23.6520 -23.6489 -23.6327 -23.6313
   -19.1638 -19.1620 -19.1531 -19.1517 -18.8559 -18.8552 -18.8370 -18.8355
   -18.2516 -18.2267 -17.2276 -17.1811 -17.0660 -17.0642 -16.0494 -16.0337
   -12.1236 -12.1108 -12.0619 -11.9739 -11.8952 -11.8197 -11.7897 -11.7764
    -8.8758  -8.7921  -8.2561  -8.2532  -7.5796  -7.5642  -7.4392  -7.3251
    -6.9185  -6.8093  -6.5942  -6.5610  -6.5110  -6.4857  -6.3905  -6.3546
    -6.2139  -6.1875  -5.9692  -5.9349  -5.8278  -5.7928  -5.7861  -5.7724
    -5.7148  -5.6460  -5.4797  -5.4282  -5.1329  -5.0592  -4.9160  -4.8870
    -4.4536  -4.3863  -4.3532  -4.2964  -4.1866  -4.1449  -3.9776  -3.9279
    -3.6883  -3.6360  -3.5255  -3.4433  -3.1941  -3.1721  -3.0301  -3.0200
    -0.7034  -0.6432  -0.3156  -0.3075  -0.2774  -0.2461  -0.1712  -0.1522
    -0.0916  -0.0871   0.0347   0.1163   0.2529   0.2883   0.2985   0.3486
     0.5887   0.6725   0.6920   0.7056   0.7411   0.8347   0.8446   0.8570
     0.9761   1.0302   1.1065   1.1629   1.2296   1.2559   1.3596   1.3798

     occupation numbers 
     1.0000   1.0000   1.0000   1.0000   1.0000   1.0000   1.0000   1.0000
     1.0000   1.0000   1.0000   1.0000   1.0000   1.0000   1.0000   1.0000
     1.0000   1.0000   1.0000   1.0000   1.0000   1.0000   1.0000   1.0000
     1.0000   1.0000   1.0000   1.0000   1.0000   1.0000   1.0000   1.0000
     1.0000   1.0000   1.0000   1.0000   1.0000   1.0000   1.0000   1.0000
     1.0000   1.0000   1.0000   1.0000   1.0000   1.0000   1.0000   1.0000
     1.0000   1.0000   1.0000   1.0000   1.0000   1.0000   1.0000   1.0000
     1.0000   1.0000   1.0000   1.0000   1.0000   1.0000   1.0000   1.0000
     1.0000   1.0000   1.0000   1.0000   1.0000   1.0000   1.0000   1.0000
     1.0000   1.0000   1.0000   1.0000   1.0000   1.0000   1.0000   1.0000
     1.0000   1.0000   1.0000   1.0000   1.0000   1.0000   1.0000   1.0000
     1.0000   1.0000   1.0000   1.0000   1.0000   1.0000   1.0000   1.0000
     1.0000   1.0000   1.0000   1.0000   1.0000   1.0000   1.0000   1.0000
     1.0000   1.0000   1.0000   1.0000   1.0000   1.0000   1.0000   1.0000

          k = 0.0192 0.0114-0.0131 ( 41911 PWs)   bands (ev):

   -23.9420 -23.9185 -23.9077 -23.8950 -23.6514 -23.6430 -23.6354 -23.6337
   -19.1669 -19.1612 -19.1558 -19.1453 -18.8519 -18.8514 -18.8395 -18.8395
   -18.2563 -18.2206 -17.2388 -17.1702 -17.0698 -17.0693 -16.0506 -16.0301
   -12.1193 -12.1025 -12.0871 -11.9619 -11.9074 -11.8222 -11.7761 -11.7587
    -8.8974  -8.8067  -8.2810  -8.2537  -7.5756  -7.5536  -7.4799  -7.3952
    -6.8310  -6.8159  -6.6053  -6.5154  -6.5089  -6.4600  -6.3586  -6.2856
    -6.1813  -6.1402  -6.0117  -5.9605  -5.8642  -5.8167  -5.7380  -5.7116
    -5.6726  -5.6257  -5.5307  -5.5218  -5.1024  -5.0570  -4.9294  -4.8930
    -4.4682  -4.4467  -4.4218  -4.3991  -4.2392  -4.1393  -3.8656  -3.8069
    -3.7326  -3.5953  -3.5458  -3.4929  -3.1708  -3.1213  -3.0467  -3.0401
    -0.7539  -0.7320  -0.3030  -0.2991  -0.2138  -0.1793  -0.1131  -0.0927
    -0.0822  -0.0442   0.0614   0.1210   0.1880   0.2651   0.3170   0.3820
     0.5610   0.5971   0.6247   0.7092   0.7589   0.8202   0.8766   0.8894
     0.9209   1.0048   1.0860   1.1530   1.2097   1.3258   1.3512   1.3762

     occupation numbers 
     1.0000   1.0000   1.0000   1.0000   1.0000   1.0000   1.0000   1.0000
     1.0000   1.0000   1.0000   1.0000   1.0000   1.0000   1.0000   1.0000
     1.0000   1.0000   1.0000   1.0000   1.0000   1.0000   1.0000   1.0000
     1.0000   1.0000   1.0000   1.0000   1.0000   1.0000   1.0000   1.0000
     1.0000   1.0000   1.0000   1.0000   1.0000   1.0000   1.0000   1.0000
     1.0000   1.0000   1.0000   1.0000   1.0000   1.0000   1.0000   1.0000
     1.0000   1.0000   1.0000   1.0000   1.0000   1.0000   1.0000   1.0000
     1.0000   1.0000   1.0000   1.0000   1.0000   1.0000   1.0000   1.0000
     1.0000   1.0000   1.0000   1.0000   1.0000   1.0000   1.0000   1.0000
     1.0000   1.0000   1.0000   1.0000   1.0000   1.0000   1.0000   1.0000
     1.0000   1.0000   1.0000   1.0000   1.0000   1.0000   1.0000   1.0000
     1.0000   1.0000   1.0000   1.0000   1.0000   1.0000   1.0000   1.0000
     1.0000   1.0000   1.0000   1.0000   1.0000   1.0000   1.0000   1.0000
     1.0000   1.0000   1.0000   1.0000   1.0000   1.0000   1.0000   1.0000

          k = 0.0192 0.0342 0.0217 ( 41863 PWs)   bands (ev):

   -23.9361 -23.9272 -23.9018 -23.8985 -23.6454 -23.6411 -23.6389 -23.6380
   -19.1676 -19.1660 -19.1500 -19.1455 -18.8482 -18.8481 -18.8433 -18.8428
   -18.2446 -18.2341 -17.2151 -17.1942 -17.0670 -17.0660 -16.0463 -16.0408
   -12.1048 -12.1038 -12.0562 -12.0135 -11.8692 -11.8440 -11.7725 -11.7640
    -8.8757  -8.8595  -8.2774  -8.2622  -7.5618  -7.5441  -7.4400  -7.4391
    -6.8394  -6.7923  -6.5555  -6.5228  -6.5190  -6.4633  -6.3276  -6.3010
    -6.1464  -6.1290  -6.0033  -5.9685  -5.9029  -5.8600  -5.7639  -5.7485
    -5.6229  -5.6103  -5.5377  -5.5175  -5.0909  -5.0243  -4.9768  -4.9534
    -4.4750  -4.4684  -4.3893  -4.3721  -4.2114  -4.1628  -3.8530  -3.8477
    -3.6677  -3.6182  -3.5225  -3.5035  -3.1572  -3.1416  -3.0442  -3.0369
    -0.7974  -0.7949  -0.3055  -0.2975  -0.2262  -0.1898  -0.1225  -0.1163
     0.0087   0.0182   0.1942   0.2042   0.2354   0.2414   0.3938   0.3960
     0.4157   0.4385   0.6450   0.6717   0.7536   0.7703   0.8802   0.9000
     0.9500   0.9968   1.0875   1.1128   1.2487   1.3031   1.3749   1.3824

     occupation numbers 
     1.0000   1.0000   1.0000   1.0000   1.0000   1.0000   1.0000   1.0000
     1.0000   1.0000   1.0000   1.0000   1.0000   1.0000   1.0000   1.0000
     1.0000   1.0000   1.0000   1.0000   1.0000   1.0000   1.0000   1.0000
     1.0000   1.0000   1.0000   1.0000   1.0000   1.0000   1.0000   1.0000
     1.0000   1.0000   1.0000   1.0000   1.0000   1.0000   1.0000   1.0000
     1.0000   1.0000   1.0000   1.0000   1.0000   1.0000   1.0000   1.0000
     1.0000   1.0000   1.0000   1.0000   1.0000   1.0000   1.0000   1.0000
     1.0000   1.0000   1.0000   1.0000   1.0000   1.0000   1.0000   1.0000
     1.0000   1.0000   1.0000   1.0000   1.0000   1.0000   1.0000   1.0000
     1.0000   1.0000   1.0000   1.0000   1.0000   1.0000   1.0000   1.0000
     1.0000   1.0000   1.0000   1.0000   1.0000   1.0000   1.0000   1.0000
     1.0000   1.0000   1.0000   1.0000   1.0000   1.0000   1.0000   1.0000
     1.0000   1.0000   1.0000   1.0000   1.0000   1.0000   1.0000   1.0000
     1.0000   1.0000   1.0000   1.0000   1.0000   1.0000   1.0000   1.0000

          k = 0.0192 0.0342 0.0565 ( 41879 PWs)   bands (ev):

   -23.9303 -23.9264 -23.9030 -23.9024 -23.6489 -23.6476 -23.6351 -23.6332
   -19.1660 -19.1645 -19.1517 -19.1483 -18.8541 -18.8538 -18.8383 -18.8377
   -18.2399 -18.2398 -17.2054 -17.2044 -17.0624 -17.0613 -16.0452 -16.0445
   -12.1129 -12.1120 -12.0244 -12.0159 -11.8581 -11.8534 -11.7856 -11.7819
    -8.8563  -8.8414  -8.2621  -8.2518  -7.5688  -7.5485  -7.4049  -7.3740
    -6.8894  -6.8426  -6.5810  -6.5707  -6.4976  -6.4490  -6.3871  -6.3679
    -6.1508  -6.1218  -5.9856  -5.9379  -5.8701  -5.8370  -5.8028  -5.7854
    -5.7011  -5.6671  -5.4832  -5.4620  -5.0752  -5.0226  -4.9784  -4.9410
    -4.4013  -4.3866  -4.3598  -4.3232  -4.1562  -4.1428  -3.9707  -3.9694
    -3.6624  -3.6413  -3.4716  -3.4664  -3.1832  -3.1794  -3.0365  -3.0246
    -0.7576  -0.7436  -0.3190  -0.3099  -0.2328  -0.2054  -0.1489  -0.1325
    -0.0539  -0.0360   0.1172   0.1379   0.2392   0.2640   0.3348   0.3463
     0.5631   0.5902   0.6648   0.6849   0.7817   0.7910   0.8292   0.8595
     0.9866   1.0071   1.1066   1.1164   1.2469   1.2755   1.3770   1.3870

     occupation numbers 
     1.0000   1.0000   1.0000   1.0000   1.0000   1.0000   1.0000   1.0000
     1.0000   1.0000   1.0000   1.0000   1.0000   1.0000   1.0000   1.0000
     1.0000   1.0000   1.0000   1.0000   1.0000   1.0000   1.0000   1.0000
     1.0000   1.0000   1.0000   1.0000   1.0000   1.0000   1.0000   1.0000
     1.0000   1.0000   1.0000   1.0000   1.0000   1.0000   1.0000   1.0000
     1.0000   1.0000   1.0000   1.0000   1.0000   1.0000   1.0000   1.0000
     1.0000   1.0000   1.0000   1.0000   1.0000   1.0000   1.0000   1.0000
     1.0000   1.0000   1.0000   1.0000   1.0000   1.0000   1.0000   1.0000
     1.0000   1.0000   1.0000   1.0000   1.0000   1.0000   1.0000   1.0000
     1.0000   1.0000   1.0000   1.0000   1.0000   1.0000   1.0000   1.0000
     1.0000   1.0000   1.0000   1.0000   1.0000   1.0000   1.0000   1.0000
     1.0000   1.0000   1.0000   1.0000   1.0000   1.0000   1.0000   1.0000
     1.0000   1.0000   1.0000   1.0000   1.0000   1.0000   1.0000   1.0000
     1.0000   1.0000   1.0000   1.0000   1.0000   1.0000   1.0000   1.0000

          k = 0.0192 0.0342-0.0480 ( 41901 PWs)   bands (ev):

   -23.9313 -23.9268 -23.9038 -23.9001 -23.6507 -23.6493 -23.6327 -23.6321
   -19.1642 -19.1636 -19.1516 -19.1512 -18.8557 -18.8554 -18.8366 -18.8360
   -18.2445 -18.2342 -17.2140 -17.1948 -17.0654 -17.0646 -16.0447 -16.0382
   -12.1200 -12.1147 -12.0435 -12.0105 -11.8622 -11.8343 -11.7857 -11.7800
    -8.8523  -8.8177  -8.2566  -8.2550  -7.5716  -7.5663  -7.4086  -7.3604
    -6.8854  -6.8394  -6.5984  -6.5723  -6.4970  -6.4840  -6.4181  -6.3975
    -6.1303  -6.1134  -6.0037  -5.9739  -5.8234  -5.8081  -5.7869  -5.7656
    -5.7014  -5.6670  -5.4718  -5.4445  -5.1064  -5.0549  -4.9403  -4.9071
    -4.4408  -4.4125  -4.3137  -4.2928  -4.1835  -4.1658  -3.9632  -3.9426
    -3.6656  -3.6436  -3.5024  -3.4681  -3.1823  -3.1716  -3.0358  -3.0324
    -0.6868  -0.6622  -0.3157  -0.3118  -0.2482  -0.2314  -0.1957  -0.1732
    -0.1081  -0.0970   0.0867   0.1179   0.2544   0.2706   0.3105   0.3371
     0.6131   0.6463   0.7108   0.7244   0.7387   0.7857   0.8523   0.8574
     0.9915   1.0091   1.1311   1.1524   1.2351   1.2467   1.3651   1.3738

     occupation numbers 
     1.0000   1.0000   1.0000   1.0000   1.0000   1.0000   1.0000   1.0000
     1.0000   1.0000   1.0000   1.0000   1.0000   1.0000   1.0000   1.0000
     1.0000   1.0000   1.0000   1.0000   1.0000   1.0000   1.0000   1.0000
     1.0000   1.0000   1.0000   1.0000   1.0000   1.0000   1.0000   1.0000
     1.0000   1.0000   1.0000   1.0000   1.0000   1.0000   1.0000   1.0000
     1.0000   1.0000   1.0000   1.0000   1.0000   1.0000   1.0000   1.0000
     1.0000   1.0000   1.0000   1.0000   1.0000   1.0000   1.0000   1.0000
     1.0000   1.0000   1.0000   1.0000   1.0000   1.0000   1.0000   1.0000
     1.0000   1.0000   1.0000   1.0000   1.0000   1.0000   1.0000   1.0000
     1.0000   1.0000   1.0000   1.0000   1.0000   1.0000   1.0000   1.0000
     1.0000   1.0000   1.0000   1.0000   1.0000   1.0000   1.0000   1.0000
     1.0000   1.0000   1.0000   1.0000   1.0000   1.0000   1.0000   1.0000
     1.0000   1.0000   1.0000   1.0000   1.0000   1.0000   1.0000   1.0000
     1.0000   1.0000   1.0000   1.0000   1.0000   1.0000   1.0000   1.0000

          k = 0.0192 0.0342-0.0131 ( 41882 PWs)   bands (ev):

   -23.9366 -23.9278 -23.9017 -23.8973 -23.6484 -23.6448 -23.6353 -23.6347
   -19.1666 -19.1649 -19.1507 -19.1470 -18.8518 -18.8515 -18.8395 -18.8395
   -18.2463 -18.2315 -17.2184 -17.1899 -17.0698 -17.0695 -16.0444 -16.0359
   -12.1140 -12.1083 -12.0617 -12.0170 -11.8643 -11.8358 -11.7706 -11.7633
    -8.8725  -8.8350  -8.2746  -8.2634  -7.5695  -7.5594  -7.4521  -7.4182
    -6.8065  -6.7914  -6.5941  -6.5453  -6.5106  -6.4843  -6.3767  -6.3439
    -6.1228  -6.1028  -6.0176  -5.9877  -5.8580  -5.8339  -5.7421  -5.7403
    -5.6267  -5.6129  -5.5213  -5.5127  -5.0991  -5.0691  -4.9369  -4.9149
    -4.4796  -4.4738  -4.3933  -4.3725  -4.2211  -4.1724  -3.8467  -3.8225
    -3.6829  -3.6247  -3.5336  -3.5107  -3.1599  -3.1398  -3.0431  -3.0408
    -0.7443  -0.7352  -0.2960  -0.2884  -0.2261  -0.1912  -0.1272  -0.1166
    -0.0777  -0.0579   0.0933   0.1217   0.2104   0.2458   0.3519   0.3800
     0.5711   0.5950   0.6357   0.6883   0.7384   0.7729   0.8920   0.8939
     0.9571   0.9883   1.1168   1.1434   1.2358   1.2856   1.3610   1.3684

     occupation numbers 
     1.0000   1.0000   1.0000   1.0000   1.0000   1.0000   1.0000   1.0000
     1.0000   1.0000   1.0000   1.0000   1.0000   1.0000   1.0000   1.0000
     1.0000   1.0000   1.0000   1.0000   1.0000   1.0000   1.0000   1.0000
     1.0000   1.0000   1.0000   1.0000   1.0000   1.0000   1.0000   1.0000
     1.0000   1.0000   1.0000   1.0000   1.0000   1.0000   1.0000   1.0000
     1.0000   1.0000   1.0000   1.0000   1.0000   1.0000   1.0000   1.0000
     1.0000   1.0000   1.0000   1.0000   1.0000   1.0000   1.0000   1.0000
     1.0000   1.0000   1.0000   1.0000   1.0000   1.0000   1.0000   1.0000
     1.0000   1.0000   1.0000   1.0000   1.0000   1.0000   1.0000   1.0000
     1.0000   1.0000   1.0000   1.0000   1.0000   1.0000   1.0000   1.0000
     1.0000   1.0000   1.0000   1.0000   1.0000   1.0000   1.0000   1.0000
     1.0000   1.0000   1.0000   1.0000   1.0000   1.0000   1.0000   1.0000
     1.0000   1.0000   1.0000   1.0000   1.0000   1.0000   1.0000   1.0000
     1.0000   1.0000   1.0000   1.0000   1.0000   1.0000   1.0000   1.0000

          k = 0.0575 0.0114 0.0303 ( 41867 PWs)   bands (ev):

   -23.9307 -23.9209 -23.9035 -23.9028 -23.6475 -23.6445 -23.6403 -23.6355
   -19.1658 -19.1615 -19.1571 -19.1476 -18.8509 -18.8496 -18.8420 -18.8408
   -18.2462 -18.2461 -17.2035 -17.2013 -17.0679 -17.0660 -16.0464 -16.0444
   -12.1023 -12.1019 -11.9986 -11.9789 -11.8373 -11.8222 -11.7874 -11.7722
    -8.8861  -8.8528  -8.2868  -8.2646  -7.5621  -7.5365  -7.5152  -7.4571
    -6.9831  -6.9100  -6.6744  -6.5491  -6.4781  -6.4389  -6.2632  -6.2276
    -6.2036  -6.1538  -6.0194  -5.9503  -5.8942  -5.8436  -5.7639  -5.7431
    -5.6559  -5.6104  -5.5542  -5.5399  -5.1496  -5.0383  -4.9188  -4.9109
    -4.4537  -4.4324  -4.3890  -4.3375  -4.0427  -3.9875  -3.8093  -3.7814
    -3.7350  -3.6391  -3.5885  -3.5807  -3.1610  -3.1557  -3.0544  -3.0244
    -0.7574  -0.7429  -0.2955  -0.2923  -0.2031  -0.1834  -0.1220  -0.0982
    -0.0658  -0.0370   0.1101   0.1246   0.2044   0.2198   0.3502   0.3728
     0.5774   0.5851   0.6534   0.7056   0.7797   0.7868   0.8640   0.8782
     0.9363   0.9846   1.0115   1.0615   1.2874   1.3174   1.3513   1.3885

     occupation numbers 
     1.0000   1.0000   1.0000   1.0000   1.0000   1.0000   1.0000   1.0000
     1.0000   1.0000   1.0000   1.0000   1.0000   1.0000   1.0000   1.0000
     1.0000   1.0000   1.0000   1.0000   1.0000   1.0000   1.0000   1.0000
     1.0000   1.0000   1.0000   1.0000   1.0000   1.0000   1.0000   1.0000
     1.0000   1.0000   1.0000   1.0000   1.0000   1.0000   1.0000   1.0000
     1.0000   1.0000   1.0000   1.0000   1.0000   1.0000   1.0000   1.0000
     1.0000   1.0000   1.0000   1.0000   1.0000   1.0000   1.0000   1.0000
     1.0000   1.0000   1.0000   1.0000   1.0000   1.0000   1.0000   1.0000
     1.0000   1.0000   1.0000   1.0000   1.0000   1.0000   1.0000   1.0000
     1.0000   1.0000   1.0000   1.0000   1.0000   1.0000   1.0000   1.0000
     1.0000   1.0000   1.0000   1.0000   1.0000   1.0000   1.0000   1.0000
     1.0000   1.0000   1.0000   1.0000   1.0000   1.0000   1.0000   1.0000
     1.0000   1.0000   1.0000   1.0000   1.0000   1.0000   1.0000   1.0000
     1.0000   1.0000   1.0000   1.0000   1.0000   1.0000   1.0000   1.0000

          k = 0.0575 0.0114 0.0651 ( 41893 PWs)   bands (ev):

   -23.9266 -23.9237 -23.9073 -23.8991 -23.6465 -23.6462 -23.6429 -23.6333
   -19.1662 -19.1630 -19.1575 -19.1467 -18.8606 -18.8583 -18.8349 -18.8313
   -18.2608 -18.2361 -17.2235 -17.1794 -17.0584 -17.0548 -16.0620 -16.0433
   -12.1148 -12.1107 -12.0280 -11.9504 -11.8389 -11.7922 -11.7918 -11.7767
    -8.9303  -8.8080  -8.2816  -8.2452  -7.5664  -7.5409  -7.4768  -7.3417
    -7.0842  -6.8579  -6.6797  -6.5109  -6.5006  -6.4385  -6.4164  -6.3157
    -6.2601  -6.1785  -5.9901  -5.9628  -5.9159  -5.8617  -5.7953  -5.7370
    -5.6318  -5.5786  -5.5081  -5.4369  -5.1602  -4.9977  -4.9852  -4.9240
    -4.3998  -4.3851  -4.3261  -4.2827  -4.0001  -3.9619  -3.9094  -3.8708
    -3.7636  -3.6674  -3.5980  -3.5049  -3.2029  -3.1761  -3.0507  -2.9931
    -0.8331  -0.7899  -0.3021  -0.2663  -0.2049  -0.1744  -0.1174  -0.0787
    -0.0304   0.0019   0.1733   0.2058   0.2242   0.2441   0.3163   0.4112
     0.4933   0.5122   0.5617   0.6716   0.7686   0.8010   0.8455   0.8758
     0.9712   1.0097   1.0246   1.0522   1.3009   1.3379   1.3563   1.4008

     occupation numbers 
     1.0000   1.0000   1.0000   1.0000   1.0000   1.0000   1.0000   1.0000
     1.0000   1.0000   1.0000   1.0000   1.0000   1.0000   1.0000   1.0000
     1.0000   1.0000   1.0000   1.0000   1.0000   1.0000   1.0000   1.0000
     1.0000   1.0000   1.0000   1.0000   1.0000   1.0000   1.0000   1.0000
     1.0000   1.0000   1.0000   1.0000   1.0000   1.0000   1.0000   1.0000
     1.0000   1.0000   1.0000   1.0000   1.0000   1.0000   1.0000   1.0000
     1.0000   1.0000   1.0000   1.0000   1.0000   1.0000   1.0000   1.0000
     1.0000   1.0000   1.0000   1.0000   1.0000   1.0000   1.0000   1.0000
     1.0000   1.0000   1.0000   1.0000   1.0000   1.0000   1.0000   1.0000
     1.0000   1.0000   1.0000   1.0000   1.0000   1.0000   1.0000   1.0000
     1.0000   1.0000   1.0000   1.0000   1.0000   1.0000   1.0000   1.0000
     1.0000   1.0000   1.0000   1.0000   1.0000   1.0000   1.0000   1.0000
     1.0000   1.0000   1.0000   1.0000   1.0000   1.0000   1.0000   1.0000
     1.0000   1.0000   1.0000   1.0000   1.0000   1.0000   1.0000   1.0000

          k = 0.0575 0.0114-0.0394 ( 41865 PWs)   bands (ev):

   -23.9283 -23.9225 -23.9089 -23.8969 -23.6497 -23.6486 -23.6385 -23.6321
   -19.1642 -19.1621 -19.1577 -19.1496 -18.8616 -18.8594 -18.8337 -18.8302
   -18.2653 -18.2303 -17.2335 -17.1689 -17.0612 -17.0582 -16.0617 -16.0371
   -12.1190 -12.1115 -12.0522 -11.9294 -11.8553 -11.7913 -11.7864 -11.7653
    -8.9254  -8.7836  -8.2757  -8.2467  -7.5651  -7.5461  -7.4986  -7.3294
    -7.1020  -6.8602  -6.6669  -6.5317  -6.5012  -6.4799  -6.4051  -6.3401
    -6.2643  -6.1946  -5.9781  -5.9227  -5.8846  -5.8684  -5.7956  -5.7526
    -5.6063  -5.5744  -5.5150  -5.4357  -5.1505  -5.0220  -4.9590  -4.9105
    -4.4024  -4.3640  -4.3243  -4.2988  -4.0257  -4.0025  -3.8568  -3.8495
    -3.7104  -3.6973  -3.6571  -3.5122  -3.2070  -3.1718  -3.0462  -2.9986
    -0.7908  -0.7257  -0.2948  -0.2425  -0.2184  -0.1943  -0.1241  -0.0993
    -0.0909  -0.0499   0.1049   0.1878   0.2234   0.2662   0.2834   0.3089
     0.5431   0.6162   0.6435   0.6589   0.7670   0.7951   0.8665   0.8881
     0.9614   0.9896   1.0432   1.1087   1.3168   1.3332   1.3379   1.3638

     occupation numbers 
     1.0000   1.0000   1.0000   1.0000   1.0000   1.0000   1.0000   1.0000
     1.0000   1.0000   1.0000   1.0000   1.0000   1.0000   1.0000   1.0000
     1.0000   1.0000   1.0000   1.0000   1.0000   1.0000   1.0000   1.0000
     1.0000   1.0000   1.0000   1.0000   1.0000   1.0000   1.0000   1.0000
     1.0000   1.0000   1.0000   1.0000   1.0000   1.0000   1.0000   1.0000
     1.0000   1.0000   1.0000   1.0000   1.0000   1.0000   1.0000   1.0000
     1.0000   1.0000   1.0000   1.0000   1.0000   1.0000   1.0000   1.0000
     1.0000   1.0000   1.0000   1.0000   1.0000   1.0000   1.0000   1.0000
     1.0000   1.0000   1.0000   1.0000   1.0000   1.0000   1.0000   1.0000
     1.0000   1.0000   1.0000   1.0000   1.0000   1.0000   1.0000   1.0000
     1.0000   1.0000   1.0000   1.0000   1.0000   1.0000   1.0000   1.0000
     1.0000   1.0000   1.0000   1.0000   1.0000   1.0000   1.0000   1.0000
     1.0000   1.0000   1.0000   1.0000   1.0000   1.0000   1.0000   1.0000
     1.0000   1.0000   1.0000   1.0000   1.0000   1.0000   1.0000   1.0000

          k = 0.0575 0.0114-0.0046 ( 41868 PWs)   bands (ev):

   -23.9316 -23.9206 -23.9073 -23.8984 -23.6503 -23.6468 -23.6362 -23.6345
   -19.1636 -19.1618 -19.1540 -19.1528 -18.8534 -18.8524 -18.8393 -18.8380
   -18.2580 -18.2330 -17.2258 -17.1783 -17.0702 -17.0699 -16.0502 -16.0342
   -12.1074 -12.1019 -12.0398 -11.9398 -11.8639 -11.8039 -11.7767 -11.7742
    -8.8957  -8.8135  -8.2754  -8.2721  -7.5615  -7.5515  -7.5392  -7.4349
    -6.9984  -6.9082  -6.6302  -6.6057  -6.4735  -6.4698  -6.2982  -6.2663
    -6.1851  -6.1801  -5.9597  -5.9248  -5.8592  -5.8265  -5.7786  -5.7701
    -5.6306  -5.6168  -5.5499  -5.5401  -5.1090  -5.0897  -4.8982  -4.8910
    -4.4555  -4.4295  -4.3798  -4.3492  -4.0481  -4.0139  -3.7748  -3.7679
    -3.7027  -3.6773  -3.6325  -3.5809  -3.1761  -3.1427  -3.0479  -3.0309
    -0.7032  -0.6547  -0.2993  -0.2896  -0.2118  -0.2083  -0.1764  -0.1749
    -0.0806  -0.0513   0.0643   0.1282   0.1878   0.2278   0.3228   0.3588
     0.5618   0.6280   0.7125   0.7505   0.7670   0.8100   0.8782   0.9017
     0.9333   0.9507   1.0257   1.1123   1.3043   1.3107   1.3316   1.3491

     occupation numbers 
     1.0000   1.0000   1.0000   1.0000   1.0000   1.0000   1.0000   1.0000
     1.0000   1.0000   1.0000   1.0000   1.0000   1.0000   1.0000   1.0000
     1.0000   1.0000   1.0000   1.0000   1.0000   1.0000   1.0000   1.0000
     1.0000   1.0000   1.0000   1.0000   1.0000   1.0000   1.0000   1.0000
     1.0000   1.0000   1.0000   1.0000   1.0000   1.0000   1.0000   1.0000
     1.0000   1.0000   1.0000   1.0000   1.0000   1.0000   1.0000   1.0000
     1.0000   1.0000   1.0000   1.0000   1.0000   1.0000   1.0000   1.0000
     1.0000   1.0000   1.0000   1.0000   1.0000   1.0000   1.0000   1.0000
     1.0000   1.0000   1.0000   1.0000   1.0000   1.0000   1.0000   1.0000
     1.0000   1.0000   1.0000   1.0000   1.0000   1.0000   1.0000   1.0000
     1.0000   1.0000   1.0000   1.0000   1.0000   1.0000   1.0000   1.0000
     1.0000   1.0000   1.0000   1.0000   1.0000   1.0000   1.0000   1.0000
     1.0000   1.0000   1.0000   1.0000   1.0000   1.0000   1.0000   1.0000
     1.0000   1.0000   1.0000   1.0000   1.0000   1.0000   1.0000   1.0000

          k = 0.0575 0.0342 0.0303 ( 41838 PWs)   bands (ev):

   -23.9276 -23.9235 -23.9037 -23.9033 -23.6456 -23.6445 -23.6398 -23.6377
   -19.1657 -19.1646 -19.1525 -19.1492 -18.8505 -18.8500 -18.8416 -18.8411
   -18.2462 -18.2461 -17.2030 -17.2021 -17.0672 -17.0663 -16.0459 -16.0451
   -12.1023 -12.1020 -11.9915 -11.9831 -11.8348 -11.8283 -11.7828 -11.7765
    -8.8763  -8.8625  -8.2773  -8.2679  -7.5545  -7.5445  -7.5011  -7.4768
    -6.9850  -6.9600  -6.5982  -6.5550  -6.4606  -6.4354  -6.2914  -6.2567
    -6.1920  -6.1640  -5.9902  -5.9613  -5.8850  -5.8588  -5.7640  -5.7433
    -5.6364  -5.6229  -5.5488  -5.5412  -5.1198  -5.0738  -4.9220  -4.9176
    -4.4467  -4.4346  -4.3770  -4.3566  -4.0192  -3.9945  -3.7981  -3.7820
    -3.7158  -3.6723  -3.5877  -3.5809  -3.1590  -3.1561  -3.0496  -3.0365
    -0.7496  -0.7436  -0.2863  -0.2792  -0.2388  -0.2200  -0.1019  -0.0811
    -0.0616  -0.0459   0.1218   0.1378   0.2100   0.2242   0.3499   0.3606
     0.5999   0.6065   0.6341   0.6630   0.7792   0.7866   0.8709   0.8903
     0.9486   0.9788   1.0155   1.0394   1.2969   1.3090   1.3629   1.3780

     occupation numbers 
     1.0000   1.0000   1.0000   1.0000   1.0000   1.0000   1.0000   1.0000
     1.0000   1.0000   1.0000   1.0000   1.0000   1.0000   1.0000   1.0000
     1.0000   1.0000   1.0000   1.0000   1.0000   1.0000   1.0000   1.0000
     1.0000   1.0000   1.0000   1.0000   1.0000   1.0000   1.0000   1.0000
     1.0000   1.0000   1.0000   1.0000   1.0000   1.0000   1.0000   1.0000
     1.0000   1.0000   1.0000   1.0000   1.0000   1.0000   1.0000   1.0000
     1.0000   1.0000   1.0000   1.0000   1.0000   1.0000   1.0000   1.0000
     1.0000   1.0000   1.0000   1.0000   1.0000   1.0000   1.0000   1.0000
     1.0000   1.0000   1.0000   1.0000   1.0000   1.0000   1.0000   1.0000
     1.0000   1.0000   1.0000   1.0000   1.0000   1.0000   1.0000   1.0000
     1.0000   1.0000   1.0000   1.0000   1.0000   1.0000   1.0000   1.0000
     1.0000   1.0000   1.0000   1.0000   1.0000   1.0000   1.0000   1.0000
     1.0000   1.0000   1.0000   1.0000   1.0000   1.0000   1.0000   1.0000
     1.0000   1.0000   1.0000   1.0000   1.0000   1.0000   1.0000   1.0000

          k = 0.0575 0.0342 0.0651 ( 41858 PWs)   bands (ev):

   -23.9253 -23.9242 -23.9054 -23.9020 -23.6463 -23.6461 -23.6402 -23.6361
   -19.1665 -19.1657 -19.1526 -19.1486 -18.8599 -18.8590 -18.8338 -18.8324
   -18.2537 -18.2435 -17.2106 -17.1923 -17.0573 -17.0559 -16.0564 -16.0487
   -12.1157 -12.1138 -12.0049 -11.9737 -11.8228 -11.8039 -11.7878 -11.7815
    -8.8958  -8.8452  -8.2694  -8.2542  -7.5432  -7.5302  -7.4644  -7.4026
    -7.0420  -6.9622  -6.5816  -6.5275  -6.4891  -6.4678  -6.3738  -6.3188
    -6.2450  -6.1944  -5.9695  -5.9518  -5.9120  -5.8898  -5.8077  -5.7705
    -5.6222  -5.6011  -5.4784  -5.4494  -5.1222  -5.0539  -4.9652  -4.9392
    -4.3848  -4.3651  -4.3224  -4.2883  -3.9865  -3.9715  -3.9015  -3.8856
    -3.7415  -3.7075  -3.5641  -3.5284  -3.1956  -3.1847  -3.0345  -3.0106
    -0.8171  -0.7995  -0.2893  -0.2734  -0.2326  -0.2229  -0.0915  -0.0799
    -0.0002   0.0111   0.1906   0.2013   0.2387   0.2508   0.3390   0.3836
     0.4785   0.4882   0.6125   0.6686   0.7469   0.7829   0.8570   0.8737
     0.9635   0.9874   1.0436   1.0592   1.3106   1.3255   1.3696   1.3876

     occupation numbers 
     1.0000   1.0000   1.0000   1.0000   1.0000   1.0000   1.0000   1.0000
     1.0000   1.0000   1.0000   1.0000   1.0000   1.0000   1.0000   1.0000
     1.0000   1.0000   1.0000   1.0000   1.0000   1.0000   1.0000   1.0000
     1.0000   1.0000   1.0000   1.0000   1.0000   1.0000   1.0000   1.0000
     1.0000   1.0000   1.0000   1.0000   1.0000   1.0000   1.0000   1.0000
     1.0000   1.0000   1.0000   1.0000   1.0000   1.0000   1.0000   1.0000
     1.0000   1.0000   1.0000   1.0000   1.0000   1.0000   1.0000   1.0000
     1.0000   1.0000   1.0000   1.0000   1.0000   1.0000   1.0000   1.0000
     1.0000   1.0000   1.0000   1.0000   1.0000   1.0000   1.0000   1.0000
     1.0000   1.0000   1.0000   1.0000   1.0000   1.0000   1.0000   1.0000
     1.0000   1.0000   1.0000   1.0000   1.0000   1.0000   1.0000   1.0000
     1.0000   1.0000   1.0000   1.0000   1.0000   1.0000   1.0000   1.0000
     1.0000   1.0000   1.0000   1.0000   1.0000   1.0000   1.0000   1.0000
     1.0000   1.0000   1.0000   1.0000   1.0000   1.0000   1.0000   1.0000

          k = 0.0575 0.0342-0.0394 ( 41878 PWs)   bands (ev):

   -23.9268 -23.9244 -23.9053 -23.9004 -23.6491 -23.6486 -23.6368 -23.6341
   -19.1650 -19.1646 -19.1534 -19.1506 -18.8610 -18.8600 -18.8327 -18.8312
   -18.2555 -18.2410 -17.2143 -17.1875 -17.0604 -17.0592 -16.0542 -16.0441
   -12.1198 -12.1171 -12.0198 -11.9736 -11.8245 -11.8016 -11.7814 -11.7731
    -8.8859  -8.8274  -8.2668  -8.2547  -7.5482  -7.5306  -7.4763  -7.3966
    -7.0480  -6.9605  -6.5811  -6.5416  -6.5001  -6.4794  -6.4227  -6.3670
    -6.2096  -6.1684  -5.9730  -5.9379  -5.8920  -5.8835  -5.8023  -5.7741
    -5.6035  -5.5902  -5.4776  -5.4450  -5.1359  -5.0832  -4.9332  -4.9125
    -4.4026  -4.3859  -4.2957  -4.2782  -4.0155  -4.0066  -3.8572  -3.8539
    -3.7199  -3.7139  -3.6050  -3.5488  -3.1948  -3.1794  -3.0362  -3.0159
    -0.7693  -0.7420  -0.2852  -0.2659  -0.2407  -0.2237  -0.1038  -0.0966
    -0.0619  -0.0369   0.1329   0.1643   0.2320   0.2492   0.2876   0.3116
     0.5674   0.5953   0.6697   0.6723   0.7639   0.7762   0.8513   0.8586
     0.9720   0.9896   1.0687   1.0938   1.3203   1.3285   1.3432   1.3553

     occupation numbers 
     1.0000   1.0000   1.0000   1.0000   1.0000   1.0000   1.0000   1.0000
     1.0000   1.0000   1.0000   1.0000   1.0000   1.0000   1.0000   1.0000
     1.0000   1.0000   1.0000   1.0000   1.0000   1.0000   1.0000   1.0000
     1.0000   1.0000   1.0000   1.0000   1.0000   1.0000   1.0000   1.0000
     1.0000   1.0000   1.0000   1.0000   1.0000   1.0000   1.0000   1.0000
     1.0000   1.0000   1.0000   1.0000   1.0000   1.0000   1.0000   1.0000
     1.0000   1.0000   1.0000   1.0000   1.0000   1.0000   1.0000   1.0000
     1.0000   1.0000   1.0000   1.0000   1.0000   1.0000   1.0000   1.0000
     1.0000   1.0000   1.0000   1.0000   1.0000   1.0000   1.0000   1.0000
     1.0000   1.0000   1.0000   1.0000   1.0000   1.0000   1.0000   1.0000
     1.0000   1.0000   1.0000   1.0000   1.0000   1.0000   1.0000   1.0000
     1.0000   1.0000   1.0000   1.0000   1.0000   1.0000   1.0000   1.0000
     1.0000   1.0000   1.0000   1.0000   1.0000   1.0000   1.0000   1.0000
     1.0000   1.0000   1.0000   1.0000   1.0000   1.0000   1.0000   1.0000

          k = 0.0575 0.0342-0.0046 ( 41862 PWs)   bands (ev):

   -23.9286 -23.9241 -23.9045 -23.9009 -23.6488 -23.6473 -23.6362 -23.6354
   -19.1640 -19.1634 -19.1526 -19.1522 -18.8531 -18.8527 -18.8389 -18.8384
   -18.2509 -18.2405 -17.2118 -17.1922 -17.0700 -17.0699 -16.0454 -16.0388
   -12.1070 -12.1050 -12.0146 -11.9760 -11.8380 -11.8155 -11.7770 -11.7750
    -8.8722  -8.8383  -8.2733  -8.2704  -7.5581  -7.5541  -7.5118  -7.4685
    -6.9863  -6.9502  -6.5916  -6.5799  -6.4608  -6.4554  -6.3536  -6.3410
    -6.1387  -6.1313  -5.9702  -5.9496  -5.8516  -5.8379  -5.7608  -5.7553
    -5.6335  -5.6196  -5.5471  -5.5439  -5.1137  -5.1031  -4.8941  -4.8921
    -4.4556  -4.4392  -4.3771  -4.3541  -4.0256  -4.0111  -3.7765  -3.7744
    -3.6792  -3.6516  -3.6483  -3.6087  -3.1651  -3.1501  -3.0488  -3.0425
    -0.6873  -0.6672  -0.2846  -0.2779  -0.2292  -0.2066  -0.1980  -0.1791
    -0.0802  -0.0594   0.0876   0.1149   0.2065   0.2262   0.3332   0.3528
     0.5926   0.6273   0.6947   0.7184   0.7737   0.8026   0.8836   0.8890
     0.9523   0.9635   1.0422   1.0819   1.3071   1.3087   1.3360   1.3437

     occupation numbers 
     1.0000   1.0000   1.0000   1.0000   1.0000   1.0000   1.0000   1.0000
     1.0000   1.0000   1.0000   1.0000   1.0000   1.0000   1.0000   1.0000
     1.0000   1.0000   1.0000   1.0000   1.0000   1.0000   1.0000   1.0000
     1.0000   1.0000   1.0000   1.0000   1.0000   1.0000   1.0000   1.0000
     1.0000   1.0000   1.0000   1.0000   1.0000   1.0000   1.0000   1.0000
     1.0000   1.0000   1.0000   1.0000   1.0000   1.0000   1.0000   1.0000
     1.0000   1.0000   1.0000   1.0000   1.0000   1.0000   1.0000   1.0000
     1.0000   1.0000   1.0000   1.0000   1.0000   1.0000   1.0000   1.0000
     1.0000   1.0000   1.0000   1.0000   1.0000   1.0000   1.0000   1.0000
     1.0000   1.0000   1.0000   1.0000   1.0000   1.0000   1.0000   1.0000
     1.0000   1.0000   1.0000   1.0000   1.0000   1.0000   1.0000   1.0000
     1.0000   1.0000   1.0000   1.0000   1.0000   1.0000   1.0000   1.0000
     1.0000   1.0000   1.0000   1.0000   1.0000   1.0000   1.0000   1.0000
     1.0000   1.0000   1.0000   1.0000   1.0000   1.0000   1.0000   1.0000

          k =-0.0192 0.0114-0.0217 ( 41901 PWs)   bands (ev):

   -23.9415 -23.9184 -23.9065 -23.8968 -23.6491 -23.6399 -23.6390 -23.6356
   -19.1680 -19.1625 -19.1555 -19.1431 -18.8482 -18.8480 -18.8437 -18.8425
   -18.2517 -18.2264 -17.2299 -17.1795 -17.0677 -17.0655 -16.0503 -16.0370
   -12.1050 -12.1018 -12.0816 -11.9631 -11.9075 -11.8330 -11.7782 -11.7581
    -8.8863  -8.8471  -8.2874  -8.2507  -7.5711  -7.5297  -7.4465  -7.4451
    -6.8631  -6.7564  -6.6085  -6.5279  -6.5110  -6.4134  -6.3516  -6.2687
    -6.1359  -6.1062  -6.0762  -5.9578  -5.9036  -5.8195  -5.7556  -5.7156
    -5.6579  -5.6372  -5.5583  -5.5175  -5.1355  -5.0205  -4.9328  -4.9228
    -4.4657  -4.4562  -4.4240  -4.3833  -4.2307  -4.1294  -3.8582  -3.8535
    -3.6976  -3.5862  -3.5331  -3.4941  -3.1649  -3.1255  -3.0539  -3.0339
    -0.8022  -0.7969  -0.3132  -0.3107  -0.2131  -0.1604  -0.1002  -0.0812
    -0.0259   0.0024   0.1686   0.2021   0.2138   0.2426   0.3719   0.3895
     0.4408   0.4569   0.6322   0.6849   0.7691   0.8153   0.8635   0.8898
     0.9124   1.0262   1.0584   1.1247   1.2122   1.3456   1.3650   1.3887

     occupation numbers 
     1.0000   1.0000   1.0000   1.0000   1.0000   1.0000   1.0000   1.0000
     1.0000   1.0000   1.0000   1.0000   1.0000   1.0000   1.0000   1.0000
     1.0000   1.0000   1.0000   1.0000   1.0000   1.0000   1.0000   1.0000
     1.0000   1.0000   1.0000   1.0000   1.0000   1.0000   1.0000   1.0000
     1.0000   1.0000   1.0000   1.0000   1.0000   1.0000   1.0000   1.0000
     1.0000   1.0000   1.0000   1.0000   1.0000   1.0000   1.0000   1.0000
     1.0000   1.0000   1.0000   1.0000   1.0000   1.0000   1.0000   1.0000
     1.0000   1.0000   1.0000   1.0000   1.0000   1.0000   1.0000   1.0000
     1.0000   1.0000   1.0000   1.0000   1.0000   1.0000   1.0000   1.0000
     1.0000   1.0000   1.0000   1.0000   1.0000   1.0000   1.0000   1.0000
     1.0000   1.0000   1.0000   1.0000   1.0000   1.0000   1.0000   1.0000
     1.0000   1.0000   1.0000   1.0000   1.0000   1.0000   1.0000   1.0000
     1.0000   1.0000   1.0000   1.0000   1.0000   1.0000   1.0000   1.0000
     1.0000   1.0000   1.0000   1.0000   1.0000   1.0000   1.0000   1.0000

          k =-0.0192 0.0114-0.0565 ( 41879 PWs)   bands (ev):

   -23.9333 -23.9241 -23.9028 -23.9017 -23.6505 -23.6473 -23.6358 -23.6314
   -19.1661 -19.1613 -19.1564 -19.1468 -18.8543 -18.8535 -18.8388 -18.8372
   -18.2399 -18.2397 -17.2058 -17.2033 -17.0635 -17.0609 -16.0457 -16.0440
   -12.1138 -12.1121 -12.0277 -12.0075 -11.8646 -11.8548 -11.7862 -11.7777
    -8.8666  -8.8307  -8.2688  -8.2441  -7.5849  -7.5350  -7.4273  -7.3507
    -6.9099  -6.7832  -6.5946  -6.5621  -6.5504  -6.4344  -6.3755  -6.3471
    -6.1969  -6.1629  -5.9637  -5.9105  -5.8951  -5.8280  -5.8005  -5.7618
    -5.7147  -5.6599  -5.4775  -5.4333  -5.1388  -5.0587  -4.9297  -4.8929
    -4.4235  -4.4149  -4.3711  -4.2944  -4.1559  -4.1270  -3.9731  -3.9689
    -3.6825  -3.6337  -3.4720  -3.4614  -3.1880  -3.1839  -3.0367  -3.0119
    -0.7685  -0.7343  -0.3266  -0.3154  -0.2213  -0.1895  -0.1336  -0.1115
    -0.0803  -0.0393   0.0684   0.1299   0.2343   0.2858   0.3424   0.3537
     0.5472   0.6086   0.6531   0.6964   0.7734   0.7919   0.8245   0.8741
     0.9835   1.0234   1.0947   1.1194   1.2231   1.2937   1.3709   1.3951

     occupation numbers 
     1.0000   1.0000   1.0000   1.0000   1.0000   1.0000   1.0000   1.0000
     1.0000   1.0000   1.0000   1.0000   1.0000   1.0000   1.0000   1.0000
     1.0000   1.0000   1.0000   1.0000   1.0000   1.0000   1.0000   1.0000
     1.0000   1.0000   1.0000   1.0000   1.0000   1.0000   1.0000   1.0000
     1.0000   1.0000   1.0000   1.0000   1.0000   1.0000   1.0000   1.0000
     1.0000   1.0000   1.0000   1.0000   1.0000   1.0000   1.0000   1.0000
     1.0000   1.0000   1.0000   1.0000   1.0000   1.0000   1.0000   1.0000
     1.0000   1.0000   1.0000   1.0000   1.0000   1.0000   1.0000   1.0000
     1.0000   1.0000   1.0000   1.0000   1.0000   1.0000   1.0000   1.0000
     1.0000   1.0000   1.0000   1.0000   1.0000   1.0000   1.0000   1.0000
     1.0000   1.0000   1.0000   1.0000   1.0000   1.0000   1.0000   1.0000
     1.0000   1.0000   1.0000   1.0000   1.0000   1.0000   1.0000   1.0000
     1.0000   1.0000   1.0000   1.0000   1.0000   1.0000   1.0000   1.0000
     1.0000   1.0000   1.0000   1.0000   1.0000   1.0000   1.0000   1.0000

          k =-0.0192 0.0114 0.0480 ( 41877 PWs)   bands (ev):

   -23.9343 -23.9234 -23.9065 -23.8975 -23.6520 -23.6489 -23.6327 -23.6313
   -19.1638 -19.1620 -19.1531 -19.1517 -18.8559 -18.8552 -18.8370 -18.8355
   -18.2516 -18.2267 -17.2276 -17.1811 -17.0660 -17.0642 -16.0494 -16.0337
   -12.1236 -12.1108 -12.0619 -11.9739 -11.8952 -11.8197 -11.7897 -11.7764
    -8.8758  -8.7921  -8.2561  -8.2532  -7.5796  -7.5642  -7.4392  -7.3251
    -6.9185  -6.8093  -6.5943  -6.5610  -6.5110  -6.4857  -6.3905  -6.3546
    -6.2139  -6.1875  -5.9692  -5.9349  -5.8278  -5.7928  -5.7861  -5.7724
    -5.7148  -5.6460  -5.4797  -5.4282  -5.1329  -5.0592  -4.9160  -4.8870
    -4.4536  -4.3863  -4.3532  -4.2964  -4.1866  -4.1449  -3.9776  -3.9279
    -3.6883  -3.6360  -3.5255  -3.4433  -3.1941  -3.1721  -3.0301  -3.0200
    -0.7034  -0.6432  -0.3156  -0.3075  -0.2774  -0.2461  -0.1712  -0.1522
    -0.0916  -0.0871   0.0347   0.1163   0.2529   0.2883   0.2985   0.3486
     0.5887   0.6725   0.6920   0.7056   0.7411   0.8347   0.8446   0.8570
     0.9761   1.0302   1.1065   1.1629   1.2296   1.2559   1.3596   1.3798

     occupation numbers 
     1.0000   1.0000   1.0000   1.0000   1.0000   1.0000   1.0000   1.0000
     1.0000   1.0000   1.0000   1.0000   1.0000   1.0000   1.0000   1.0000
     1.0000   1.0000   1.0000   1.0000   1.0000   1.0000   1.0000   1.0000
     1.0000   1.0000   1.0000   1.0000   1.0000   1.0000   1.0000   1.0000
     1.0000   1.0000   1.0000   1.0000   1.0000   1.0000   1.0000   1.0000
     1.0000   1.0000   1.0000   1.0000   1.0000   1.0000   1.0000   1.0000
     1.0000   1.0000   1.0000   1.0000   1.0000   1.0000   1.0000   1.0000
     1.0000   1.0000   1.0000   1.0000   1.0000   1.0000   1.0000   1.0000
     1.0000   1.0000   1.0000   1.0000   1.0000   1.0000   1.0000   1.0000
     1.0000   1.0000   1.0000   1.0000   1.0000   1.0000   1.0000   1.0000
     1.0000   1.0000   1.0000   1.0000   1.0000   1.0000   1.0000   1.0000
     1.0000   1.0000   1.0000   1.0000   1.0000   1.0000   1.0000   1.0000
     1.0000   1.0000   1.0000   1.0000   1.0000   1.0000   1.0000   1.0000
     1.0000   1.0000   1.0000   1.0000   1.0000   1.0000   1.0000   1.0000

          k =-0.0192 0.0114 0.0131 ( 41911 PWs)   bands (ev):

   -23.9420 -23.9185 -23.9077 -23.8950 -23.6514 -23.6430 -23.6354 -23.6337
   -19.1669 -19.1612 -19.1558 -19.1453 -18.8519 -18.8514 -18.8395 -18.8395
   -18.2563 -18.2206 -17.2388 -17.1702 -17.0698 -17.0693 -16.0506 -16.0301
   -12.1193 -12.1026 -12.0870 -11.9619 -11.9074 -11.8222 -11.7761 -11.7587
    -8.8974  -8.8067  -8.2810  -8.2537  -7.5756  -7.5536  -7.4799  -7.3952
    -6.8310  -6.8159  -6.6053  -6.5154  -6.5089  -6.4600  -6.3586  -6.2856
    -6.1813  -6.1402  -6.0117  -5.9605  -5.8642  -5.8167  -5.7380  -5.7116
    -5.6726  -5.6257  -5.5307  -5.5218  -5.1024  -5.0570  -4.9294  -4.8930
    -4.4682  -4.4467  -4.4218  -4.3991  -4.2392  -4.1393  -3.8656  -3.8069
    -3.7326  -3.5953  -3.5458  -3.4929  -3.1708  -3.1213  -3.0467  -3.0401
    -0.7539  -0.7320  -0.3031  -0.2991  -0.2138  -0.1793  -0.1131  -0.0927
    -0.0822  -0.0442   0.0614   0.1210   0.1880   0.2651   0.3170   0.3820
     0.5610   0.5971   0.6247   0.7092   0.7589   0.8202   0.8766   0.8894
     0.9209   1.0048   1.0860   1.1530   1.2097   1.3258   1.3512   1.3762

     occupation numbers 
     1.0000   1.0000   1.0000   1.0000   1.0000   1.0000   1.0000   1.0000
     1.0000   1.0000   1.0000   1.0000   1.0000   1.0000   1.0000   1.0000
     1.0000   1.0000   1.0000   1.0000   1.0000   1.0000   1.0000   1.0000
     1.0000   1.0000   1.0000   1.0000   1.0000   1.0000   1.0000   1.0000
     1.0000   1.0000   1.0000   1.0000   1.0000   1.0000   1.0000   1.0000
     1.0000   1.0000   1.0000   1.0000   1.0000   1.0000   1.0000   1.0000
     1.0000   1.0000   1.0000   1.0000   1.0000   1.0000   1.0000   1.0000
     1.0000   1.0000   1.0000   1.0000   1.0000   1.0000   1.0000   1.0000
     1.0000   1.0000   1.0000   1.0000   1.0000   1.0000   1.0000   1.0000
     1.0000   1.0000   1.0000   1.0000   1.0000   1.0000   1.0000   1.0000
     1.0000   1.0000   1.0000   1.0000   1.0000   1.0000   1.0000   1.0000
     1.0000   1.0000   1.0000   1.0000   1.0000   1.0000   1.0000   1.0000
     1.0000   1.0000   1.0000   1.0000   1.0000   1.0000   1.0000   1.0000
     1.0000   1.0000   1.0000   1.0000   1.0000   1.0000   1.0000   1.0000

          k =-0.0192 0.0342-0.0217 ( 41863 PWs)   bands (ev):

   -23.9361 -23.9272 -23.9018 -23.8985 -23.6454 -23.6411 -23.6389 -23.6380
   -19.1676 -19.1660 -19.1500 -19.1455 -18.8482 -18.8481 -18.8433 -18.8428
   -18.2446 -18.2341 -17.2151 -17.1942 -17.0670 -17.0660 -16.0463 -16.0408
   -12.1048 -12.1038 -12.0562 -12.0134 -11.8692 -11.8440 -11.7725 -11.7640
    -8.8757  -8.8595  -8.2774  -8.2622  -7.5618  -7.5441  -7.4400  -7.4391
    -6.8394  -6.7923  -6.5555  -6.5228  -6.5190  -6.4633  -6.3276  -6.3010
    -6.1464  -6.1290  -6.0033  -5.9685  -5.9029  -5.8601  -5.7639  -5.7485
    -5.6229  -5.6103  -5.5377  -5.5175  -5.0909  -5.0243  -4.9768  -4.9534
    -4.4750  -4.4684  -4.3893  -4.3721  -4.2114  -4.1628  -3.8530  -3.8477
    -3.6677  -3.6182  -3.5225  -3.5035  -3.1572  -3.1416  -3.0442  -3.0369
    -0.7974  -0.7949  -0.3055  -0.2975  -0.2262  -0.1898  -0.1225  -0.1163
     0.0087   0.0182   0.1942   0.2042   0.2354   0.2414   0.3938   0.3960
     0.4157   0.4385   0.6450   0.6717   0.7536   0.7703   0.8802   0.9000
     0.9500   0.9968   1.0875   1.1128   1.2487   1.3031   1.3749   1.3824

     occupation numbers 
     1.0000   1.0000   1.0000   1.0000   1.0000   1.0000   1.0000   1.0000
     1.0000   1.0000   1.0000   1.0000   1.0000   1.0000   1.0000   1.0000
     1.0000   1.0000   1.0000   1.0000   1.0000   1.0000   1.0000   1.0000
     1.0000   1.0000   1.0000   1.0000   1.0000   1.0000   1.0000   1.0000
     1.0000   1.0000   1.0000   1.0000   1.0000   1.0000   1.0000   1.0000
     1.0000   1.0000   1.0000   1.0000   1.0000   1.0000   1.0000   1.0000
     1.0000   1.0000   1.0000   1.0000   1.0000   1.0000   1.0000   1.0000
     1.0000   1.0000   1.0000   1.0000   1.0000   1.0000   1.0000   1.0000
     1.0000   1.0000   1.0000   1.0000   1.0000   1.0000   1.0000   1.0000
     1.0000   1.0000   1.0000   1.0000   1.0000   1.0000   1.0000   1.0000
     1.0000   1.0000   1.0000   1.0000   1.0000   1.0000   1.0000   1.0000
     1.0000   1.0000   1.0000   1.0000   1.0000   1.0000   1.0000   1.0000
     1.0000   1.0000   1.0000   1.0000   1.0000   1.0000   1.0000   1.0000
     1.0000   1.0000   1.0000   1.0000   1.0000   1.0000   1.0000   1.0000

          k =-0.0192 0.0342-0.0565 ( 41879 PWs)   bands (ev):

   -23.9303 -23.9264 -23.9030 -23.9024 -23.6489 -23.6476 -23.6351 -23.6332
   -19.1660 -19.1645 -19.1517 -19.1483 -18.8541 -18.8538 -18.8383 -18.8377
   -18.2399 -18.2398 -17.2054 -17.2044 -17.0624 -17.0613 -16.0452 -16.0445
   -12.1128 -12.1120 -12.0244 -12.0159 -11.8581 -11.8534 -11.7856 -11.7819
    -8.8563  -8.8414  -8.2621  -8.2518  -7.5688  -7.5485  -7.4049  -7.3740
    -6.8894  -6.8426  -6.5810  -6.5707  -6.4976  -6.4490  -6.3871  -6.3679
    -6.1508  -6.1218  -5.9856  -5.9379  -5.8701  -5.8370  -5.8028  -5.7854
    -5.7011  -5.6671  -5.4832  -5.4620  -5.0752  -5.0226  -4.9784  -4.9410
    -4.4013  -4.3866  -4.3598  -4.3232  -4.1562  -4.1428  -3.9708  -3.9694
    -3.6624  -3.6413  -3.4716  -3.4664  -3.1832  -3.1794  -3.0365  -3.0246
    -0.7576  -0.7436  -0.3190  -0.3099  -0.2328  -0.2054  -0.1489  -0.1325
    -0.0539  -0.0360   0.1172   0.1379   0.2392   0.2640   0.3348   0.3463
     0.5631   0.5902   0.6648   0.6849   0.7817   0.7910   0.8292   0.8596
     0.9866   1.0071   1.1067   1.1164   1.2469   1.2755   1.3770   1.3870

     occupation numbers 
     1.0000   1.0000   1.0000   1.0000   1.0000   1.0000   1.0000   1.0000
     1.0000   1.0000   1.0000   1.0000   1.0000   1.0000   1.0000   1.0000
     1.0000   1.0000   1.0000   1.0000   1.0000   1.0000   1.0000   1.0000
     1.0000   1.0000   1.0000   1.0000   1.0000   1.0000   1.0000   1.0000
     1.0000   1.0000   1.0000   1.0000   1.0000   1.0000   1.0000   1.0000
     1.0000   1.0000   1.0000   1.0000   1.0000   1.0000   1.0000   1.0000
     1.0000   1.0000   1.0000   1.0000   1.0000   1.0000   1.0000   1.0000
     1.0000   1.0000   1.0000   1.0000   1.0000   1.0000   1.0000   1.0000
     1.0000   1.0000   1.0000   1.0000   1.0000   1.0000   1.0000   1.0000
     1.0000   1.0000   1.0000   1.0000   1.0000   1.0000   1.0000   1.0000
     1.0000   1.0000   1.0000   1.0000   1.0000   1.0000   1.0000   1.0000
     1.0000   1.0000   1.0000   1.0000   1.0000   1.0000   1.0000   1.0000
     1.0000   1.0000   1.0000   1.0000   1.0000   1.0000   1.0000   1.0000
     1.0000   1.0000   1.0000   1.0000   1.0000   1.0000   1.0000   1.0000

          k =-0.0192 0.0342 0.0480 ( 41901 PWs)   bands (ev):

   -23.9313 -23.9268 -23.9038 -23.9001 -23.6507 -23.6493 -23.6327 -23.6321
   -19.1642 -19.1636 -19.1516 -19.1511 -18.8557 -18.8554 -18.8366 -18.8360
   -18.2445 -18.2342 -17.2140 -17.1948 -17.0653 -17.0646 -16.0447 -16.0382
   -12.1200 -12.1148 -12.0435 -12.0105 -11.8622 -11.8343 -11.7857 -11.7800
    -8.8523  -8.8177  -8.2566  -8.2551  -7.5716  -7.5663  -7.4086  -7.3604
    -6.8854  -6.8394  -6.5984  -6.5723  -6.4970  -6.4840  -6.4181  -6.3975
    -6.1303  -6.1134  -6.0037  -5.9739  -5.8234  -5.8081  -5.7869  -5.7656
    -5.7014  -5.6670  -5.4718  -5.4445  -5.1064  -5.0549  -4.9403  -4.9071
    -4.4408  -4.4125  -4.3137  -4.2928  -4.1835  -4.1658  -3.9632  -3.9427
    -3.6656  -3.6436  -3.5024  -3.4681  -3.1823  -3.1716  -3.0358  -3.0324
    -0.6868  -0.6622  -0.3157  -0.3118  -0.2482  -0.2314  -0.1957  -0.1732
    -0.1081  -0.0970   0.0866   0.1179   0.2544   0.2706   0.3105   0.3371
     0.6131   0.6463   0.7108   0.7244   0.7387   0.7857   0.8523   0.8574
     0.9915   1.0091   1.1311   1.1524   1.2351   1.2467   1.3651   1.3738

     occupation numbers 
     1.0000   1.0000   1.0000   1.0000   1.0000   1.0000   1.0000   1.0000
     1.0000   1.0000   1.0000   1.0000   1.0000   1.0000   1.0000   1.0000
     1.0000   1.0000   1.0000   1.0000   1.0000   1.0000   1.0000   1.0000
     1.0000   1.0000   1.0000   1.0000   1.0000   1.0000   1.0000   1.0000
     1.0000   1.0000   1.0000   1.0000   1.0000   1.0000   1.0000   1.0000
     1.0000   1.0000   1.0000   1.0000   1.0000   1.0000   1.0000   1.0000
     1.0000   1.0000   1.0000   1.0000   1.0000   1.0000   1.0000   1.0000
     1.0000   1.0000   1.0000   1.0000   1.0000   1.0000   1.0000   1.0000
     1.0000   1.0000   1.0000   1.0000   1.0000   1.0000   1.0000   1.0000
     1.0000   1.0000   1.0000   1.0000   1.0000   1.0000   1.0000   1.0000
     1.0000   1.0000   1.0000   1.0000   1.0000   1.0000   1.0000   1.0000
     1.0000   1.0000   1.0000   1.0000   1.0000   1.0000   1.0000   1.0000
     1.0000   1.0000   1.0000   1.0000   1.0000   1.0000   1.0000   1.0000
     1.0000   1.0000   1.0000   1.0000   1.0000   1.0000   1.0000   1.0000

          k =-0.0192 0.0342 0.0131 ( 41882 PWs)   bands (ev):

   -23.9366 -23.9278 -23.9017 -23.8973 -23.6484 -23.6448 -23.6353 -23.6347
   -19.1666 -19.1649 -19.1507 -19.1470 -18.8518 -18.8515 -18.8395 -18.8395
   -18.2463 -18.2315 -17.2184 -17.1899 -17.0698 -17.0695 -16.0444 -16.0359
   -12.1139 -12.1083 -12.0617 -12.0170 -11.8643 -11.8358 -11.7706 -11.7633
    -8.8725  -8.8350  -8.2746  -8.2634  -7.5695  -7.5594  -7.4521  -7.4182
[...]
     1.0000   1.0000   1.0000   1.0000   1.0000   1.0000   1.0000   1.0000
     1.0000   1.0000   1.0000   1.0000   1.0000   1.0000   1.0000   1.0000
     1.0000   1.0000   1.0000   1.0000   1.0000   1.0000   1.0000   1.0000
     1.0000   1.0000   1.0000   1.0000   1.0000   1.0000   1.0000   1.0000
     1.0000   1.0000   1.0000   1.0000   1.0000   1.0000   1.0000   1.0000
     1.0000   1.0000   1.0000   1.0000   1.0000   1.0000   1.0000   1.0000
     1.0000   1.0000   1.0000   1.0000   1.0000   1.0000   1.0000   1.0000
     1.0000   1.0000   1.0000   1.0000   1.0000   1.0000   1.0000   1.0000
     1.0000   1.0000   1.0000   1.0000   1.0000   1.0000   1.0000   1.0000
     1.0000   1.0000   1.0000   1.0000   1.0000   1.0000   1.0000   1.0000
     1.0000   1.0000   1.0000   1.0000   1.0000   1.0000   1.0000   1.0000
     1.0000   1.0000   1.0000   1.0000   1.0000   1.0000   1.0000   1.0000
     1.0000   1.0000   1.0000   1.0000   1.0000   1.0000   1.0000   1.0000
     1.0000   1.0000   1.0000   1.0000   1.0000   1.0000   1.0000   1.0000

          k =-0.0575 0.0114-0.0651 ( 41893 PWs)   bands (ev):

   -23.9266 -23.9237 -23.9073 -23.8991 -23.6465 -23.6462 -23.6429 -23.6333
   -19.1662 -19.1630 -19.1575 -19.1467 -18.8606 -18.8583 -18.8349 -18.8313
   -18.2608 -18.2361 -17.2235 -17.1794 -17.0584 -17.0548 -16.0620 -16.0433
   -12.1148 -12.1107 -12.0280 -11.9505 -11.8389 -11.7922 -11.7918 -11.7767
    -8.9303  -8.8080  -8.2816  -8.2452  -7.5664  -7.5409  -7.4768  -7.3417
    -7.0842  -6.8579  -6.6797  -6.5109  -6.5006  -6.4385  -6.4164  -6.3157
    -6.2601  -6.1785  -5.9901  -5.9628  -5.9159  -5.8617  -5.7953  -5.7370
    -5.6318  -5.5786  -5.5081  -5.4369  -5.1602  -4.9977  -4.9852  -4.9240
    -4.3998  -4.3851  -4.3261  -4.2827  -4.0001  -3.9619  -3.9094  -3.8708
    -3.7636  -3.6674  -3.5980  -3.5049  -3.2029  -3.1761  -3.0507  -2.9931
    -0.8331  -0.7899  -0.3021  -0.2663  -0.2049  -0.1744  -0.1174  -0.0787
    -0.0304   0.0019   0.1733   0.2058   0.2242   0.2441   0.3163   0.4112
     0.4933   0.5122   0.5617   0.6716   0.7686   0.8010   0.8455   0.8758
     0.9712   1.0097   1.0246   1.0522   1.3009   1.3379   1.3563   1.4008

     occupation numbers 
     1.0000   1.0000   1.0000   1.0000   1.0000   1.0000   1.0000   1.0000
     1.0000   1.0000   1.0000   1.0000   1.0000   1.0000   1.0000   1.0000
     1.0000   1.0000   1.0000   1.0000   1.0000   1.0000   1.0000   1.0000
     1.0000   1.0000   1.0000   1.0000   1.0000   1.0000   1.0000   1.0000
     1.0000   1.0000   1.0000   1.0000   1.0000   1.0000   1.0000   1.0000
     1.0000   1.0000   1.0000   1.0000   1.0000   1.0000   1.0000   1.0000
     1.0000   1.0000   1.0000   1.0000   1.0000   1.0000   1.0000   1.0000
     1.0000   1.0000   1.0000   1.0000   1.0000   1.0000   1.0000   1.0000
     1.0000   1.0000   1.0000   1.0000   1.0000   1.0000   1.0000   1.0000
     1.0000   1.0000   1.0000   1.0000   1.0000   1.0000   1.0000   1.0000
     1.0000   1.0000   1.0000   1.0000   1.0000   1.0000   1.0000   1.0000
     1.0000   1.0000   1.0000   1.0000   1.0000   1.0000   1.0000   1.0000
     1.0000   1.0000   1.0000   1.0000   1.0000   1.0000   1.0000   1.0000
     1.0000   1.0000   1.0000   1.0000   1.0000   1.0000   1.0000   1.0000

          k =-0.0575 0.0114 0.0394 ( 41865 PWs)   bands (ev):

   -23.9283 -23.9225 -23.9089 -23.8969 -23.6497 -23.6486 -23.6385 -23.6321
   -19.1642 -19.1621 -19.1577 -19.1496 -18.8616 -18.8594 -18.8337 -18.8302
   -18.2653 -18.2303 -17.2335 -17.1689 -17.0612 -17.0582 -16.0617 -16.0371
   -12.1190 -12.1115 -12.0522 -11.9294 -11.8553 -11.7913 -11.7864 -11.7653
    -8.9254  -8.7836  -8.2757  -8.2467  -7.5651  -7.5461  -7.4986  -7.3294
    -7.1020  -6.8602  -6.6669  -6.5317  -6.5012  -6.4799  -6.4051  -6.3401
    -6.2643  -6.1946  -5.9781  -5.9227  -5.8846  -5.8684  -5.7956  -5.7526
    -5.6063  -5.5744  -5.5150  -5.4357  -5.1505  -5.0220  -4.9590  -4.9105
    -4.4024  -4.3640  -4.3243  -4.2988  -4.0257  -4.0025  -3.8568  -3.8495
    -3.7104  -3.6973  -3.6571  -3.5122  -3.2070  -3.1718  -3.0462  -2.9986
    -0.7908  -0.7257  -0.2948  -0.2425  -0.2184  -0.1943  -0.1241  -0.0993
    -0.0909  -0.0499   0.1049   0.1878   0.2234   0.2662   0.2834   0.3089
     0.5431   0.6162   0.6435   0.6589   0.7670   0.7951   0.8665   0.8881
     0.9614   0.9896   1.0432   1.1087   1.3168   1.3332   1.3379   1.3638

     occupation numbers 
     1.0000   1.0000   1.0000   1.0000   1.0000   1.0000   1.0000   1.0000
     1.0000   1.0000   1.0000   1.0000   1.0000   1.0000   1.0000   1.0000
     1.0000   1.0000   1.0000   1.0000   1.0000   1.0000   1.0000   1.0000
     1.0000   1.0000   1.0000   1.0000   1.0000   1.0000   1.0000   1.0000
     1.0000   1.0000   1.0000   1.0000   1.0000   1.0000   1.0000   1.0000
     1.0000   1.0000   1.0000   1.0000   1.0000   1.0000   1.0000   1.0000
     1.0000   1.0000   1.0000   1.0000   1.0000   1.0000   1.0000   1.0000
     1.0000   1.0000   1.0000   1.0000   1.0000   1.0000   1.0000   1.0000
     1.0000   1.0000   1.0000   1.0000   1.0000   1.0000   1.0000   1.0000
     1.0000   1.0000   1.0000   1.0000   1.0000   1.0000   1.0000   1.0000
     1.0000   1.0000   1.0000   1.0000   1.0000   1.0000   1.0000   1.0000
     1.0000   1.0000   1.0000   1.0000   1.0000   1.0000   1.0000   1.0000
     1.0000   1.0000   1.0000   1.0000   1.0000   1.0000   1.0000   1.0000
     1.0000   1.0000   1.0000   1.0000   1.0000   1.0000   1.0000   1.0000

          k =-0.0575 0.0114 0.0046 ( 41868 PWs)   bands (ev):

   -23.9316 -23.9206 -23.9073 -23.8984 -23.6503 -23.6468 -23.6362 -23.6345
   -19.1636 -19.1618 -19.1540 -19.1528 -18.8534 -18.8524 -18.8393 -18.8380
   -18.2580 -18.2330 -17.2258 -17.1783 -17.0702 -17.0699 -16.0502 -16.0342
   -12.1074 -12.1019 -12.0398 -11.9398 -11.8639 -11.8039 -11.7767 -11.7742
    -8.8957  -8.8135  -8.2754  -8.2721  -7.5615  -7.5515  -7.5392  -7.4349
    -6.9984  -6.9082  -6.6302  -6.6057  -6.4735  -6.4698  -6.2982  -6.2663
    -6.1851  -6.1801  -5.9597  -5.9248  -5.8592  -5.8265  -5.7786  -5.7701
    -5.6306  -5.6168  -5.5499  -5.5401  -5.1090  -5.0897  -4.8982  -4.8910
    -4.4555  -4.4295  -4.3798  -4.3492  -4.0481  -4.0139  -3.7748  -3.7679
    -3.7027  -3.6773  -3.6325  -3.5809  -3.1762  -3.1427  -3.0479  -3.0309
    -0.7032  -0.6547  -0.2993  -0.2896  -0.2118  -0.2083  -0.1764  -0.1749
    -0.0806  -0.0513   0.0643   0.1281   0.1878   0.2278   0.3228   0.3588
     0.5618   0.6280   0.7125   0.7505   0.7670   0.8100   0.8782   0.9016
     0.9334   0.9507   1.0257   1.1123   1.3043   1.3107   1.3316   1.3491

     occupation numbers 
     1.0000   1.0000   1.0000   1.0000   1.0000   1.0000   1.0000   1.0000
     1.0000   1.0000   1.0000   1.0000   1.0000   1.0000   1.0000   1.0000
     1.0000   1.0000   1.0000   1.0000   1.0000   1.0000   1.0000   1.0000
     1.0000   1.0000   1.0000   1.0000   1.0000   1.0000   1.0000   1.0000
     1.0000   1.0000   1.0000   1.0000   1.0000   1.0000   1.0000   1.0000
     1.0000   1.0000   1.0000   1.0000   1.0000   1.0000   1.0000   1.0000
     1.0000   1.0000   1.0000   1.0000   1.0000   1.0000   1.0000   1.0000
     1.0000   1.0000   1.0000   1.0000   1.0000   1.0000   1.0000   1.0000
     1.0000   1.0000   1.0000   1.0000   1.0000   1.0000   1.0000   1.0000
     1.0000   1.0000   1.0000   1.0000   1.0000   1.0000   1.0000   1.0000
     1.0000   1.0000   1.0000   1.0000   1.0000   1.0000   1.0000   1.0000
     1.0000   1.0000   1.0000   1.0000   1.0000   1.0000   1.0000   1.0000
     1.0000   1.0000   1.0000   1.0000   1.0000   1.0000   1.0000   1.0000
     1.0000   1.0000   1.0000   1.0000   1.0000   1.0000   1.0000   1.0000

          k =-0.0575 0.0342-0.0303 ( 41838 PWs)   bands (ev):

   -23.9276 -23.9235 -23.9037 -23.9033 -23.6456 -23.6445 -23.6398 -23.6377
   -19.1657 -19.1646 -19.1525 -19.1492 -18.8505 -18.8500 -18.8416 -18.8411
   -18.2462 -18.2461 -17.2030 -17.2021 -17.0672 -17.0663 -16.0459 -16.0451
   -12.1022 -12.1020 -11.9915 -11.9831 -11.8348 -11.8283 -11.7828 -11.7765
    -8.8763  -8.8625  -8.2773  -8.2679  -7.5545  -7.5445  -7.5011  -7.4768
    -6.9850  -6.9600  -6.5982  -6.5550  -6.4606  -6.4354  -6.2914  -6.2567
    -6.1920  -6.1640  -5.9902  -5.9613  -5.8850  -5.8588  -5.7640  -5.7433
    -5.6364  -5.6229  -5.5488  -5.5412  -5.1198  -5.0738  -4.9220  -4.9176
    -4.4467  -4.4346  -4.3770  -4.3566  -4.0192  -3.9945  -3.7981  -3.7820
    -3.7158  -3.6723  -3.5876  -3.5809  -3.1591  -3.1561  -3.0496  -3.0365
    -0.7496  -0.7436  -0.2863  -0.2792  -0.2388  -0.2200  -0.1019  -0.0811
    -0.0616  -0.0459   0.1218   0.1378   0.2100   0.2242   0.3499   0.3606
     0.5999   0.6065   0.6341   0.6630   0.7792   0.7866   0.8709   0.8903
     0.9486   0.9788   1.0155   1.0394   1.2969   1.3090   1.3629   1.3780

     occupation numbers 
     1.0000   1.0000   1.0000   1.0000   1.0000   1.0000   1.0000   1.0000
     1.0000   1.0000   1.0000   1.0000   1.0000   1.0000   1.0000   1.0000
     1.0000   1.0000   1.0000   1.0000   1.0000   1.0000   1.0000   1.0000
     1.0000   1.0000   1.0000   1.0000   1.0000   1.0000   1.0000   1.0000
     1.0000   1.0000   1.0000   1.0000   1.0000   1.0000   1.0000   1.0000
     1.0000   1.0000   1.0000   1.0000   1.0000   1.0000   1.0000   1.0000
     1.0000   1.0000   1.0000   1.0000   1.0000   1.0000   1.0000   1.0000
     1.0000   1.0000   1.0000   1.0000   1.0000   1.0000   1.0000   1.0000
     1.0000   1.0000   1.0000   1.0000   1.0000   1.0000   1.0000   1.0000
     1.0000   1.0000   1.0000   1.0000   1.0000   1.0000   1.0000   1.0000
     1.0000   1.0000   1.0000   1.0000   1.0000   1.0000   1.0000   1.0000
     1.0000   1.0000   1.0000   1.0000   1.0000   1.0000   1.0000   1.0000
     1.0000   1.0000   1.0000   1.0000   1.0000   1.0000   1.0000   1.0000
     1.0000   1.0000   1.0000   1.0000   1.0000   1.0000   1.0000   1.0000

          k =-0.0575 0.0342-0.0651 ( 41858 PWs)   bands (ev):

   -23.9253 -23.9242 -23.9054 -23.9020 -23.6463 -23.6461 -23.6402 -23.6361
   -19.1665 -19.1657 -19.1526 -19.1486 -18.8599 -18.8590 -18.8338 -18.8324
   -18.2537 -18.2435 -17.2106 -17.1923 -17.0573 -17.0559 -16.0564 -16.0487
   -12.1157 -12.1138 -12.0049 -11.9737 -11.8228 -11.8039 -11.7878 -11.7815
    -8.8958  -8.8452  -8.2694  -8.2542  -7.5432  -7.5302  -7.4644  -7.4026
    -7.0420  -6.9622  -6.5816  -6.5275  -6.4891  -6.4678  -6.3738  -6.3188
    -6.2450  -6.1944  -5.9695  -5.9518  -5.9120  -5.8898  -5.8077  -5.7705
    -5.6222  -5.6011  -5.4784  -5.4494  -5.1222  -5.0539  -4.9652  -4.9392
    -4.3848  -4.3651  -4.3224  -4.2883  -3.9865  -3.9715  -3.9015  -3.8856
    -3.7415  -3.7075  -3.5641  -3.5284  -3.1956  -3.1847  -3.0345  -3.0106
    -0.8171  -0.7995  -0.2893  -0.2734  -0.2326  -0.2229  -0.0915  -0.0799
    -0.0003   0.0111   0.1906   0.2013   0.2387   0.2508   0.3390   0.3836
     0.4785   0.4882   0.6125   0.6686   0.7469   0.7829   0.8570   0.8737
     0.9635   0.9874   1.0436   1.0592   1.3106   1.3255   1.3696   1.3876

     occupation numbers 
     1.0000   1.0000   1.0000   1.0000   1.0000   1.0000   1.0000   1.0000
     1.0000   1.0000   1.0000   1.0000   1.0000   1.0000   1.0000   1.0000
     1.0000   1.0000   1.0000   1.0000   1.0000   1.0000   1.0000   1.0000
     1.0000   1.0000   1.0000   1.0000   1.0000   1.0000   1.0000   1.0000
     1.0000   1.0000   1.0000   1.0000   1.0000   1.0000   1.0000   1.0000
     1.0000   1.0000   1.0000   1.0000   1.0000   1.0000   1.0000   1.0000
     1.0000   1.0000   1.0000   1.0000   1.0000   1.0000   1.0000   1.0000
     1.0000   1.0000   1.0000   1.0000   1.0000   1.0000   1.0000   1.0000
     1.0000   1.0000   1.0000   1.0000   1.0000   1.0000   1.0000   1.0000
     1.0000   1.0000   1.0000   1.0000   1.0000   1.0000   1.0000   1.0000
     1.0000   1.0000   1.0000   1.0000   1.0000   1.0000   1.0000   1.0000
     1.0000   1.0000   1.0000   1.0000   1.0000   1.0000   1.0000   1.0000
     1.0000   1.0000   1.0000   1.0000   1.0000   1.0000   1.0000   1.0000
     1.0000   1.0000   1.0000   1.0000   1.0000   1.0000   1.0000   1.0000

          k =-0.0575 0.0342 0.0394 ( 41878 PWs)   bands (ev):

   -23.9268 -23.9244 -23.9053 -23.9004 -23.6491 -23.6486 -23.6368 -23.6341
   -19.1650 -19.1646 -19.1534 -19.1506 -18.8610 -18.8600 -18.8327 -18.8312
   -18.2555 -18.2410 -17.2143 -17.1875 -17.0604 -17.0592 -16.0542 -16.0441
   -12.1198 -12.1171 -12.0198 -11.9736 -11.8245 -11.8016 -11.7814 -11.7731
    -8.8859  -8.8274  -8.2668  -8.2547  -7.5482  -7.5306  -7.4763  -7.3966
    -7.0480  -6.9605  -6.5811  -6.5416  -6.5001  -6.4794  -6.4227  -6.3670
    -6.2096  -6.1684  -5.9730  -5.9379  -5.8920  -5.8835  -5.8023  -5.7741
    -5.6035  -5.5902  -5.4776  -5.4450  -5.1359  -5.0832  -4.9332  -4.9125
    -4.4026  -4.3860  -4.2957  -4.2782  -4.0155  -4.0066  -3.8572  -3.8539
    -3.7199  -3.7139  -3.6050  -3.5488  -3.1948  -3.1794  -3.0362  -3.0159
    -0.7693  -0.7420  -0.2852  -0.2659  -0.2406  -0.2237  -0.1038  -0.0966
    -0.0619  -0.0369   0.1329   0.1643   0.2320   0.2491   0.2876   0.3116
     0.5674   0.5952   0.6697   0.6723   0.7639   0.7762   0.8513   0.8586
     0.9720   0.9896   1.0687   1.0938   1.3203   1.3285   1.3432   1.3553

     occupation numbers 
     1.0000   1.0000   1.0000   1.0000   1.0000   1.0000   1.0000   1.0000
     1.0000   1.0000   1.0000   1.0000   1.0000   1.0000   1.0000   1.0000
     1.0000   1.0000   1.0000   1.0000   1.0000   1.0000   1.0000   1.0000
     1.0000   1.0000   1.0000   1.0000   1.0000   1.0000   1.0000   1.0000
     1.0000   1.0000   1.0000   1.0000   1.0000   1.0000   1.0000   1.0000
     1.0000   1.0000   1.0000   1.0000   1.0000   1.0000   1.0000   1.0000
     1.0000   1.0000   1.0000   1.0000   1.0000   1.0000   1.0000   1.0000
     1.0000   1.0000   1.0000   1.0000   1.0000   1.0000   1.0000   1.0000
     1.0000   1.0000   1.0000   1.0000   1.0000   1.0000   1.0000   1.0000
     1.0000   1.0000   1.0000   1.0000   1.0000   1.0000   1.0000   1.0000
     1.0000   1.0000   1.0000   1.0000   1.0000   1.0000   1.0000   1.0000
     1.0000   1.0000   1.0000   1.0000   1.0000   1.0000   1.0000   1.0000
     1.0000   1.0000   1.0000   1.0000   1.0000   1.0000   1.0000   1.0000
     1.0000   1.0000   1.0000   1.0000   1.0000   1.0000   1.0000   1.0000

          k =-0.0575 0.0342 0.0046 ( 41862 PWs)   bands (ev):

   -23.9286 -23.9241 -23.9045 -23.9009 -23.6488 -23.6473 -23.6362 -23.6354
   -19.1640 -19.1634 -19.1526 -19.1522 -18.8531 -18.8527 -18.8389 -18.8384
   -18.2509 -18.2405 -17.2118 -17.1922 -17.0701 -17.0699 -16.0454 -16.0388
   -12.1070 -12.1050 -12.0146 -11.9760 -11.8380 -11.8155 -11.7770 -11.7750
    -8.8722  -8.8383  -8.2733  -8.2704  -7.5581  -7.5541  -7.5118  -7.4685
    -6.9863  -6.9502  -6.5916  -6.5799  -6.4608  -6.4554  -6.3537  -6.3410
    -6.1387  -6.1313  -5.9702  -5.9496  -5.8516  -5.8380  -5.7608  -5.7553
    -5.6335  -5.6196  -5.5471  -5.5439  -5.1137  -5.1031  -4.8941  -4.8921
    -4.4556  -4.4392  -4.3771  -4.3541  -4.0256  -4.0111  -3.7765  -3.7745
    -3.6792  -3.6516  -3.6483  -3.6087  -3.1651  -3.1501  -3.0488  -3.0425
    -0.6873  -0.6672  -0.2846  -0.2779  -0.2292  -0.2066  -0.1980  -0.1791
    -0.0802  -0.0594   0.0876   0.1149   0.2065   0.2262   0.3332   0.3528
     0.5926   0.6273   0.6947   0.7184   0.7737   0.8026   0.8836   0.8889
     0.9523   0.9635   1.0422   1.0819   1.3071   1.3087   1.3360   1.3438

     occupation numbers 
     1.0000   1.0000   1.0000   1.0000   1.0000   1.0000   1.0000   1.0000
     1.0000   1.0000   1.0000   1.0000   1.0000   1.0000   1.0000   1.0000
     1.0000   1.0000   1.0000   1.0000   1.0000   1.0000   1.0000   1.0000
     1.0000   1.0000   1.0000   1.0000   1.0000   1.0000   1.0000   1.0000
     1.0000   1.0000   1.0000   1.0000   1.0000   1.0000   1.0000   1.0000
     1.0000   1.0000   1.0000   1.0000   1.0000   1.0000   1.0000   1.0000
     1.0000   1.0000   1.0000   1.0000   1.0000   1.0000   1.0000   1.0000
     1.0000   1.0000   1.0000   1.0000   1.0000   1.0000   1.0000   1.0000
     1.0000   1.0000   1.0000   1.0000   1.0000   1.0000   1.0000   1.0000
     1.0000   1.0000   1.0000   1.0000   1.0000   1.0000   1.0000   1.0000
     1.0000   1.0000   1.0000   1.0000   1.0000   1.0000   1.0000   1.0000
     1.0000   1.0000   1.0000   1.0000   1.0000   1.0000   1.0000   1.0000
     1.0000   1.0000   1.0000   1.0000   1.0000   1.0000   1.0000   1.0000
     1.0000   1.0000   1.0000   1.0000   1.0000   1.0000   1.0000   1.0000

     highest occupied level (ev):     1.4008

!    total energy              =   -1282.01190334 Ry
     Harris-Foulkes estimate   =   -1282.01190398 Ry
     estimated scf accuracy    <       0.00000070 Ry

     total all-electron energy =     -4786.455651 Ry

     The total energy is the sum of the following terms:

     one-electron contribution =    -643.01259845 Ry
     hartree contribution      =     419.77186434 Ry
     xc contribution           =    -260.28294550 Ry
     ewald contribution        =    -468.09466675 Ry
     one-center paw contrib.   =    -330.39355698 Ry

     convergence has been achieved in  19 iterations

     Writing output data file scf.pbe-ec-80-kp444.HMX-792829-nofor.nostress.save

     init_run     :    406.43s CPU    456.06s WALL (       1 calls)
     electrons    :  17378.70s CPU  19116.68s WALL (       1 calls)

     Called by init_run:
     wfcinit      :    324.12s CPU    353.66s WALL (       1 calls)
     potinit      :     27.78s CPU     31.96s WALL (       1 calls)

     Called by electrons:
     c_bands      :  15281.19s CPU  16750.06s WALL (      19 calls)
     sum_band     :   1914.63s CPU   2156.31s WALL (      19 calls)
     v_of_rho     :     29.21s CPU     32.29s WALL (      20 calls)
     v_h          :      2.84s CPU      2.98s WALL (      20 calls)
     v_xc         :     26.37s CPU     29.31s WALL (      20 calls)
     newd         :    137.91s CPU    170.06s WALL (      20 calls)
     PAW_pot      :     13.47s CPU     14.19s WALL (      20 calls)
     mix_rho      :      6.62s CPU      7.28s WALL (      19 calls)

     Called by c_bands:
     init_us_2    :     69.63s CPU     70.94s WALL (    1248 calls)
     cegterg      :  15159.07s CPU  16599.96s WALL (     608 calls)

     Called by sum_band:
     sum_band:bec :      0.64s CPU      0.62s WALL (     608 calls)
     addusdens    :    228.55s CPU    364.27s WALL (      19 calls)

     Called by *egterg:
     h_psi        :   7682.65s CPU   8334.67s WALL (    2913 calls)
     s_psi        :   1835.68s CPU   1941.41s WALL (    2913 calls)
     g_psi        :     13.08s CPU     16.78s WALL (    2273 calls)
     cdiaghg      :    683.82s CPU    704.02s WALL (    2881 calls)
     cegterg:over :   1921.06s CPU   2194.78s WALL (    2273 calls)
     cegterg:upda :   1140.91s CPU   1184.34s WALL (    2273 calls)
     cegterg:last :    751.44s CPU    815.19s WALL (     672 calls)

     Called by h_psi:
     h_psi:vloc   :   4083.00s CPU   4418.31s WALL (    2913 calls)
     h_psi:vnl    :   3555.61s CPU   3870.99s WALL (    2913 calls)
     add_vuspsi   :   1835.56s CPU   1981.72s WALL (    2913 calls)

     General routines
     calbec       :   2260.20s CPU   2475.59s WALL (    3521 calls)
     fft          :     33.28s CPU     49.26s WALL (     316 calls)
     ffts         :      0.46s CPU      0.79s WALL (      39 calls)
     fftw         :   2599.48s CPU   2945.09s WALL (  486730 calls)
     interpolate  :      4.86s CPU      5.50s WALL (      39 calls)
     davcio       :      1.26s CPU     45.81s WALL (      32 calls)

     Parallel routines
     fft_scatter  :   1162.13s CPU   1497.80s WALL (  487085 calls)

     PAW routines
     PAW_pot      :     13.47s CPU     14.19s WALL (      20 calls)
     PAW_symme    :      0.02s CPU      0.02s WALL (      39 calls)

     PWSCF        :     4h56m CPU        5h27m WALL


   This run was terminated on:  22:41:20  23May2016            

=------------------------------------------------------------------------------=
   JOB DONE.
=------------------------------------------------------------------------------=
