
     Program PWSCF v.5.3.0 (svn rev. 11974) starts on 23May2016 at 22:41:23 

     This program is part of the open-source Quantum ESPRESSO suite
     for quantum simulation of materials; please cite
         "P. Giannozzi et al., J. Phys.:Condens. Matter 21 395502 (2009);
          URL http://www.quantum-espresso.org", 
     in publications or presentations arising from this work. More details at
     http://www.quantum-espresso.org/quote

     Parallel version (MPI), running on     8 processors
     R & G space division:  proc/nbgrp/npool/nimage =       8
     Waiting for input...
     Reading input from standard input
Warning: card    &IONS ignored
Warning: card TRUST_RADIUS_MAX=0.2 ignored
Warning: card / ignored
Warning: card     &CELL ignored
Warning: card CELL_DYNAMICS='BFGS' ignored
Warning: card / ignored

     Current dimensions of program PWSCF are:
     Max number of different atomic species (ntypx) = 10
     Max number of k-points (npk) =  40000
     Max angular momentum in pseudopotentials (lmaxx) =  3
               file N.pbe-n-kjpaw_psl.1.0.0.UPF: wavefunction(s)  2S renormalized
               file C.pbe-n-kjpaw_psl.1.0.0.UPF: wavefunction(s)  2S 2P renormalized
               file H.pbe-kjpaw_psl.1.0.0.UPF: wavefunction(s)  1S renormalized
               file O.pbe-n-kjpaw_psl.1.0.0.UPF: wavefunction(s)  2S 2P renormalized

     Subspace diagonalization in iterative solution of the eigenvalue problem:
     a serial algorithm will be used


     Parallelization info
     --------------------
     sticks:   dense  smooth     PW     G-vecs:    dense   smooth      PW
     Min        2543    1016    270               231318    58518    8010
     Max        2544    1017    271               231321    58559    8012
     Sum       20349    8129   2161              1850559   468229   64089


     Title: 
     HMX-scf-pbe-n-kjpaw-kp242-ec-100-nofor-nostress-conv-em4                   


     bravais-lattice index     =            0
     lattice parameter (alat)  =       1.8897  a.u.
     unit-cell volume          =    3465.5049 (a.u.)^3
     number of atoms/cell      =           56
     number of atomic types    =            4
     number of electrons       =       224.00
     number of Kohn-Sham states=          112
     kinetic-energy cutoff     =     100.0000  Ry
     charge density cutoff     =    1000.0000  Ry
     convergence threshold     =      1.0E-06
     mixing beta               =       0.7000
     number of iterations used =            8  plain     mixing
     Exchange-correlation      =  SLA  PW   PBX  PBC ( 1  4  3  4 0 0)

     celldm(1)=   1.889726  celldm(2)=   0.000000  celldm(3)=   0.000000
     celldm(4)=   0.000000  celldm(5)=   0.000000  celldm(6)=   0.000000

     crystal axes: (cart. coord. in units of alat)
               a(1) = (   6.525400   0.000000   0.000000 )  
               a(2) = (   0.000000  10.970200   0.000000 )  
               a(3) = (  -1.601165   0.000000   7.173784 )  

     reciprocal axes: (cart. coord. in units 2 pi/alat)
               b(1) = (  0.153247 -0.000000  0.034204 )  
               b(2) = (  0.000000  0.091156 -0.000000 )  
               b(3) = (  0.000000  0.000000  0.139396 )  


     PseudoPot. # 1 for  N read from file:
     /users/majewski/.data/PSEUDOPOTENTIALS/N.pbe-n-kjpaw_psl.1.0.0.UPF
     MD5 check sum: c21df8f53e59d08c3548513d559cdda6
     Pseudo is Projector augmented-wave + core cor, Zval =  5.0
     Generated using "atomic" code by A. Dal Corso  v.5.3.0 svn rev. 11974
     Shape of augmentation charge: PSQ
     Using radial grid of 1085 points,  4 beta functions with: 
                l(1) =   0
                l(2) =   0
                l(3) =   1
                l(4) =   1
     Q(r) pseudized with 0 coefficients 


     PseudoPot. # 2 for  C read from file:
     /users/majewski/.data/PSEUDOPOTENTIALS/C.pbe-n-kjpaw_psl.1.0.0.UPF
     MD5 check sum: 2ba8448e293caca687844dde9a1b88a8
     Pseudo is Projector augmented-wave + core cor, Zval =  4.0
     Generated using "atomic" code by A. Dal Corso  v.5.3.0 svn rev. 11974
     Shape of augmentation charge: PSQ
     Using radial grid of 1073 points,  4 beta functions with: 
                l(1) =   0
                l(2) =   0
                l(3) =   1
                l(4) =   1
     Q(r) pseudized with 0 coefficients 


     PseudoPot. # 3 for  H read from file:
     /users/majewski/.data/PSEUDOPOTENTIALS/H.pbe-kjpaw_psl.1.0.0.UPF
     MD5 check sum: bc0feb48a24907a0b97fa6ee2d589a29
     Pseudo is Projector augmented-wave, Zval =  1.0
     Generated using "atomic" code by A. Dal Corso  v.5.3.0 svn rev. 11974
     Shape of augmentation charge: PSQ
     Using radial grid of  929 points,  2 beta functions with: 
                l(1) =   0
                l(2) =   0
     Q(r) pseudized with 0 coefficients 


     PseudoPot. # 4 for  O read from file:
     /users/majewski/.data/PSEUDOPOTENTIALS/O.pbe-n-kjpaw_psl.1.0.0.UPF
     MD5 check sum: 9c0ade6c043cf4a781bde3908a3a8206
     Pseudo is Projector augmented-wave + core cor, Zval =  6.0
     Generated using "atomic" code by A. Dal Corso  v.5.3.0 svn rev. 11974
     Shape of augmentation charge: PSQ
     Using radial grid of 1095 points,  4 beta functions with: 
                l(1) =   0
                l(2) =   0
                l(3) =   1
                l(4) =   1
     Q(r) pseudized with 0 coefficients 


     atomic species   valence    mass     pseudopotential
        N              5.00    14.00670      N( 1.00)
        C              4.00    12.01100      C( 1.00)
        H              1.00     1.00790      H( 1.00)
        O              6.00    15.99940      O( 1.00)

      2 Sym. Ops., with inversion, found
          (note:  2 additional sym.ops. were found but ignored
           their fractional translations are incommensurate with FFT grid)

                                    s                        frac. trans.

      isym =  1     identity                                     

 cryst.   s( 1) = (     1          0          0      )
                  (     0          1          0      )
                  (     0          0          1      )

 cart.    s( 1) = (  1.0000000  0.0000000  0.0000000 )
                  (  0.0000000  1.0000000  0.0000000 )
                  (  0.0000000  0.0000000  1.0000000 )


      isym =  2     inversion                                    

 cryst.   s( 2) = (    -1          0          0      )
                  (     0         -1          0      )
                  (     0          0         -1      )

 cart.    s( 2) = ( -1.0000000  0.0000000  0.0000000 )
                  (  0.0000000 -1.0000000  0.0000000 )
                  (  0.0000000  0.0000000 -1.0000000 )


   Cartesian axes

     site n.     atom                  positions (alat units)
         1           N   tau(   1) = (  -0.8600534   6.8323503   3.3057516  )
         2           O   tau(   2) = (   1.0740307   7.8956917   3.1284874  )
         3           N   tau(   3) = (   0.0641502   7.7134767   3.8085621  )
         4           N   tau(   4) = (  -2.0611165   5.7640722   5.0625396  )
         5           O   tau(   5) = (  -3.2546734   4.7030344   6.6181748  )
         6           N   tau(   6) = (  -3.2420076   5.5007874   5.6931153  )
         7           O   tau(   7) = (  -0.1744868   8.2015409   4.9011295  )
         8           C   tau(   8) = (  -2.1308106   6.7490864   3.9685375  )
         9           H   tau(   9) = (  -2.8209601   6.4811942   3.3272012  )
        10           H   tau(  10) = (  -2.3726867   7.6275801   4.3300962  )
        11           O   tau(  11) = (  -4.2139476   6.1474807   5.2942529  )
        12           C   tau(  12) = (  -0.5939543   6.2077071   2.0208551  )
        13           H   tau(  13) = (  -1.4110814   5.7834894   1.7145345  )
        14           H   tau(  14) = (  -0.3209154   6.8519869   1.3501062  )
        15           H   tau(  15) = (   2.1412023  -1.3668869   4.9369984  )
        16           H   tau(  16) = (   1.0510363  -0.2983894   5.3014266  )
        17           C   tau(  17) = (   1.8681633  -0.7226071   5.6077472  )
        18           O   tau(  18) = (  -1.7518299  -0.6623807   8.8811450  )
        19           H   tau(  19) = (   0.0894310  -2.1424801   7.9169884  )
        20           H   tau(  20) = (  -0.3588424  -0.9960942   6.9140934  )
        21           C   tau(  21) = (   0.3313071  -1.2639864   7.5554297  )
        22           O   tau(  22) = (   2.2876309  -2.7164409   8.4880216  )
        23           N   tau(  23) = (  -0.7798899  -0.0156874   9.2800074  )
        24           O   tau(  24) = (  -0.7925557   0.7820656  10.2050669  )
        25           N   tau(  25) = (   0.4010012  -0.2789722   8.6494318  )
        26           N   tau(  26) = (   2.5262679  -2.2283767   7.3954543  )
        27           O   tau(  27) = (   3.5361484  -2.4105917   6.7153795  )
        28           N   tau(  28) = (   1.6020643  -1.3472503   6.8926437  )
        29           H   tau(  29) = (  -1.2802493   4.1182131   5.8236781  )
        30           H   tau(  30) = (  -0.1900832   5.1867106   5.4592499  )
        31           C   tau(  31) = (  -1.0072103   4.7624929   5.1529293  )
        32           O   tau(  32) = (   2.6127830   4.8227193   1.8795315  )
        33           H   tau(  33) = (   0.7715220   3.3426199   2.8436881  )
        34           H   tau(  34) = (   1.2197954   4.4890058   3.8465832  )
        35           C   tau(  35) = (   0.5296460   4.2211136   3.2052468  )
        36           O   tau(  36) = (  -1.4266778   2.7686591   2.2726549  )
        37           N   tau(  37) = (   1.6408430   5.4694126   1.4806691  )
        38           O   tau(  38) = (   1.6535088   6.2671656   0.5556096  )
        39           N   tau(  39) = (   0.4599518   5.2061278   2.1112447  )
        40           N   tau(  40) = (  -1.6653149   3.2567233   3.3652222  )
        41           O   tau(  41) = (  -2.6751954   3.0745083   4.0452970  )
        42           N   tau(  42) = (  -0.7411112   4.1378497   3.8680328  )
        43           H   tau(  43) = (   1.1818684   1.3668869   9.4105703  )
        44           H   tau(  44) = (   2.2720344   0.2983894   9.0461421  )
        45           C   tau(  45) = (   1.4549074   0.7226071   8.7398215  )
        46           O   tau(  46) = (   5.0749007   0.6623807   5.4664237  )
        47           H   tau(  47) = (   3.2336397   2.1424801   6.4305803  )
        48           H   tau(  48) = (   3.6819131   0.9960942   7.4334753  )
        49           C   tau(  49) = (   2.9917636   1.2639864   6.7921390  )
        50           O   tau(  50) = (   1.0354399   2.7164409   5.8595471  )
        51           N   tau(  51) = (   4.1029606   0.0156874   5.0675613  )
        52           O   tau(  52) = (   4.1156264  -0.7820656   4.1425018  )
        53           N   tau(  53) = (   2.9220695   0.2789722   5.6981369  )
        54           N   tau(  54) = (   0.7968028   2.2283767   6.9521144  )
        55           O   tau(  55) = (  -0.2130777   2.4105917   7.6321892  )
        56           N   tau(  56) = (   1.7210065   1.3472503   7.4549250  )

   Crystallographic axes

     site n.     atom                  positions (cryst. coord.)
         1           N   tau(   1) = ( -0.0187300  0.6228100  0.4608100  )
         2           O   tau(   2) = (  0.2716000  0.7197400  0.4361000  )
         3           N   tau(   3) = (  0.1401000  0.7031300  0.5309000  )
         4           N   tau(   4) = ( -0.1427000  0.5254300  0.7057000  )
         5           O   tau(   5) = ( -0.2724000  0.4287100  0.9225500  )
         6           N   tau(   6) = ( -0.3021000  0.5014300  0.7936000  )
         7           O   tau(   7) = (  0.1409000  0.7476200  0.6832000  )
         8           C   tau(   8) = ( -0.1908000  0.6152200  0.5532000  )
         9           H   tau(   9) = ( -0.3185000  0.5908000  0.4638000  )
        10           H   tau(  10) = ( -0.2155000  0.6953000  0.6036000  )
        11           O   tau(  11) = ( -0.4646900  0.5603800  0.7380000  )
        12           C   tau(  12) = ( -0.0219000  0.5658700  0.2817000  )
        13           H   tau(  13) = ( -0.1576000  0.5272000  0.2390000  )
        14           H   tau(  14) = ( -0.0030000  0.6246000  0.1882000  )
        15           H   tau(  15) = (  0.4970000 -0.1246000  0.6882000  )
        16           H   tau(  16) = (  0.3424000 -0.0272000  0.7390000  )
        17           C   tau(  17) = (  0.4781000 -0.0658700  0.7817000  )
        18           O   tau(  18) = (  0.0353100 -0.0603800  1.2380000  )
        19           H   tau(  19) = (  0.2845000 -0.1953000  1.1036000  )
        20           H   tau(  20) = (  0.1815000 -0.0908000  0.9638000  )
        21           C   tau(  21) = (  0.3092000 -0.1152200  1.0532000  )
        22           O   tau(  22) = (  0.6409000 -0.2476200  1.1832000  )
        23           N   tau(  23) = (  0.1979000 -0.0014300  1.2936000  )
        24           O   tau(  24) = (  0.2276000  0.0712900  1.4225500  )
        25           N   tau(  25) = (  0.3573000 -0.0254300  1.2057000  )
        26           N   tau(  26) = (  0.6401000 -0.2031300  1.0309000  )
        27           O   tau(  27) = (  0.7716000 -0.2197400  0.9361000  )
        28           N   tau(  28) = (  0.4812700 -0.1228100  0.9608100  )
        29           H   tau(  29) = (  0.0030000  0.3754000  0.8118000  )
        30           H   tau(  30) = (  0.1576000  0.4728000  0.7610000  )
        31           C   tau(  31) = (  0.0219000  0.4341300  0.7183000  )
        32           O   tau(  32) = (  0.4646900  0.4396200  0.2620000  )
        33           H   tau(  33) = (  0.2155000  0.3047000  0.3964000  )
        34           H   tau(  34) = (  0.3185000  0.4092000  0.5362000  )
        35           C   tau(  35) = (  0.1908000  0.3847800  0.4468000  )
        36           O   tau(  36) = ( -0.1409000  0.2523800  0.3168000  )
        37           N   tau(  37) = (  0.3021000  0.4985700  0.2064000  )
        38           O   tau(  38) = (  0.2724000  0.5712900  0.0774500  )
        39           N   tau(  39) = (  0.1427000  0.4745700  0.2943000  )
        40           N   tau(  40) = ( -0.1401000  0.2968700  0.4691000  )
        41           O   tau(  41) = ( -0.2716000  0.2802600  0.5639000  )
        42           N   tau(  42) = (  0.0187300  0.3771900  0.5391900  )
        43           H   tau(  43) = (  0.5030000  0.1246000  1.3118000  )
        44           H   tau(  44) = (  0.6576000  0.0272000  1.2610000  )
        45           C   tau(  45) = (  0.5219000  0.0658700  1.2183000  )
        46           O   tau(  46) = (  0.9646900  0.0603800  0.7620000  )
        47           H   tau(  47) = (  0.7155000  0.1953000  0.8964000  )
        48           H   tau(  48) = (  0.8185000  0.0908000  1.0362000  )
        49           C   tau(  49) = (  0.6908000  0.1152200  0.9468000  )
        50           O   tau(  50) = (  0.3591000  0.2476200  0.8168000  )
        51           N   tau(  51) = (  0.8021000  0.0014300  0.7064000  )
        52           O   tau(  52) = (  0.7724000 -0.0712900  0.5774500  )
        53           N   tau(  53) = (  0.6427000  0.0254300  0.7943000  )
        54           N   tau(  54) = (  0.3599000  0.2031300  0.9691000  )
        55           O   tau(  55) = (  0.2284000  0.2197400  1.0639000  )
        56           N   tau(  56) = (  0.5187300  0.1228100  1.0391900  )

     number of k points=    32
                       cart. coord. in units 2pi/alat
        k(    1) = (   0.0191559   0.0113945   0.0217001), wk =   0.0625000
        k(    2) = (   0.0191559   0.0113945   0.0565492), wk =   0.0625000
        k(    3) = (   0.0191559   0.0113945  -0.0479981), wk =   0.0625000
        k(    4) = (   0.0191559   0.0113945  -0.0131490), wk =   0.0625000
        k(    5) = (   0.0191559   0.0341835   0.0217001), wk =   0.0625000
        k(    6) = (   0.0191559   0.0341835   0.0565492), wk =   0.0625000
        k(    7) = (   0.0191559   0.0341835  -0.0479981), wk =   0.0625000
        k(    8) = (   0.0191559   0.0341835  -0.0131490), wk =   0.0625000
        k(    9) = (   0.0574677   0.0113945   0.0302512), wk =   0.0625000
        k(   10) = (   0.0574677   0.0113945   0.0651003), wk =   0.0625000
        k(   11) = (   0.0574677   0.0113945  -0.0394471), wk =   0.0625000
        k(   12) = (   0.0574677   0.0113945  -0.0045979), wk =   0.0625000
        k(   13) = (   0.0574677   0.0341835   0.0302512), wk =   0.0625000
        k(   14) = (   0.0574677   0.0341835   0.0651003), wk =   0.0625000
        k(   15) = (   0.0574677   0.0341835  -0.0394471), wk =   0.0625000
        k(   16) = (   0.0574677   0.0341835  -0.0045979), wk =   0.0625000
        k(   17) = (  -0.0191559   0.0113945  -0.0217001), wk =   0.0625000
        k(   18) = (  -0.0191559   0.0113945  -0.0565492), wk =   0.0625000
        k(   19) = (  -0.0191559   0.0113945   0.0479981), wk =   0.0625000
        k(   20) = (  -0.0191559   0.0113945   0.0131490), wk =   0.0625000
        k(   21) = (  -0.0191559   0.0341835  -0.0217001), wk =   0.0625000
        k(   22) = (  -0.0191559   0.0341835  -0.0565492), wk =   0.0625000
        k(   23) = (  -0.0191559   0.0341835   0.0479981), wk =   0.0625000
        k(   24) = (  -0.0191559   0.0341835   0.0131490), wk =   0.0625000
        k(   25) = (  -0.0574677   0.0113945  -0.0302512), wk =   0.0625000
        k(   26) = (  -0.0574677   0.0113945  -0.0651003), wk =   0.0625000
        k(   27) = (  -0.0574677   0.0113945   0.0394471), wk =   0.0625000
        k(   28) = (  -0.0574677   0.0113945   0.0045979), wk =   0.0625000
        k(   29) = (  -0.0574677   0.0341835  -0.0302512), wk =   0.0625000
        k(   30) = (  -0.0574677   0.0341835  -0.0651003), wk =   0.0625000
        k(   31) = (  -0.0574677   0.0341835   0.0394471), wk =   0.0625000
        k(   32) = (  -0.0574677   0.0341835   0.0045979), wk =   0.0625000

                       cryst. coord.
        k(    1) = (   0.1250000   0.1250000   0.1250000), wk =   0.0625000
        k(    2) = (   0.1250000   0.1250000   0.3750000), wk =   0.0625000
        k(    3) = (   0.1250000   0.1250000  -0.3750000), wk =   0.0625000
        k(    4) = (   0.1250000   0.1250000  -0.1250000), wk =   0.0625000
        k(    5) = (   0.1250000   0.3750000   0.1250000), wk =   0.0625000
        k(    6) = (   0.1250000   0.3750000   0.3750000), wk =   0.0625000
        k(    7) = (   0.1250000   0.3750000  -0.3750000), wk =   0.0625000
        k(    8) = (   0.1250000   0.3750000  -0.1250000), wk =   0.0625000
        k(    9) = (   0.3750000   0.1250000   0.1250000), wk =   0.0625000
        k(   10) = (   0.3750000   0.1250000   0.3750000), wk =   0.0625000
        k(   11) = (   0.3750000   0.1250000  -0.3750000), wk =   0.0625000
        k(   12) = (   0.3750000   0.1250000  -0.1250000), wk =   0.0625000
        k(   13) = (   0.3750000   0.3750000   0.1250000), wk =   0.0625000
        k(   14) = (   0.3750000   0.3750000   0.3750000), wk =   0.0625000
        k(   15) = (   0.3750000   0.3750000  -0.3750000), wk =   0.0625000
        k(   16) = (   0.3750000   0.3750000  -0.1250000), wk =   0.0625000
        k(   17) = (  -0.1250000   0.1250000  -0.1250000), wk =   0.0625000
        k(   18) = (  -0.1250000   0.1250000  -0.3750000), wk =   0.0625000
        k(   19) = (  -0.1250000   0.1250000   0.3750000), wk =   0.0625000
        k(   20) = (  -0.1250000   0.1250000   0.1250000), wk =   0.0625000
        k(   21) = (  -0.1250000   0.3750000  -0.1250000), wk =   0.0625000
        k(   22) = (  -0.1250000   0.3750000  -0.3750000), wk =   0.0625000
        k(   23) = (  -0.1250000   0.3750000   0.3750000), wk =   0.0625000
        k(   24) = (  -0.1250000   0.3750000   0.1250000), wk =   0.0625000
        k(   25) = (  -0.3750000   0.1250000  -0.1250000), wk =   0.0625000
        k(   26) = (  -0.3750000   0.1250000  -0.3750000), wk =   0.0625000
        k(   27) = (  -0.3750000   0.1250000   0.3750000), wk =   0.0625000
        k(   28) = (  -0.3750000   0.1250000   0.1250000), wk =   0.0625000
        k(   29) = (  -0.3750000   0.3750000  -0.1250000), wk =   0.0625000
        k(   30) = (  -0.3750000   0.3750000  -0.3750000), wk =   0.0625000
        k(   31) = (  -0.3750000   0.3750000   0.3750000), wk =   0.0625000
        k(   32) = (  -0.3750000   0.3750000   0.1250000), wk =   0.0625000

     Dense  grid:  1850559 G-vectors     FFT dimensions: ( 125, 216, 144)

     Smooth grid:   468229 G-vectors     FFT dimensions: (  80, 135,  90)

     Largest allocated arrays     est. size (Mb)     dimensions
        Kohn-Sham Wavefunctions        12.59 Mb     (    7366,  112)
        NL pseudopotentials            39.56 Mb     (    7366,  352)
        Each V/rho on FFT grid          7.42 Mb     (  486000)
        Each G-vector array             1.76 Mb     (  231321)
        G-vector shells                 1.62 Mb     (  212826)
     Largest temporary arrays     est. size (Mb)     dimensions
        Auxiliary wavefunctions        50.35 Mb     (    7366,  448)
        Each subspace H/S matrix        3.06 Mb     (     448,  448)
        Each <psi_i|beta_j> matrix      0.60 Mb     (     352,  112)
        Arrays for rho mixing          59.33 Mb     (  486000,    8)

     Initial potential from superposition of free atoms

     starting charge  223.99937, renormalised to  224.00000
     Starting wfc are  176 randomized atomic wfcs
     Checking if some PAW data can be deallocated... 
       node    0, deallocated PAW data for type:  2
       node    0, deallocated PAW data for type:  3
       node    1, deallocated PAW data for type:  1
       node    2, deallocated PAW data for type:  1
       node    3, deallocated PAW data for type:  2
       node    3, deallocated PAW data for type:  3
       node    4, deallocated PAW data for type:  1
       node    5, deallocated PAW data for type:  2
       node    5, deallocated PAW data for type:  3
       node    6, deallocated PAW data for type:  1
       node    7, deallocated PAW data for type:  2
       node    7, deallocated PAW data for type:  3

     total cpu time spent up to now is      635.1 secs

     per-process dynamical memory:   605.3 Mb

     Self-consistent Calculation

     iteration #  1     ecut=   100.00 Ry     beta=0.70
     Davidson diagonalization with overlap
     ethr =  1.00E-02,  avg # of iterations =  3.0

     total cpu time spent up to now is     2212.0 secs

     total energy              =   -1279.63803199 Ry
     Harris-Foulkes estimate   =   -1283.97336870 Ry
     estimated scf accuracy    <       6.67889059 Ry

     iteration #  2     ecut=   100.00 Ry     beta=0.70
     Davidson diagonalization with overlap
     ethr =  2.98E-03,  avg # of iterations =  4.0

     total cpu time spent up to now is     4012.9 secs

     total energy              =   -1280.31006420 Ry
     Harris-Foulkes estimate   =   -1283.80481508 Ry
     estimated scf accuracy    <       7.05098142 Ry

     iteration #  3     ecut=   100.00 Ry     beta=0.70
     Davidson diagonalization with overlap
     ethr =  2.98E-03,  avg # of iterations =  4.6

     total cpu time spent up to now is     5325.6 secs

     total energy              =   -1281.82296073 Ry
     Harris-Foulkes estimate   =   -1282.05066146 Ry
     estimated scf accuracy    <       0.42246940 Ry

     iteration #  4     ecut=   100.00 Ry     beta=0.70
     Davidson diagonalization with overlap
     ethr =  1.89E-04,  avg # of iterations =  4.8

     total cpu time spent up to now is     7036.2 secs

     total energy              =   -1281.96997137 Ry
     Harris-Foulkes estimate   =   -1282.05602805 Ry
     estimated scf accuracy    <       0.18909072 Ry

     iteration #  5     ecut=   100.00 Ry     beta=0.70
     Davidson diagonalization with overlap
     ethr =  8.44E-05,  avg # of iterations =  4.0

     total cpu time spent up to now is     8387.2 secs

     total energy              =   -1282.00885913 Ry
     Harris-Foulkes estimate   =   -1282.01756616 Ry
     estimated scf accuracy    <       0.02155698 Ry

     iteration #  6     ecut=   100.00 Ry     beta=0.70
     Davidson diagonalization with overlap
     ethr =  9.62E-06,  avg # of iterations =  5.9

     total cpu time spent up to now is     9516.6 secs

     total energy              =   -1282.01085795 Ry
     Harris-Foulkes estimate   =   -1282.01220682 Ry
     estimated scf accuracy    <       0.00351639 Ry

     iteration #  7     ecut=   100.00 Ry     beta=0.70
     Davidson diagonalization with overlap
     ethr =  1.57E-06,  avg # of iterations =  4.6

     total cpu time spent up to now is    11360.0 secs

     total energy              =   -1282.01327666 Ry
     Harris-Foulkes estimate   =   -1282.01422983 Ry
     estimated scf accuracy    <       0.00329973 Ry

     iteration #  8     ecut=   100.00 Ry     beta=0.70
     Davidson diagonalization with overlap
     ethr =  1.47E-06,  avg # of iterations =  1.0

     total cpu time spent up to now is    12287.0 secs

     total energy              =   -1282.01241727 Ry
     Harris-Foulkes estimate   =   -1282.01333894 Ry
     estimated scf accuracy    <       0.00177821 Ry

     iteration #  9     ecut=   100.00 Ry     beta=0.70
     Davidson diagonalization with overlap
     ethr =  7.94E-07,  avg # of iterations =  5.0

     total cpu time spent up to now is    13996.4 secs

     total energy              =   -1282.01361240 Ry
     Harris-Foulkes estimate   =   -1282.01451689 Ry
     estimated scf accuracy    <       0.00483182 Ry

     iteration # 10     ecut=   100.00 Ry     beta=0.70
     Davidson diagonalization with overlap
     ethr =  7.94E-07,  avg # of iterations =  1.0

     total cpu time spent up to now is    14924.1 secs

     total energy              =   -1282.01243686 Ry
     Harris-Foulkes estimate   =   -1282.01363928 Ry
     estimated scf accuracy    <       0.00337372 Ry

     iteration # 11     ecut=   100.00 Ry     beta=0.70
     Davidson diagonalization with overlap
     ethr =  7.94E-07,  avg # of iterations =  5.0

     total cpu time spent up to now is    16371.9 secs

     total energy              =   -1282.01353702 Ry
     Harris-Foulkes estimate   =   -1282.01373248 Ry
     estimated scf accuracy    <       0.00074813 Ry

     iteration # 12     ecut=   100.00 Ry     beta=0.70
     Davidson diagonalization with overlap
     ethr =  3.34E-07,  avg # of iterations =  1.0

     total cpu time spent up to now is    17308.6 secs

     total energy              =   -1282.01336610 Ry
     Harris-Foulkes estimate   =   -1282.01354723 Ry
     estimated scf accuracy    <       0.00043647 Ry

     iteration # 13     ecut=   100.00 Ry     beta=0.70
     Davidson diagonalization with overlap
     ethr =  1.95E-07,  avg # of iterations =  5.0

     total cpu time spent up to now is    18794.4 secs

     total energy              =   -1282.01358894 Ry
     Harris-Foulkes estimate   =   -1282.01366338 Ry
     estimated scf accuracy    <       0.00037588 Ry

     iteration # 14     ecut=   100.00 Ry     beta=0.70
     Davidson diagonalization with overlap
     ethr =  1.68E-07,  avg # of iterations =  1.0

     total cpu time spent up to now is    19732.6 secs

     total energy              =   -1282.01352923 Ry
     Harris-Foulkes estimate   =   -1282.01359138 Ry
     estimated scf accuracy    <       0.00025708 Ry

     iteration # 15     ecut=   100.00 Ry     beta=0.70
     Davidson diagonalization with overlap
     ethr =  1.15E-07,  avg # of iterations =  5.0

     total cpu time spent up to now is    20953.0 secs

     total energy              =   -1282.01359968 Ry
     Harris-Foulkes estimate   =   -1282.01359026 Ry
     estimated scf accuracy    <       0.00000330 Ry

     iteration # 16     ecut=   100.00 Ry     beta=0.70
     Davidson diagonalization with overlap
     ethr =  1.47E-09,  avg # of iterations =  5.0

     total cpu time spent up to now is    23211.6 secs

     total energy              =   -1282.01358460 Ry
     Harris-Foulkes estimate   =   -1282.01361700 Ry
     estimated scf accuracy    <       0.00013296 Ry

     iteration # 17     ecut=   100.00 Ry     beta=0.70
     Davidson diagonalization with overlap
     ethr =  1.47E-09,  avg # of iterations =  5.0

     total cpu time spent up to now is    25250.6 secs

     total energy              =   -1282.01359023 Ry
     Harris-Foulkes estimate   =   -1282.01359365 Ry
     estimated scf accuracy    <       0.00001491 Ry

     iteration # 18     ecut=   100.00 Ry     beta=0.70
     Davidson diagonalization with overlap
     ethr =  1.47E-09,  avg # of iterations =  5.9

     total cpu time spent up to now is    26494.5 secs

     total energy              =   -1282.01359084 Ry
     Harris-Foulkes estimate   =   -1282.01359125 Ry
     estimated scf accuracy    <       0.00000190 Ry

     iteration # 19     ecut=   100.00 Ry     beta=0.70
     Davidson diagonalization with overlap
     ethr =  8.46E-10,  avg # of iterations =  3.3

     total cpu time spent up to now is    27529.6 secs

     End of self-consistent calculation

          k = 0.0192 0.0114 0.0217 ( 58532 PWs)   bands (ev):

   -23.9414 -23.9183 -23.9064 -23.8967 -23.6490 -23.6398 -23.6390 -23.6355
   -19.1679 -19.1624 -19.1555 -19.1430 -18.8482 -18.8480 -18.8437 -18.8425
   -18.2517 -18.2264 -17.2298 -17.1795 -17.0677 -17.0655 -16.0502 -16.0369
   -12.1051 -12.1019 -12.0816 -11.9632 -11.9075 -11.8330 -11.7783 -11.7581
    -8.8863  -8.8471  -8.2874  -8.2507  -7.5711  -7.5298  -7.4465  -7.4452
    -6.8631  -6.7565  -6.6085  -6.5280  -6.5110  -6.4135  -6.3517  -6.2688
    -6.1360  -6.1062  -6.0762  -5.9578  -5.9036  -5.8195  -5.7557  -5.7157
    -5.6580  -5.6373  -5.5584  -5.5175  -5.1356  -5.0206  -4.9329  -4.9229
    -4.4658  -4.4562  -4.4241  -4.3833  -4.2307  -4.1294  -3.8582  -3.8535
    -3.6977  -3.5862  -3.5331  -3.4941  -3.1650  -3.1255  -3.0539  -3.0339
    -0.8022  -0.7970  -0.3133  -0.3107  -0.2131  -0.1604  -0.1002  -0.0813
    -0.0259   0.0023   0.1686   0.2020   0.2137   0.2426   0.3718   0.3894
     0.4407   0.4569   0.6322   0.6849   0.7691   0.8153   0.8635   0.8897
     0.9124   1.0262   1.0583   1.1247   1.2121   1.3455   1.3649   1.3886

     occupation numbers 
     1.0000   1.0000   1.0000   1.0000   1.0000   1.0000   1.0000   1.0000
     1.0000   1.0000   1.0000   1.0000   1.0000   1.0000   1.0000   1.0000
     1.0000   1.0000   1.0000   1.0000   1.0000   1.0000   1.0000   1.0000
     1.0000   1.0000   1.0000   1.0000   1.0000   1.0000   1.0000   1.0000
     1.0000   1.0000   1.0000   1.0000   1.0000   1.0000   1.0000   1.0000
     1.0000   1.0000   1.0000   1.0000   1.0000   1.0000   1.0000   1.0000
     1.0000   1.0000   1.0000   1.0000   1.0000   1.0000   1.0000   1.0000
     1.0000   1.0000   1.0000   1.0000   1.0000   1.0000   1.0000   1.0000
     1.0000   1.0000   1.0000   1.0000   1.0000   1.0000   1.0000   1.0000
     1.0000   1.0000   1.0000   1.0000   1.0000   1.0000   1.0000   1.0000
     1.0000   1.0000   1.0000   1.0000   1.0000   1.0000   1.0000   1.0000
     1.0000   1.0000   1.0000   1.0000   1.0000   1.0000   1.0000   1.0000
     1.0000   1.0000   1.0000   1.0000   1.0000   1.0000   1.0000   1.0000
     1.0000   1.0000   1.0000   1.0000   1.0000   1.0000   1.0000   1.0000

          k = 0.0192 0.0114 0.0565 ( 58554 PWs)   bands (ev):

   -23.9332 -23.9240 -23.9027 -23.9016 -23.6505 -23.6472 -23.6358 -23.6313
   -19.1661 -19.1612 -19.1563 -19.1467 -18.8543 -18.8535 -18.8388 -18.8371
   -18.2399 -18.2397 -17.2057 -17.2032 -17.0635 -17.0609 -16.0456 -16.0439
   -12.1138 -12.1122 -12.0277 -12.0076 -11.8646 -11.8548 -11.7862 -11.7777
    -8.8666  -8.8307  -8.2689  -8.2441  -7.5849  -7.5351  -7.4274  -7.3508
    -6.9099  -6.7833  -6.5947  -6.5622  -6.5504  -6.4345  -6.3755  -6.3471
    -6.1969  -6.1629  -5.9638  -5.9105  -5.8951  -5.8280  -5.8006  -5.7619
    -5.7147  -5.6600  -5.4775  -5.4334  -5.1389  -5.0588  -4.9297  -4.8930
    -4.4236  -4.4150  -4.3711  -4.2945  -4.1559  -4.1270  -3.9731  -3.9690
    -3.6826  -3.6337  -3.4720  -3.4614  -3.1881  -3.1840  -3.0368  -3.0120
    -0.7685  -0.7343  -0.3266  -0.3154  -0.2213  -0.1895  -0.1337  -0.1116
    -0.0803  -0.0394   0.0684   0.1298   0.2342   0.2858   0.3423   0.3536
     0.5471   0.6085   0.6530   0.6964   0.7733   0.7919   0.8245   0.8741
     0.9835   1.0233   1.0946   1.1193   1.2230   1.2937   1.3708   1.3951

     occupation numbers 
     1.0000   1.0000   1.0000   1.0000   1.0000   1.0000   1.0000   1.0000
     1.0000   1.0000   1.0000   1.0000   1.0000   1.0000   1.0000   1.0000
     1.0000   1.0000   1.0000   1.0000   1.0000   1.0000   1.0000   1.0000
     1.0000   1.0000   1.0000   1.0000   1.0000   1.0000   1.0000   1.0000
     1.0000   1.0000   1.0000   1.0000   1.0000   1.0000   1.0000   1.0000
     1.0000   1.0000   1.0000   1.0000   1.0000   1.0000   1.0000   1.0000
     1.0000   1.0000   1.0000   1.0000   1.0000   1.0000   1.0000   1.0000
     1.0000   1.0000   1.0000   1.0000   1.0000   1.0000   1.0000   1.0000
     1.0000   1.0000   1.0000   1.0000   1.0000   1.0000   1.0000   1.0000
     1.0000   1.0000   1.0000   1.0000   1.0000   1.0000   1.0000   1.0000
     1.0000   1.0000   1.0000   1.0000   1.0000   1.0000   1.0000   1.0000
     1.0000   1.0000   1.0000   1.0000   1.0000   1.0000   1.0000   1.0000
     1.0000   1.0000   1.0000   1.0000   1.0000   1.0000   1.0000   1.0000
     1.0000   1.0000   1.0000   1.0000   1.0000   1.0000   1.0000   1.0000

          k = 0.0192 0.0114-0.0480 ( 58523 PWs)   bands (ev):

   -23.9342 -23.9234 -23.9064 -23.8974 -23.6520 -23.6489 -23.6326 -23.6313
   -19.1637 -19.1620 -19.1531 -19.1517 -18.8559 -18.8552 -18.8370 -18.8355
   -18.2516 -18.2267 -17.2276 -17.1811 -17.0660 -17.0642 -16.0494 -16.0337
   -12.1237 -12.1108 -12.0619 -11.9740 -11.8952 -11.8197 -11.7897 -11.7765
    -8.8758  -8.7921  -8.2561  -8.2532  -7.5796  -7.5642  -7.4392  -7.3251
    -6.9186  -6.8094  -6.5943  -6.5611  -6.5110  -6.4858  -6.3906  -6.3547
    -6.2139  -6.1875  -5.9693  -5.9350  -5.8278  -5.7929  -5.7861  -5.7725
    -5.7148  -5.6460  -5.4798  -5.4283  -5.1330  -5.0593  -4.9160  -4.8871
    -4.4537  -4.3863  -4.3533  -4.2965  -4.1867  -4.1449  -3.9776  -3.9279
    -3.6884  -3.6360  -3.5256  -3.4434  -3.1941  -3.1722  -3.0301  -3.0201
    -0.7034  -0.6432  -0.3157  -0.3075  -0.2774  -0.2461  -0.1713  -0.1523
    -0.0917  -0.0871   0.0346   0.1162   0.2528   0.2883   0.2984   0.3485
     0.5886   0.6725   0.6920   0.7055   0.7411   0.8346   0.8446   0.8569
     0.9760   1.0301   1.1065   1.1629   1.2295   1.2558   1.3595   1.3798

     occupation numbers 
     1.0000   1.0000   1.0000   1.0000   1.0000   1.0000   1.0000   1.0000
     1.0000   1.0000   1.0000   1.0000   1.0000   1.0000   1.0000   1.0000
     1.0000   1.0000   1.0000   1.0000   1.0000   1.0000   1.0000   1.0000
     1.0000   1.0000   1.0000   1.0000   1.0000   1.0000   1.0000   1.0000
     1.0000   1.0000   1.0000   1.0000   1.0000   1.0000   1.0000   1.0000
     1.0000   1.0000   1.0000   1.0000   1.0000   1.0000   1.0000   1.0000
     1.0000   1.0000   1.0000   1.0000   1.0000   1.0000   1.0000   1.0000
     1.0000   1.0000   1.0000   1.0000   1.0000   1.0000   1.0000   1.0000
     1.0000   1.0000   1.0000   1.0000   1.0000   1.0000   1.0000   1.0000
     1.0000   1.0000   1.0000   1.0000   1.0000   1.0000   1.0000   1.0000
     1.0000   1.0000   1.0000   1.0000   1.0000   1.0000   1.0000   1.0000
     1.0000   1.0000   1.0000   1.0000   1.0000   1.0000   1.0000   1.0000
     1.0000   1.0000   1.0000   1.0000   1.0000   1.0000   1.0000   1.0000
     1.0000   1.0000   1.0000   1.0000   1.0000   1.0000   1.0000   1.0000

          k = 0.0192 0.0114-0.0131 ( 58524 PWs)   bands (ev):

   -23.9419 -23.9185 -23.9076 -23.8949 -23.6514 -23.6429 -23.6353 -23.6337
   -19.1669 -19.1612 -19.1558 -19.1453 -18.8519 -18.8513 -18.8395 -18.8394
   -18.2562 -18.2206 -17.2388 -17.1701 -17.0698 -17.0693 -16.0506 -16.0301
   -12.1193 -12.1026 -12.0871 -11.9619 -11.9075 -11.8223 -11.7762 -11.7588
    -8.8974  -8.8067  -8.2810  -8.2537  -7.5756  -7.5536  -7.4799  -7.3952
    -6.8310  -6.8159  -6.6054  -6.5154  -6.5090  -6.4600  -6.3587  -6.2856
    -6.1813  -6.1402  -6.0117  -5.9606  -5.8642  -5.8167  -5.7380  -5.7116
    -5.6727  -5.6257  -5.5307  -5.5218  -5.1025  -5.0570  -4.9294  -4.8931
    -4.4682  -4.4468  -4.4218  -4.3992  -4.2393  -4.1394  -3.8657  -3.8070
    -3.7326  -3.5954  -3.5458  -3.4929  -3.1708  -3.1214  -3.0468  -3.0402
    -0.7539  -0.7320  -0.3031  -0.2991  -0.2138  -0.1793  -0.1131  -0.0928
    -0.0823  -0.0442   0.0613   0.1209   0.1880   0.2651   0.3170   0.3820
     0.5609   0.5971   0.6247   0.7092   0.7589   0.8201   0.8765   0.8893
     0.9208   1.0048   1.0860   1.1529   1.2096   1.3258   1.3512   1.3761

     occupation numbers 
     1.0000   1.0000   1.0000   1.0000   1.0000   1.0000   1.0000   1.0000
     1.0000   1.0000   1.0000   1.0000   1.0000   1.0000   1.0000   1.0000
     1.0000   1.0000   1.0000   1.0000   1.0000   1.0000   1.0000   1.0000
     1.0000   1.0000   1.0000   1.0000   1.0000   1.0000   1.0000   1.0000
     1.0000   1.0000   1.0000   1.0000   1.0000   1.0000   1.0000   1.0000
     1.0000   1.0000   1.0000   1.0000   1.0000   1.0000   1.0000   1.0000
     1.0000   1.0000   1.0000   1.0000   1.0000   1.0000   1.0000   1.0000
     1.0000   1.0000   1.0000   1.0000   1.0000   1.0000   1.0000   1.0000
     1.0000   1.0000   1.0000   1.0000   1.0000   1.0000   1.0000   1.0000
     1.0000   1.0000   1.0000   1.0000   1.0000   1.0000   1.0000   1.0000
     1.0000   1.0000   1.0000   1.0000   1.0000   1.0000   1.0000   1.0000
     1.0000   1.0000   1.0000   1.0000   1.0000   1.0000   1.0000   1.0000
     1.0000   1.0000   1.0000   1.0000   1.0000   1.0000   1.0000   1.0000
     1.0000   1.0000   1.0000   1.0000   1.0000   1.0000   1.0000   1.0000

          k = 0.0192 0.0342 0.0217 ( 58509 PWs)   bands (ev):

   -23.9360 -23.9271 -23.9017 -23.8984 -23.6453 -23.6410 -23.6388 -23.6379
   -19.1676 -19.1659 -19.1500 -19.1454 -18.8482 -18.8481 -18.8433 -18.8428
   -18.2445 -18.2341 -17.2150 -17.1942 -17.0670 -17.0660 -16.0463 -16.0408
   -12.1049 -12.1039 -12.0563 -12.0135 -11.8693 -11.8441 -11.7725 -11.7641
    -8.8757  -8.8595  -8.2774  -8.2622  -7.5618  -7.5442  -7.4400  -7.4392
    -6.8395  -6.7923  -6.5555  -6.5228  -6.5191  -6.4633  -6.3276  -6.3010
    -6.1464  -6.1290  -6.0033  -5.9685  -5.9030  -5.8601  -5.7639  -5.7485
    -5.6230  -5.6103  -5.5378  -5.5176  -5.0910  -5.0244  -4.9769  -4.9535
    -4.4750  -4.4685  -4.3893  -4.3721  -4.2115  -4.1628  -3.8530  -3.8478
    -3.6677  -3.6182  -3.5226  -3.5035  -3.1572  -3.1416  -3.0443  -3.0369
    -0.7974  -0.7949  -0.3055  -0.2975  -0.2263  -0.1898  -0.1226  -0.1163
     0.0086   0.0181   0.1942   0.2042   0.2354   0.2413   0.3937   0.3959
     0.4156   0.4385   0.6449   0.6717   0.7536   0.7702   0.8802   0.8999
     0.9499   0.9968   1.0874   1.1127   1.2487   1.3031   1.3749   1.3824

     occupation numbers 
     1.0000   1.0000   1.0000   1.0000   1.0000   1.0000   1.0000   1.0000
     1.0000   1.0000   1.0000   1.0000   1.0000   1.0000   1.0000   1.0000
     1.0000   1.0000   1.0000   1.0000   1.0000   1.0000   1.0000   1.0000
     1.0000   1.0000   1.0000   1.0000   1.0000   1.0000   1.0000   1.0000
     1.0000   1.0000   1.0000   1.0000   1.0000   1.0000   1.0000   1.0000
     1.0000   1.0000   1.0000   1.0000   1.0000   1.0000   1.0000   1.0000
     1.0000   1.0000   1.0000   1.0000   1.0000   1.0000   1.0000   1.0000
     1.0000   1.0000   1.0000   1.0000   1.0000   1.0000   1.0000   1.0000
     1.0000   1.0000   1.0000   1.0000   1.0000   1.0000   1.0000   1.0000
     1.0000   1.0000   1.0000   1.0000   1.0000   1.0000   1.0000   1.0000
     1.0000   1.0000   1.0000   1.0000   1.0000   1.0000   1.0000   1.0000
     1.0000   1.0000   1.0000   1.0000   1.0000   1.0000   1.0000   1.0000
     1.0000   1.0000   1.0000   1.0000   1.0000   1.0000   1.0000   1.0000
     1.0000   1.0000   1.0000   1.0000   1.0000   1.0000   1.0000   1.0000

          k = 0.0192 0.0342 0.0565 ( 58545 PWs)   bands (ev):

   -23.9302 -23.9263 -23.9029 -23.9023 -23.6489 -23.6476 -23.6350 -23.6331
   -19.1659 -19.1645 -19.1516 -19.1482 -18.8541 -18.8537 -18.8383 -18.8376
   -18.2398 -18.2398 -17.2053 -17.2043 -17.0624 -17.0613 -16.0452 -16.0445
   -12.1129 -12.1121 -12.0245 -12.0160 -11.8582 -11.8534 -11.7856 -11.7819
    -8.8563  -8.8414  -8.2621  -8.2518  -7.5688  -7.5485  -7.4050  -7.3740
    -6.8894  -6.8427  -6.5810  -6.5708  -6.4977  -6.4490  -6.3871  -6.3680
    -6.1508  -6.1218  -5.9856  -5.9379  -5.8701  -5.8371  -5.8028  -5.7855
    -5.7012  -5.6671  -5.4833  -5.4621  -5.0752  -5.0226  -4.9785  -4.9410
    -4.4013  -4.3867  -4.3599  -4.3232  -4.1562  -4.1429  -3.9708  -3.9695
    -3.6624  -3.6414  -3.4716  -3.4664  -3.1832  -3.1794  -3.0366  -3.0246
    -0.7576  -0.7436  -0.3191  -0.3100  -0.2328  -0.2055  -0.1490  -0.1326
    -0.0540  -0.0361   0.1171   0.1378   0.2391   0.2640   0.3347   0.3463
     0.5631   0.5902   0.6647   0.6848   0.7817   0.7909   0.8291   0.8595
     0.9865   1.0071   1.1066   1.1164   1.2468   1.2755   1.3770   1.3869

     occupation numbers 
     1.0000   1.0000   1.0000   1.0000   1.0000   1.0000   1.0000   1.0000
     1.0000   1.0000   1.0000   1.0000   1.0000   1.0000   1.0000   1.0000
     1.0000   1.0000   1.0000   1.0000   1.0000   1.0000   1.0000   1.0000
     1.0000   1.0000   1.0000   1.0000   1.0000   1.0000   1.0000   1.0000
     1.0000   1.0000   1.0000   1.0000   1.0000   1.0000   1.0000   1.0000
     1.0000   1.0000   1.0000   1.0000   1.0000   1.0000   1.0000   1.0000
     1.0000   1.0000   1.0000   1.0000   1.0000   1.0000   1.0000   1.0000
     1.0000   1.0000   1.0000   1.0000   1.0000   1.0000   1.0000   1.0000
     1.0000   1.0000   1.0000   1.0000   1.0000   1.0000   1.0000   1.0000
     1.0000   1.0000   1.0000   1.0000   1.0000   1.0000   1.0000   1.0000
     1.0000   1.0000   1.0000   1.0000   1.0000   1.0000   1.0000   1.0000
     1.0000   1.0000   1.0000   1.0000   1.0000   1.0000   1.0000   1.0000
     1.0000   1.0000   1.0000   1.0000   1.0000   1.0000   1.0000   1.0000
     1.0000   1.0000   1.0000   1.0000   1.0000   1.0000   1.0000   1.0000

          k = 0.0192 0.0342-0.0480 ( 58546 PWs)   bands (ev):

   -23.9312 -23.9267 -23.9037 -23.9000 -23.6506 -23.6493 -23.6326 -23.6320
   -19.1642 -19.1636 -19.1516 -19.1511 -18.8557 -18.8554 -18.8366 -18.8360
   -18.2445 -18.2342 -17.2140 -17.1947 -17.0654 -17.0646 -16.0447 -16.0382
   -12.1201 -12.1148 -12.0436 -12.0106 -11.8622 -11.8343 -11.7857 -11.7800
    -8.8523  -8.8177  -8.2566  -8.2551  -7.5717  -7.5663  -7.4086  -7.3604
    -6.8854  -6.8395  -6.5985  -6.5724  -6.4971  -6.4841  -6.4182  -6.3976
    -6.1303  -6.1134  -6.0037  -5.9740  -5.8234  -5.8082  -5.7869  -5.7656
    -5.7015  -5.6670  -5.4719  -5.4446  -5.1065  -5.0550  -4.9403  -4.9072
    -4.4409  -4.4126  -4.3137  -4.2928  -4.1835  -4.1658  -3.9633  -3.9427
    -3.6656  -3.6436  -3.5024  -3.4681  -3.1823  -3.1716  -3.0359  -3.0325
    -0.6868  -0.6622  -0.3157  -0.3119  -0.2482  -0.2315  -0.1958  -0.1732
    -0.1082  -0.0970   0.0866   0.1179   0.2544   0.2706   0.3105   0.3371
     0.6130   0.6463   0.7108   0.7244   0.7386   0.7856   0.8523   0.8574
     0.9914   1.0091   1.1310   1.1524   1.2350   1.2466   1.3651   1.3738

     occupation numbers 
     1.0000   1.0000   1.0000   1.0000   1.0000   1.0000   1.0000   1.0000
     1.0000   1.0000   1.0000   1.0000   1.0000   1.0000   1.0000   1.0000
     1.0000   1.0000   1.0000   1.0000   1.0000   1.0000   1.0000   1.0000
     1.0000   1.0000   1.0000   1.0000   1.0000   1.0000   1.0000   1.0000
     1.0000   1.0000   1.0000   1.0000   1.0000   1.0000   1.0000   1.0000
     1.0000   1.0000   1.0000   1.0000   1.0000   1.0000   1.0000   1.0000
     1.0000   1.0000   1.0000   1.0000   1.0000   1.0000   1.0000   1.0000
     1.0000   1.0000   1.0000   1.0000   1.0000   1.0000   1.0000   1.0000
     1.0000   1.0000   1.0000   1.0000   1.0000   1.0000   1.0000   1.0000
     1.0000   1.0000   1.0000   1.0000   1.0000   1.0000   1.0000   1.0000
     1.0000   1.0000   1.0000   1.0000   1.0000   1.0000   1.0000   1.0000
     1.0000   1.0000   1.0000   1.0000   1.0000   1.0000   1.0000   1.0000
     1.0000   1.0000   1.0000   1.0000   1.0000   1.0000   1.0000   1.0000
     1.0000   1.0000   1.0000   1.0000   1.0000   1.0000   1.0000   1.0000

          k = 0.0192 0.0342-0.0131 ( 58525 PWs)   bands (ev):

   -23.9365 -23.9277 -23.9016 -23.8972 -23.6484 -23.6447 -23.6353 -23.6347
   -19.1665 -19.1648 -19.1507 -19.1470 -18.8517 -18.8515 -18.8395 -18.8394
   -18.2462 -18.2315 -17.2183 -17.1899 -17.0698 -17.0695 -16.0444 -16.0359
   -12.1140 -12.1084 -12.0618 -12.0171 -11.8643 -11.8358 -11.7706 -11.7633
    -8.8725  -8.8350  -8.2746  -8.2634  -7.5695  -7.5595  -7.4521  -7.4182
    -6.8066  -6.7914  -6.5942  -6.5453  -6.5106  -6.4844  -6.3767  -6.3439
    -6.1228  -6.1028  -6.0176  -5.9878  -5.8580  -5.8340  -5.7422  -5.7403
    -5.6267  -5.6130  -5.5213  -5.5128  -5.0992  -5.0692  -4.9370  -4.9149
    -4.4797  -4.4739  -4.3934  -4.3725  -4.2212  -4.1725  -3.8467  -3.8225
    -3.6830  -3.6248  -3.5337  -3.5107  -3.1599  -3.1398  -3.0431  -3.0408
    -0.7443  -0.7352  -0.2960  -0.2884  -0.2262  -0.1913  -0.1273  -0.1167
    -0.0778  -0.0579   0.0933   0.1217   0.2103   0.2458   0.3519   0.3799
     0.5711   0.5949   0.6356   0.6882   0.7384   0.7729   0.8920   0.8939
     0.9570   0.9883   1.1167   1.1434   1.2358   1.2855   1.3609   1.3683

     occupation numbers 
     1.0000   1.0000   1.0000   1.0000   1.0000   1.0000   1.0000   1.0000
     1.0000   1.0000   1.0000   1.0000   1.0000   1.0000   1.0000   1.0000
     1.0000   1.0000   1.0000   1.0000   1.0000   1.0000   1.0000   1.0000
     1.0000   1.0000   1.0000   1.0000   1.0000   1.0000   1.0000   1.0000
     1.0000   1.0000   1.0000   1.0000   1.0000   1.0000   1.0000   1.0000
     1.0000   1.0000   1.0000   1.0000   1.0000   1.0000   1.0000   1.0000
     1.0000   1.0000   1.0000   1.0000   1.0000   1.0000   1.0000   1.0000
     1.0000   1.0000   1.0000   1.0000   1.0000   1.0000   1.0000   1.0000
     1.0000   1.0000   1.0000   1.0000   1.0000   1.0000   1.0000   1.0000
     1.0000   1.0000   1.0000   1.0000   1.0000   1.0000   1.0000   1.0000
     1.0000   1.0000   1.0000   1.0000   1.0000   1.0000   1.0000   1.0000
     1.0000   1.0000   1.0000   1.0000   1.0000   1.0000   1.0000   1.0000
     1.0000   1.0000   1.0000   1.0000   1.0000   1.0000   1.0000   1.0000
     1.0000   1.0000   1.0000   1.0000   1.0000   1.0000   1.0000   1.0000

          k = 0.0575 0.0114 0.0303 ( 58518 PWs)   bands (ev):

   -23.9307 -23.9208 -23.9034 -23.9027 -23.6475 -23.6444 -23.6402 -23.6355
   -19.1658 -19.1615 -19.1571 -19.1476 -18.8508 -18.8496 -18.8420 -18.8407
   -18.2461 -18.2461 -17.2034 -17.2012 -17.0679 -17.0660 -16.0464 -16.0444
   -12.1024 -12.1019 -11.9987 -11.9789 -11.8374 -11.8222 -11.7874 -11.7722
    -8.8861  -8.8528  -8.2868  -8.2647  -7.5622  -7.5366  -7.5152  -7.4572
    -6.9831  -6.9101  -6.6744  -6.5492  -6.4782  -6.4389  -6.2633  -6.2276
    -6.2036  -6.1538  -6.0194  -5.9503  -5.8942  -5.8436  -5.7639  -5.7432
    -5.6559  -5.6104  -5.5543  -5.5399  -5.1497  -5.0384  -4.9189  -4.9110
    -4.4538  -4.4325  -4.3891  -4.3375  -4.0427  -3.9875  -3.8093  -3.7814
    -3.7351  -3.6392  -3.5885  -3.5808  -3.1610  -3.1557  -3.0545  -3.0245
    -0.7574  -0.7430  -0.2955  -0.2923  -0.2031  -0.1834  -0.1220  -0.0982
    -0.0658  -0.0370   0.1100   0.1246   0.2044   0.2198   0.3501   0.3728
     0.5773   0.5850   0.6533   0.7055   0.7797   0.7868   0.8640   0.8782
     0.9363   0.9845   1.0115   1.0615   1.2873   1.3174   1.3512   1.3884

     occupation numbers 
     1.0000   1.0000   1.0000   1.0000   1.0000   1.0000   1.0000   1.0000
     1.0000   1.0000   1.0000   1.0000   1.0000   1.0000   1.0000   1.0000
     1.0000   1.0000   1.0000   1.0000   1.0000   1.0000   1.0000   1.0000
     1.0000   1.0000   1.0000   1.0000   1.0000   1.0000   1.0000   1.0000
     1.0000   1.0000   1.0000   1.0000   1.0000   1.0000   1.0000   1.0000
     1.0000   1.0000   1.0000   1.0000   1.0000   1.0000   1.0000   1.0000
     1.0000   1.0000   1.0000   1.0000   1.0000   1.0000   1.0000   1.0000
     1.0000   1.0000   1.0000   1.0000   1.0000   1.0000   1.0000   1.0000
     1.0000   1.0000   1.0000   1.0000   1.0000   1.0000   1.0000   1.0000
     1.0000   1.0000   1.0000   1.0000   1.0000   1.0000   1.0000   1.0000
     1.0000   1.0000   1.0000   1.0000   1.0000   1.0000   1.0000   1.0000
     1.0000   1.0000   1.0000   1.0000   1.0000   1.0000   1.0000   1.0000
     1.0000   1.0000   1.0000   1.0000   1.0000   1.0000   1.0000   1.0000
     1.0000   1.0000   1.0000   1.0000   1.0000   1.0000   1.0000   1.0000

          k = 0.0575 0.0114 0.0651 ( 58544 PWs)   bands (ev):

   -23.9265 -23.9236 -23.9072 -23.8990 -23.6465 -23.6462 -23.6428 -23.6333
   -19.1662 -19.1629 -19.1575 -19.1467 -18.8606 -18.8583 -18.8348 -18.8313
   -18.2607 -18.2361 -17.2234 -17.1794 -17.0584 -17.0548 -16.0620 -16.0433
   -12.1148 -12.1107 -12.0281 -11.9505 -11.8390 -11.7922 -11.7919 -11.7767
    -8.9303  -8.8080  -8.2816  -8.2452  -7.5665  -7.5409  -7.4768  -7.3417
    -7.0843  -6.8580  -6.6797  -6.5109  -6.5007  -6.4385  -6.4164  -6.3157
    -6.2601  -6.1785  -5.9902  -5.9628  -5.9160  -5.8617  -5.7953  -5.7371
    -5.6318  -5.5786  -5.5082  -5.4370  -5.1603  -4.9977  -4.9853  -4.9241
    -4.3998  -4.3851  -4.3261  -4.2827  -4.0001  -3.9619  -3.9095  -3.8709
    -3.7637  -3.6674  -3.5980  -3.5049  -3.2029  -3.1762  -3.0507  -2.9931
    -0.8331  -0.7899  -0.3021  -0.2663  -0.2050  -0.1745  -0.1174  -0.0788
    -0.0305   0.0019   0.1733   0.2057   0.2242   0.2441   0.3162   0.4112
     0.4932   0.5122   0.5617   0.6715   0.7686   0.8010   0.8454   0.8757
     0.9711   1.0096   1.0246   1.0521   1.3009   1.3378   1.3562   1.4008

     occupation numbers 
     1.0000   1.0000   1.0000   1.0000   1.0000   1.0000   1.0000   1.0000
     1.0000   1.0000   1.0000   1.0000   1.0000   1.0000   1.0000   1.0000
     1.0000   1.0000   1.0000   1.0000   1.0000   1.0000   1.0000   1.0000
     1.0000   1.0000   1.0000   1.0000   1.0000   1.0000   1.0000   1.0000
     1.0000   1.0000   1.0000   1.0000   1.0000   1.0000   1.0000   1.0000
     1.0000   1.0000   1.0000   1.0000   1.0000   1.0000   1.0000   1.0000
     1.0000   1.0000   1.0000   1.0000   1.0000   1.0000   1.0000   1.0000
     1.0000   1.0000   1.0000   1.0000   1.0000   1.0000   1.0000   1.0000
     1.0000   1.0000   1.0000   1.0000   1.0000   1.0000   1.0000   1.0000
     1.0000   1.0000   1.0000   1.0000   1.0000   1.0000   1.0000   1.0000
     1.0000   1.0000   1.0000   1.0000   1.0000   1.0000   1.0000   1.0000
     1.0000   1.0000   1.0000   1.0000   1.0000   1.0000   1.0000   1.0000
     1.0000   1.0000   1.0000   1.0000   1.0000   1.0000   1.0000   1.0000
     1.0000   1.0000   1.0000   1.0000   1.0000   1.0000   1.0000   1.0000

          k = 0.0575 0.0114-0.0394 ( 58481 PWs)   bands (ev):

   -23.9282 -23.9224 -23.9088 -23.8968 -23.6497 -23.6486 -23.6384 -23.6321
   -19.1642 -19.1621 -19.1577 -19.1495 -18.8616 -18.8594 -18.8337 -18.8302
   -18.2653 -18.2303 -17.2334 -17.1688 -17.0612 -17.0582 -16.0616 -16.0371
   -12.1191 -12.1116 -12.0522 -11.9295 -11.8553 -11.7913 -11.7865 -11.7654
    -8.9254  -8.7836  -8.2757  -8.2467  -7.5651  -7.5461  -7.4987  -7.3294
    -7.1020  -6.8603  -6.6669  -6.5318  -6.5012  -6.4799  -6.4051  -6.3402
    -6.2643  -6.1946  -5.9781  -5.9227  -5.8846  -5.8684  -5.7957  -5.7526
    -5.6064  -5.5745  -5.5151  -5.4358  -5.1506  -5.0220  -4.9591  -4.9106
    -4.4024  -4.3640  -4.3243  -4.2989  -4.0258  -4.0026  -3.8568  -3.8496
    -3.7104  -3.6973  -3.6571  -3.5122  -3.2070  -3.1718  -3.0462  -2.9986
    -0.7908  -0.7257  -0.2948  -0.2425  -0.2185  -0.1944  -0.1241  -0.0993
    -0.0909  -0.0500   0.1049   0.1878   0.2233   0.2662   0.2833   0.3089
     0.5430   0.6162   0.6434   0.6589   0.7670   0.7951   0.8664   0.8881
     0.9614   0.9896   1.0431   1.1086   1.3168   1.3331   1.3379   1.3637

     occupation numbers 
     1.0000   1.0000   1.0000   1.0000   1.0000   1.0000   1.0000   1.0000
     1.0000   1.0000   1.0000   1.0000   1.0000   1.0000   1.0000   1.0000
     1.0000   1.0000   1.0000   1.0000   1.0000   1.0000   1.0000   1.0000
     1.0000   1.0000   1.0000   1.0000   1.0000   1.0000   1.0000   1.0000
     1.0000   1.0000   1.0000   1.0000   1.0000   1.0000   1.0000   1.0000
     1.0000   1.0000   1.0000   1.0000   1.0000   1.0000   1.0000   1.0000
     1.0000   1.0000   1.0000   1.0000   1.0000   1.0000   1.0000   1.0000
     1.0000   1.0000   1.0000   1.0000   1.0000   1.0000   1.0000   1.0000
     1.0000   1.0000   1.0000   1.0000   1.0000   1.0000   1.0000   1.0000
     1.0000   1.0000   1.0000   1.0000   1.0000   1.0000   1.0000   1.0000
     1.0000   1.0000   1.0000   1.0000   1.0000   1.0000   1.0000   1.0000
     1.0000   1.0000   1.0000   1.0000   1.0000   1.0000   1.0000   1.0000
     1.0000   1.0000   1.0000   1.0000   1.0000   1.0000   1.0000   1.0000
     1.0000   1.0000   1.0000   1.0000   1.0000   1.0000   1.0000   1.0000

          k = 0.0575 0.0114-0.0046 ( 58445 PWs)   bands (ev):

   -23.9315 -23.9205 -23.9072 -23.8983 -23.6502 -23.6467 -23.6362 -23.6345
   -19.1636 -19.1618 -19.1540 -19.1527 -18.8534 -18.8523 -18.8392 -18.8380
   -18.2580 -18.2329 -17.2257 -17.1782 -17.0702 -17.0699 -16.0501 -16.0342
   -12.1075 -12.1020 -12.0399 -11.9398 -11.8639 -11.8040 -11.7768 -11.7743
    -8.8957  -8.8135  -8.2754  -8.2721  -7.5615  -7.5515  -7.5392  -7.4349
    -6.9984  -6.9082  -6.6302  -6.6057  -6.4736  -6.4699  -6.2983  -6.2663
    -6.1851  -6.1801  -5.9597  -5.9249  -5.8592  -5.8266  -5.7786  -5.7701
    -5.6307  -5.6168  -5.5500  -5.5401  -5.1090  -5.0898  -4.8983  -4.8911
    -4.4556  -4.4296  -4.3799  -4.3492  -4.0482  -4.0139  -3.7749  -3.7680
    -3.7028  -3.6773  -3.6325  -3.5809  -3.1762  -3.1427  -3.0479  -3.0309
    -0.7032  -0.6547  -0.2993  -0.2896  -0.2118  -0.2083  -0.1765  -0.1750
    -0.0807  -0.0514   0.0643   0.1281   0.1878   0.2278   0.3228   0.3588
     0.5617   0.6279   0.7124   0.7505   0.7670   0.8100   0.8781   0.9016
     0.9333   0.9506   1.0256   1.1122   1.3043   1.3106   1.3315   1.3491

     occupation numbers 
     1.0000   1.0000   1.0000   1.0000   1.0000   1.0000   1.0000   1.0000
     1.0000   1.0000   1.0000   1.0000   1.0000   1.0000   1.0000   1.0000
     1.0000   1.0000   1.0000   1.0000   1.0000   1.0000   1.0000   1.0000
     1.0000   1.0000   1.0000   1.0000   1.0000   1.0000   1.0000   1.0000
     1.0000   1.0000   1.0000   1.0000   1.0000   1.0000   1.0000   1.0000
     1.0000   1.0000   1.0000   1.0000   1.0000   1.0000   1.0000   1.0000
     1.0000   1.0000   1.0000   1.0000   1.0000   1.0000   1.0000   1.0000
     1.0000   1.0000   1.0000   1.0000   1.0000   1.0000   1.0000   1.0000
     1.0000   1.0000   1.0000   1.0000   1.0000   1.0000   1.0000   1.0000
     1.0000   1.0000   1.0000   1.0000   1.0000   1.0000   1.0000   1.0000
     1.0000   1.0000   1.0000   1.0000   1.0000   1.0000   1.0000   1.0000
     1.0000   1.0000   1.0000   1.0000   1.0000   1.0000   1.0000   1.0000
     1.0000   1.0000   1.0000   1.0000   1.0000   1.0000   1.0000   1.0000
     1.0000   1.0000   1.0000   1.0000   1.0000   1.0000   1.0000   1.0000

          k = 0.0575 0.0342 0.0303 ( 58502 PWs)   bands (ev):

   -23.9275 -23.9234 -23.9036 -23.9032 -23.6455 -23.6444 -23.6398 -23.6377
   -19.1657 -19.1645 -19.1525 -19.1492 -18.8505 -18.8500 -18.8416 -18.8411
   -18.2461 -18.2461 -17.2030 -17.2020 -17.0672 -17.0663 -16.0458 -16.0450
   -12.1023 -12.1021 -11.9915 -11.9831 -11.8348 -11.8283 -11.7829 -11.7765
    -8.8763  -8.8625  -8.2773  -8.2679  -7.5545  -7.5445  -7.5011  -7.4768
    -6.9850  -6.9600  -6.5983  -6.5551  -6.4607  -6.4354  -6.2914  -6.2568
    -6.1921  -6.1640  -5.9902  -5.9613  -5.8850  -5.8589  -5.7641  -5.7434
    -5.6365  -5.6229  -5.5489  -5.5413  -5.1198  -5.0738  -4.9220  -4.9177
    -4.4468  -4.4346  -4.3770  -4.3567  -4.0192  -3.9945  -3.7981  -3.7820
    -3.7158  -3.6724  -3.5877  -3.5809  -3.1591  -3.1562  -3.0497  -3.0366
    -0.7496  -0.7437  -0.2863  -0.2792  -0.2388  -0.2201  -0.1020  -0.0812
    -0.0617  -0.0459   0.1217   0.1377   0.2100   0.2242   0.3498   0.3606
     0.5998   0.6064   0.6340   0.6629   0.7792   0.7866   0.8708   0.8902
     0.9485   0.9788   1.0155   1.0393   1.2968   1.3090   1.3629   1.3779

     occupation numbers 
     1.0000   1.0000   1.0000   1.0000   1.0000   1.0000   1.0000   1.0000
     1.0000   1.0000   1.0000   1.0000   1.0000   1.0000   1.0000   1.0000
     1.0000   1.0000   1.0000   1.0000   1.0000   1.0000   1.0000   1.0000
     1.0000   1.0000   1.0000   1.0000   1.0000   1.0000   1.0000   1.0000
     1.0000   1.0000   1.0000   1.0000   1.0000   1.0000   1.0000   1.0000
     1.0000   1.0000   1.0000   1.0000   1.0000   1.0000   1.0000   1.0000
     1.0000   1.0000   1.0000   1.0000   1.0000   1.0000   1.0000   1.0000
     1.0000   1.0000   1.0000   1.0000   1.0000   1.0000   1.0000   1.0000
     1.0000   1.0000   1.0000   1.0000   1.0000   1.0000   1.0000   1.0000
     1.0000   1.0000   1.0000   1.0000   1.0000   1.0000   1.0000   1.0000
     1.0000   1.0000   1.0000   1.0000   1.0000   1.0000   1.0000   1.0000
     1.0000   1.0000   1.0000   1.0000   1.0000   1.0000   1.0000   1.0000
     1.0000   1.0000   1.0000   1.0000   1.0000   1.0000   1.0000   1.0000
     1.0000   1.0000   1.0000   1.0000   1.0000   1.0000   1.0000   1.0000

          k = 0.0575 0.0342 0.0651 ( 58521 PWs)   bands (ev):

   -23.9253 -23.9241 -23.9053 -23.9019 -23.6463 -23.6461 -23.6401 -23.6361
   -19.1665 -19.1656 -19.1525 -19.1486 -18.8599 -18.8590 -18.8338 -18.8323
   -18.2537 -18.2435 -17.2105 -17.1922 -17.0573 -17.0559 -16.0564 -16.0486
   -12.1157 -12.1139 -12.0049 -11.9738 -11.8228 -11.8039 -11.7879 -11.7815
    -8.8958  -8.8452  -8.2694  -8.2542  -7.5432  -7.5302  -7.4644  -7.4027
    -7.0420  -6.9623  -6.5816  -6.5276  -6.4892  -6.4679  -6.3739  -6.3188
    -6.2450  -6.1945  -5.9696  -5.9519  -5.9121  -5.8898  -5.8078  -5.7706
    -5.6223  -5.6012  -5.4785  -5.4495  -5.1222  -5.0540  -4.9653  -4.9392
    -4.3849  -4.3652  -4.3225  -4.2884  -3.9866  -3.9716  -3.9015  -3.8857
    -3.7415  -3.7075  -3.5641  -3.5284  -3.1957  -3.1847  -3.0346  -3.0106
    -0.8171  -0.7995  -0.2894  -0.2735  -0.2326  -0.2229  -0.0915  -0.0799
    -0.0003   0.0110   0.1906   0.2012   0.2387   0.2507   0.3390   0.3836
     0.4784   0.4881   0.6124   0.6685   0.7469   0.7829   0.8569   0.8737
     0.9634   0.9873   1.0436   1.0591   1.3106   1.3255   1.3695   1.3876

     occupation numbers 
     1.0000   1.0000   1.0000   1.0000   1.0000   1.0000   1.0000   1.0000
     1.0000   1.0000   1.0000   1.0000   1.0000   1.0000   1.0000   1.0000
     1.0000   1.0000   1.0000   1.0000   1.0000   1.0000   1.0000   1.0000
     1.0000   1.0000   1.0000   1.0000   1.0000   1.0000   1.0000   1.0000
     1.0000   1.0000   1.0000   1.0000   1.0000   1.0000   1.0000   1.0000
     1.0000   1.0000   1.0000   1.0000   1.0000   1.0000   1.0000   1.0000
     1.0000   1.0000   1.0000   1.0000   1.0000   1.0000   1.0000   1.0000
     1.0000   1.0000   1.0000   1.0000   1.0000   1.0000   1.0000   1.0000
     1.0000   1.0000   1.0000   1.0000   1.0000   1.0000   1.0000   1.0000
     1.0000   1.0000   1.0000   1.0000   1.0000   1.0000   1.0000   1.0000
     1.0000   1.0000   1.0000   1.0000   1.0000   1.0000   1.0000   1.0000
     1.0000   1.0000   1.0000   1.0000   1.0000   1.0000   1.0000   1.0000
     1.0000   1.0000   1.0000   1.0000   1.0000   1.0000   1.0000   1.0000
     1.0000   1.0000   1.0000   1.0000   1.0000   1.0000   1.0000   1.0000

          k = 0.0575 0.0342-0.0394 ( 58516 PWs)   bands (ev):

   -23.9267 -23.9243 -23.9052 -23.9003 -23.6491 -23.6486 -23.6368 -23.6341
   -19.1649 -19.1645 -19.1534 -19.1505 -18.8609 -18.8600 -18.8327 -18.8312
   -18.2554 -18.2409 -17.2142 -17.1875 -17.0604 -17.0592 -16.0542 -16.0440
   -12.1198 -12.1172 -12.0198 -11.9736 -11.8245 -11.8016 -11.7815 -11.7732
    -8.8860  -8.8274  -8.2668  -8.2547  -7.5482  -7.5307  -7.4764  -7.3967
    -7.0481  -6.9605  -6.5812  -6.5417  -6.5001  -6.4794  -6.4227  -6.3671
    -6.2096  -6.1684  -5.9730  -5.9379  -5.8920  -5.8836  -5.8023  -5.7741
    -5.6036  -5.5903  -5.4776  -5.4451  -5.1359  -5.0832  -4.9333  -4.9125
    -4.4027  -4.3860  -4.2957  -4.2782  -4.0155  -4.0067  -3.8573  -3.8540
    -3.7200  -3.7140  -3.6050  -3.5488  -3.1949  -3.1794  -3.0362  -3.0159
    -0.7693  -0.7421  -0.2852  -0.2659  -0.2407  -0.2238  -0.1038  -0.0966
    -0.0619  -0.0370   0.1328   0.1642   0.2320   0.2491   0.2875   0.3116
     0.5673   0.5952   0.6697   0.6722   0.7639   0.7762   0.8512   0.8586
     0.9719   0.9895   1.0686   1.0937   1.3203   1.3284   1.3431   1.3552

     occupation numbers 
     1.0000   1.0000   1.0000   1.0000   1.0000   1.0000   1.0000   1.0000
     1.0000   1.0000   1.0000   1.0000   1.0000   1.0000   1.0000   1.0000
     1.0000   1.0000   1.0000   1.0000   1.0000   1.0000   1.0000   1.0000
     1.0000   1.0000   1.0000   1.0000   1.0000   1.0000   1.0000   1.0000
     1.0000   1.0000   1.0000   1.0000   1.0000   1.0000   1.0000   1.0000
     1.0000   1.0000   1.0000   1.0000   1.0000   1.0000   1.0000   1.0000
     1.0000   1.0000   1.0000   1.0000   1.0000   1.0000   1.0000   1.0000
     1.0000   1.0000   1.0000   1.0000   1.0000   1.0000   1.0000   1.0000
     1.0000   1.0000   1.0000   1.0000   1.0000   1.0000   1.0000   1.0000
     1.0000   1.0000   1.0000   1.0000   1.0000   1.0000   1.0000   1.0000
     1.0000   1.0000   1.0000   1.0000   1.0000   1.0000   1.0000   1.0000
     1.0000   1.0000   1.0000   1.0000   1.0000   1.0000   1.0000   1.0000
     1.0000   1.0000   1.0000   1.0000   1.0000   1.0000   1.0000   1.0000
     1.0000   1.0000   1.0000   1.0000   1.0000   1.0000   1.0000   1.0000

          k = 0.0575 0.0342-0.0046 ( 58504 PWs)   bands (ev):

   -23.9285 -23.9240 -23.9044 -23.9008 -23.6487 -23.6472 -23.6361 -23.6353
   -19.1640 -19.1633 -19.1526 -19.1522 -18.8531 -18.8526 -18.8389 -18.8384
   -18.2509 -18.2405 -17.2117 -17.1921 -17.0701 -17.0699 -16.0454 -16.0388
   -12.1070 -12.1051 -12.0146 -11.9760 -11.8380 -11.8155 -11.7771 -11.7751
    -8.8722  -8.8383  -8.2733  -8.2704  -7.5582  -7.5541  -7.5118  -7.4685
    -6.9864  -6.9502  -6.5917  -6.5799  -6.4609  -6.4554  -6.3537  -6.3411
    -6.1388  -6.1313  -5.9703  -5.9496  -5.8516  -5.8380  -5.7608  -5.7553
    -5.6336  -5.6197  -5.5472  -5.5440  -5.1138  -5.1031  -4.8942  -4.8922
    -4.4556  -4.4392  -4.3772  -4.3541  -4.0257  -4.0111  -3.7766  -3.7745
    -3.6792  -3.6517  -3.6484  -3.6087  -3.1651  -3.1501  -3.0488  -3.0425
    -0.6873  -0.6672  -0.2846  -0.2779  -0.2293  -0.2066  -0.1980  -0.1791
    -0.0802  -0.0595   0.0875   0.1148   0.2065   0.2261   0.3332   0.3528
     0.5926   0.6273   0.6947   0.7183   0.7737   0.8025   0.8836   0.8889
     0.9523   0.9635   1.0421   1.0819   1.3070   1.3087   1.3359   1.3437

     occupation numbers 
     1.0000   1.0000   1.0000   1.0000   1.0000   1.0000   1.0000   1.0000
     1.0000   1.0000   1.0000   1.0000   1.0000   1.0000   1.0000   1.0000
     1.0000   1.0000   1.0000   1.0000   1.0000   1.0000   1.0000   1.0000
     1.0000   1.0000   1.0000   1.0000   1.0000   1.0000   1.0000   1.0000
     1.0000   1.0000   1.0000   1.0000   1.0000   1.0000   1.0000   1.0000
     1.0000   1.0000   1.0000   1.0000   1.0000   1.0000   1.0000   1.0000
     1.0000   1.0000   1.0000   1.0000   1.0000   1.0000   1.0000   1.0000
     1.0000   1.0000   1.0000   1.0000   1.0000   1.0000   1.0000   1.0000
     1.0000   1.0000   1.0000   1.0000   1.0000   1.0000   1.0000   1.0000
     1.0000   1.0000   1.0000   1.0000   1.0000   1.0000   1.0000   1.0000
     1.0000   1.0000   1.0000   1.0000   1.0000   1.0000   1.0000   1.0000
     1.0000   1.0000   1.0000   1.0000   1.0000   1.0000   1.0000   1.0000
     1.0000   1.0000   1.0000   1.0000   1.0000   1.0000   1.0000   1.0000
     1.0000   1.0000   1.0000   1.0000   1.0000   1.0000   1.0000   1.0000

          k =-0.0192 0.0114-0.0217 ( 58532 PWs)   bands (ev):

   -23.9414 -23.9183 -23.9064 -23.8967 -23.6490 -23.6398 -23.6390 -23.6355
   -19.1679 -19.1624 -19.1555 -19.1430 -18.8482 -18.8480 -18.8437 -18.8425
   -18.2517 -18.2264 -17.2298 -17.1795 -17.0677 -17.0655 -16.0502 -16.0369
   -12.1051 -12.1019 -12.0816 -11.9632 -11.9075 -11.8330 -11.7783 -11.7581
    -8.8863  -8.8471  -8.2874  -8.2507  -7.5711  -7.5298  -7.4465  -7.4452
    -6.8631  -6.7565  -6.6085  -6.5280  -6.5110  -6.4135  -6.3517  -6.2688
    -6.1360  -6.1062  -6.0762  -5.9578  -5.9036  -5.8195  -5.7557  -5.7157
    -5.6580  -5.6373  -5.5584  -5.5175  -5.1356  -5.0206  -4.9329  -4.9229
    -4.4658  -4.4562  -4.4241  -4.3833  -4.2307  -4.1294  -3.8582  -3.8535
    -3.6977  -3.5862  -3.5331  -3.4941  -3.1650  -3.1255  -3.0539  -3.0339
    -0.8022  -0.7970  -0.3133  -0.3107  -0.2131  -0.1604  -0.1002  -0.0813
    -0.0259   0.0023   0.1686   0.2020   0.2137   0.2426   0.3718   0.3894
     0.4407   0.4569   0.6322   0.6849   0.7691   0.8153   0.8635   0.8897
     0.9124   1.0262   1.0583   1.1247   1.2121   1.3455   1.3649   1.3886

     occupation numbers 
     1.0000   1.0000   1.0000   1.0000   1.0000   1.0000   1.0000   1.0000
     1.0000   1.0000   1.0000   1.0000   1.0000   1.0000   1.0000   1.0000
     1.0000   1.0000   1.0000   1.0000   1.0000   1.0000   1.0000   1.0000
     1.0000   1.0000   1.0000   1.0000   1.0000   1.0000   1.0000   1.0000
     1.0000   1.0000   1.0000   1.0000   1.0000   1.0000   1.0000   1.0000
     1.0000   1.0000   1.0000   1.0000   1.0000   1.0000   1.0000   1.0000
     1.0000   1.0000   1.0000   1.0000   1.0000   1.0000   1.0000   1.0000
     1.0000   1.0000   1.0000   1.0000   1.0000   1.0000   1.0000   1.0000
     1.0000   1.0000   1.0000   1.0000   1.0000   1.0000   1.0000   1.0000
     1.0000   1.0000   1.0000   1.0000   1.0000   1.0000   1.0000   1.0000
     1.0000   1.0000   1.0000   1.0000   1.0000   1.0000   1.0000   1.0000
     1.0000   1.0000   1.0000   1.0000   1.0000   1.0000   1.0000   1.0000
     1.0000   1.0000   1.0000   1.0000   1.0000   1.0000   1.0000   1.0000
     1.0000   1.0000   1.0000   1.0000   1.0000   1.0000   1.0000   1.0000

          k =-0.0192 0.0114-0.0565 ( 58554 PWs)   bands (ev):

   -23.9332 -23.9240 -23.9027 -23.9016 -23.6505 -23.6472 -23.6358 -23.6313
   -19.1661 -19.1612 -19.1563 -19.1467 -18.8543 -18.8535 -18.8388 -18.8371
   -18.2399 -18.2397 -17.2057 -17.2032 -17.0635 -17.0609 -16.0456 -16.0439
   -12.1138 -12.1122 -12.0277 -12.0076 -11.8646 -11.8548 -11.7862 -11.7777
    -8.8666  -8.8307  -8.2689  -8.2441  -7.5849  -7.5351  -7.4274  -7.3508
    -6.9099  -6.7833  -6.5947  -6.5622  -6.5504  -6.4345  -6.3755  -6.3471
    -6.1969  -6.1629  -5.9638  -5.9105  -5.8951  -5.8280  -5.8006  -5.7619
    -5.7147  -5.6600  -5.4775  -5.4334  -5.1389  -5.0588  -4.9297  -4.8930
    -4.4236  -4.4150  -4.3711  -4.2945  -4.1559  -4.1270  -3.9731  -3.9690
    -3.6826  -3.6337  -3.4720  -3.4614  -3.1881  -3.1839  -3.0368  -3.0120
    -0.7685  -0.7343  -0.3266  -0.3154  -0.2213  -0.1895  -0.1337  -0.1116
    -0.0803  -0.0394   0.0684   0.1298   0.2342   0.2858   0.3423   0.3536
     0.5471   0.6085   0.6530   0.6964   0.7733   0.7919   0.8245   0.8741
     0.9835   1.0233   1.0946   1.1193   1.2230   1.2937   1.3708   1.3951

     occupation numbers 
     1.0000   1.0000   1.0000   1.0000   1.0000   1.0000   1.0000   1.0000
     1.0000   1.0000   1.0000   1.0000   1.0000   1.0000   1.0000   1.0000
     1.0000   1.0000   1.0000   1.0000   1.0000   1.0000   1.0000   1.0000
     1.0000   1.0000   1.0000   1.0000   1.0000   1.0000   1.0000   1.0000
     1.0000   1.0000   1.0000   1.0000   1.0000   1.0000   1.0000   1.0000
     1.0000   1.0000   1.0000   1.0000   1.0000   1.0000   1.0000   1.0000
     1.0000   1.0000   1.0000   1.0000   1.0000   1.0000   1.0000   1.0000
     1.0000   1.0000   1.0000   1.0000   1.0000   1.0000   1.0000   1.0000
     1.0000   1.0000   1.0000   1.0000   1.0000   1.0000   1.0000   1.0000
     1.0000   1.0000   1.0000   1.0000   1.0000   1.0000   1.0000   1.0000
     1.0000   1.0000   1.0000   1.0000   1.0000   1.0000   1.0000   1.0000
     1.0000   1.0000   1.0000   1.0000   1.0000   1.0000   1.0000   1.0000
     1.0000   1.0000   1.0000   1.0000   1.0000   1.0000   1.0000   1.0000
     1.0000   1.0000   1.0000   1.0000   1.0000   1.0000   1.0000   1.0000

          k =-0.0192 0.0114 0.0480 ( 58523 PWs)   bands (ev):

   -23.9342 -23.9234 -23.9064 -23.8974 -23.6520 -23.6489 -23.6326 -23.6313
   -19.1637 -19.1620 -19.1531 -19.1517 -18.8559 -18.8552 -18.8370 -18.8355
   -18.2516 -18.2267 -17.2276 -17.1811 -17.0660 -17.0642 -16.0494 -16.0337
   -12.1237 -12.1108 -12.0619 -11.9740 -11.8952 -11.8197 -11.7897 -11.7765
    -8.8758  -8.7921  -8.2561  -8.2532  -7.5796  -7.5642  -7.4392  -7.3251
    -6.9186  -6.8094  -6.5943  -6.5611  -6.5110  -6.4858  -6.3906  -6.3547
    -6.2139  -6.1875  -5.9693  -5.9350  -5.8278  -5.7929  -5.7861  -5.7725
    -5.7148  -5.6460  -5.4798  -5.4283  -5.1330  -5.0593  -4.9160  -4.8871
    -4.4537  -4.3863  -4.3533  -4.2965  -4.1867  -4.1449  -3.9776  -3.9279
    -3.6884  -3.6360  -3.5256  -3.4434  -3.1941  -3.1722  -3.0301  -3.0201
    -0.7034  -0.6432  -0.3157  -0.3075  -0.2774  -0.2461  -0.1713  -0.1523
    -0.0917  -0.0871   0.0346   0.1162   0.2528   0.2883   0.2984   0.3485
     0.5886   0.6725   0.6920   0.7055   0.7411   0.8346   0.8446   0.8569
     0.9760   1.0301   1.1065   1.1629   1.2295   1.2558   1.3595   1.3798

     occupation numbers 
     1.0000   1.0000   1.0000   1.0000   1.0000   1.0000   1.0000   1.0000
     1.0000   1.0000   1.0000   1.0000   1.0000   1.0000   1.0000   1.0000
     1.0000   1.0000   1.0000   1.0000   1.0000   1.0000   1.0000   1.0000
     1.0000   1.0000   1.0000   1.0000   1.0000   1.0000   1.0000   1.0000
     1.0000   1.0000   1.0000   1.0000   1.0000   1.0000   1.0000   1.0000
     1.0000   1.0000   1.0000   1.0000   1.0000   1.0000   1.0000   1.0000
     1.0000   1.0000   1.0000   1.0000   1.0000   1.0000   1.0000   1.0000
     1.0000   1.0000   1.0000   1.0000   1.0000   1.0000   1.0000   1.0000
     1.0000   1.0000   1.0000   1.0000   1.0000   1.0000   1.0000   1.0000
     1.0000   1.0000   1.0000   1.0000   1.0000   1.0000   1.0000   1.0000
     1.0000   1.0000   1.0000   1.0000   1.0000   1.0000   1.0000   1.0000
     1.0000   1.0000   1.0000   1.0000   1.0000   1.0000   1.0000   1.0000
     1.0000   1.0000   1.0000   1.0000   1.0000   1.0000   1.0000   1.0000
     1.0000   1.0000   1.0000   1.0000   1.0000   1.0000   1.0000   1.0000

          k =-0.0192 0.0114 0.0131 ( 58524 PWs)   bands (ev):

   -23.9419 -23.9185 -23.9076 -23.8949 -23.6514 -23.6429 -23.6353 -23.6337
   -19.1669 -19.1612 -19.1558 -19.1453 -18.8519 -18.8513 -18.8395 -18.8394
   -18.2562 -18.2206 -17.2388 -17.1701 -17.0698 -17.0693 -16.0506 -16.0301
   -12.1193 -12.1026 -12.0871 -11.9619 -11.9075 -11.8223 -11.7762 -11.7588
    -8.8974  -8.8067  -8.2810  -8.2537  -7.5756  -7.5536  -7.4799  -7.3952
    -6.8310  -6.8159  -6.6054  -6.5154  -6.5090  -6.4600  -6.3587  -6.2856
    -6.1813  -6.1402  -6.0117  -5.9606  -5.8642  -5.8167  -5.7380  -5.7116
    -5.6727  -5.6257  -5.5307  -5.5218  -5.1025  -5.0570  -4.9294  -4.8931
    -4.4682  -4.4468  -4.4218  -4.3992  -4.2393  -4.1394  -3.8657  -3.8070
    -3.7326  -3.5954  -3.5458  -3.4929  -3.1708  -3.1214  -3.0468  -3.0402
    -0.7539  -0.7320  -0.3031  -0.2991  -0.2138  -0.1793  -0.1131  -0.0928
    -0.0823  -0.0442   0.0613   0.1209   0.1880   0.2651   0.3170   0.3820
     0.5609   0.5971   0.6247   0.7092   0.7589   0.8201   0.8765   0.8893
     0.9208   1.0048   1.0860   1.1529   1.2096   1.3258   1.3512   1.3761

     occupation numbers 
     1.0000   1.0000   1.0000   1.0000   1.0000   1.0000   1.0000   1.0000
     1.0000   1.0000   1.0000   1.0000   1.0000   1.0000   1.0000   1.0000
     1.0000   1.0000   1.0000   1.0000   1.0000   1.0000   1.0000   1.0000
     1.0000   1.0000   1.0000   1.0000   1.0000   1.0000   1.0000   1.0000
     1.0000   1.0000   1.0000   1.0000   1.0000   1.0000   1.0000   1.0000
     1.0000   1.0000   1.0000   1.0000   1.0000   1.0000   1.0000   1.0000
     1.0000   1.0000   1.0000   1.0000   1.0000   1.0000   1.0000   1.0000
     1.0000   1.0000   1.0000   1.0000   1.0000   1.0000   1.0000   1.0000
     1.0000   1.0000   1.0000   1.0000   1.0000   1.0000   1.0000   1.0000
     1.0000   1.0000   1.0000   1.0000   1.0000   1.0000   1.0000   1.0000
     1.0000   1.0000   1.0000   1.0000   1.0000   1.0000   1.0000   1.0000
     1.0000   1.0000   1.0000   1.0000   1.0000   1.0000   1.0000   1.0000
     1.0000   1.0000   1.0000   1.0000   1.0000   1.0000   1.0000   1.0000
     1.0000   1.0000   1.0000   1.0000   1.0000   1.0000   1.0000   1.0000

          k =-0.0192 0.0342-0.0217 ( 58509 PWs)   bands (ev):

   -23.9360 -23.9271 -23.9017 -23.8984 -23.6453 -23.6410 -23.6388 -23.6379
   -19.1676 -19.1659 -19.1500 -19.1454 -18.8482 -18.8481 -18.8433 -18.8428
   -18.2445 -18.2341 -17.2150 -17.1942 -17.0670 -17.0660 -16.0463 -16.0408
   -12.1049 -12.1039 -12.0563 -12.0135 -11.8693 -11.8441 -11.7725 -11.7641
    -8.8757  -8.8595  -8.2774  -8.2622  -7.5618  -7.5442  -7.4400  -7.4392
    -6.8395  -6.7923  -6.5555  -6.5228  -6.5191  -6.4633  -6.3276  -6.3010
    -6.1464  -6.1290  -6.0033  -5.9685  -5.9030  -5.8601  -5.7639  -5.7485
    -5.6230  -5.6103  -5.5378  -5.5176  -5.0910  -5.0244  -4.9769  -4.9535
    -4.4750  -4.4685  -4.3893  -4.3721  -4.2115  -4.1628  -3.8530  -3.8478
    -3.6677  -3.6182  -3.5226  -3.5035  -3.1572  -3.1416  -3.0443  -3.0369
    -0.7974  -0.7949  -0.3055  -0.2975  -0.2263  -0.1898  -0.1226  -0.1163
     0.0086   0.0181   0.1942   0.2042   0.2354   0.2413   0.3937   0.3959
     0.4156   0.4385   0.6449   0.6717   0.7536   0.7702   0.8802   0.8999
     0.9499   0.9968   1.0874   1.1127   1.2487   1.3031   1.3749   1.3824

     occupation numbers 
     1.0000   1.0000   1.0000   1.0000   1.0000   1.0000   1.0000   1.0000
     1.0000   1.0000   1.0000   1.0000   1.0000   1.0000   1.0000   1.0000
     1.0000   1.0000   1.0000   1.0000   1.0000   1.0000   1.0000   1.0000
     1.0000   1.0000   1.0000   1.0000   1.0000   1.0000   1.0000   1.0000
     1.0000   1.0000   1.0000   1.0000   1.0000   1.0000   1.0000   1.0000
     1.0000   1.0000   1.0000   1.0000   1.0000   1.0000   1.0000   1.0000
     1.0000   1.0000   1.0000   1.0000   1.0000   1.0000   1.0000   1.0000
     1.0000   1.0000   1.0000   1.0000   1.0000   1.0000   1.0000   1.0000
     1.0000   1.0000   1.0000   1.0000   1.0000   1.0000   1.0000   1.0000
     1.0000   1.0000   1.0000   1.0000   1.0000   1.0000   1.0000   1.0000
     1.0000   1.0000   1.0000   1.0000   1.0000   1.0000   1.0000   1.0000
     1.0000   1.0000   1.0000   1.0000   1.0000   1.0000   1.0000   1.0000
     1.0000   1.0000   1.0000   1.0000   1.0000   1.0000   1.0000   1.0000
     1.0000   1.0000   1.0000   1.0000   1.0000   1.0000   1.0000   1.0000

          k =-0.0192 0.0342-0.0565 ( 58545 PWs)   bands (ev):

   -23.9302 -23.9263 -23.9029 -23.9023 -23.6489 -23.6476 -23.6350 -23.6331
   -19.1659 -19.1645 -19.1516 -19.1482 -18.8541 -18.8537 -18.8383 -18.8376
   -18.2398 -18.2398 -17.2053 -17.2043 -17.0624 -17.0613 -16.0452 -16.0445
   -12.1129 -12.1121 -12.0245 -12.0160 -11.8582 -11.8534 -11.7856 -11.7819
    -8.8563  -8.8414  -8.2621  -8.2518  -7.5688  -7.5485  -7.4050  -7.3740
    -6.8894  -6.8427  -6.5810  -6.5708  -6.4977  -6.4490  -6.3871  -6.3680
    -6.1508  -6.1218  -5.9856  -5.9379  -5.8701  -5.8371  -5.8028  -5.7855
    -5.7012  -5.6671  -5.4832  -5.4621  -5.0752  -5.0226  -4.9785  -4.9410
    -4.4013  -4.3867  -4.3599  -4.3232  -4.1562  -4.1429  -3.9708  -3.9695
    -3.6624  -3.6414  -3.4716  -3.4664  -3.1832  -3.1794  -3.0366  -3.0246
    -0.7576  -0.7436  -0.3191  -0.3100  -0.2328  -0.2055  -0.1490  -0.1326
    -0.0540  -0.0361   0.1171   0.1378   0.2391   0.2640   0.3347   0.3463
     0.5631   0.5902   0.6647   0.6848   0.7817   0.7909   0.8291   0.8595
     0.9865   1.0071   1.1066   1.1164   1.2468   1.2755   1.3770   1.3869

     occupation numbers 
     1.0000   1.0000   1.0000   1.0000   1.0000   1.0000   1.0000   1.0000
     1.0000   1.0000   1.0000   1.0000   1.0000   1.0000   1.0000   1.0000
     1.0000   1.0000   1.0000   1.0000   1.0000   1.0000   1.0000   1.0000
     1.0000   1.0000   1.0000   1.0000   1.0000   1.0000   1.0000   1.0000
     1.0000   1.0000   1.0000   1.0000   1.0000   1.0000   1.0000   1.0000
     1.0000   1.0000   1.0000   1.0000   1.0000   1.0000   1.0000   1.0000
     1.0000   1.0000   1.0000   1.0000   1.0000   1.0000   1.0000   1.0000
     1.0000   1.0000   1.0000   1.0000   1.0000   1.0000   1.0000   1.0000
     1.0000   1.0000   1.0000   1.0000   1.0000   1.0000   1.0000   1.0000
     1.0000   1.0000   1.0000   1.0000   1.0000   1.0000   1.0000   1.0000
     1.0000   1.0000   1.0000   1.0000   1.0000   1.0000   1.0000   1.0000
     1.0000   1.0000   1.0000   1.0000   1.0000   1.0000   1.0000   1.0000
     1.0000   1.0000   1.0000   1.0000   1.0000   1.0000   1.0000   1.0000
     1.0000   1.0000   1.0000   1.0000   1.0000   1.0000   1.0000   1.0000

          k =-0.0192 0.0342 0.0480 ( 58546 PWs)   bands (ev):

   -23.9312 -23.9267 -23.9037 -23.9000 -23.6506 -23.6493 -23.6326 -23.6320
   -19.1642 -19.1636 -19.1516 -19.1511 -18.8557 -18.8554 -18.8366 -18.8360
   -18.2445 -18.2342 -17.2140 -17.1947 -17.0654 -17.0646 -16.0447 -16.0382
   -12.1201 -12.1148 -12.0436 -12.0106 -11.8622 -11.8343 -11.7857 -11.7800
    -8.8523  -8.8177  -8.2566  -8.2551  -7.5717  -7.5663  -7.4086  -7.3604
    -6.8854  -6.8395  -6.5985  -6.5724  -6.4971  -6.4841  -6.4182  -6.3976
    -6.1303  -6.1134  -6.0037  -5.9740  -5.8234  -5.8082  -5.7869  -5.7656
    -5.7015  -5.6670  -5.4719  -5.4446  -5.1065  -5.0550  -4.9403  -4.9072
    -4.4409  -4.4126  -4.3137  -4.2928  -4.1835  -4.1658  -3.9633  -3.9427
    -3.6656  -3.6436  -3.5024  -3.4681  -3.1823  -3.1716  -3.0359  -3.0325
    -0.6868  -0.6622  -0.3157  -0.3119  -0.2482  -0.2315  -0.1958  -0.1732
    -0.1082  -0.0970   0.0866   0.1179   0.2544   0.2706   0.3105   0.3371
     0.6130   0.6463   0.7108   0.7244   0.7386   0.7856   0.8523   0.8574
     0.9914   1.0091   1.1310   1.1524   1.2350   1.2466   1.3651   1.3738

     occupation numbers 
     1.0000   1.0000   1.0000   1.0000   1.0000   1.0000   1.0000   1.0000
     1.0000   1.0000   1.0000   1.0000   1.0000   1.0000   1.0000   1.0000
     1.0000   1.0000   1.0000   1.0000   1.0000   1.0000   1.0000   1.0000
     1.0000   1.0000   1.0000   1.0000   1.0000   1.0000   1.0000   1.0000
     1.0000   1.0000   1.0000   1.0000   1.0000   1.0000   1.0000   1.0000
     1.0000   1.0000   1.0000   1.0000   1.0000   1.0000   1.0000   1.0000
     1.0000   1.0000   1.0000   1.0000   1.0000   1.0000   1.0000   1.0000
     1.0000   1.0000   1.0000   1.0000   1.0000   1.0000   1.0000   1.0000
     1.0000   1.0000   1.0000   1.0000   1.0000   1.0000   1.0000   1.0000
     1.0000   1.0000   1.0000   1.0000   1.0000   1.0000   1.0000   1.0000
     1.0000   1.0000   1.0000   1.0000   1.0000   1.0000   1.0000   1.0000
     1.0000   1.0000   1.0000   1.0000   1.0000   1.0000   1.0000   1.0000
     1.0000   1.0000   1.0000   1.0000   1.0000   1.0000   1.0000   1.0000
     1.0000   1.0000   1.0000   1.0000   1.0000   1.0000   1.0000   1.0000

          k =-0.0192 0.0342 0.0131 ( 58525 PWs)   bands (ev):

   -23.9365 -23.9277 -23.9016 -23.8972 -23.6484 -23.6447 -23.6353 -23.6347
   -19.1665 -19.1648 -19.1507 -19.1470 -18.8517 -18.8515 -18.8395 -18.8394
   -18.2462 -18.2315 -17.2183 -17.1899 -17.0698 -17.0695 -16.0444 -16.0359
   -12.1140 -12.1084 -12.0618 -12.0171 -11.8643 -11.8358 -11.7706 -11.7633
    -8.8725  -8.8350  -8.2746  -8.2634  -7.5695  -7.5595  -7.4521  -7.4182
[...]
     1.0000   1.0000   1.0000   1.0000   1.0000   1.0000   1.0000   1.0000
     1.0000   1.0000   1.0000   1.0000   1.0000   1.0000   1.0000   1.0000
     1.0000   1.0000   1.0000   1.0000   1.0000   1.0000   1.0000   1.0000
     1.0000   1.0000   1.0000   1.0000   1.0000   1.0000   1.0000   1.0000
     1.0000   1.0000   1.0000   1.0000   1.0000   1.0000   1.0000   1.0000
     1.0000   1.0000   1.0000   1.0000   1.0000   1.0000   1.0000   1.0000
     1.0000   1.0000   1.0000   1.0000   1.0000   1.0000   1.0000   1.0000
     1.0000   1.0000   1.0000   1.0000   1.0000   1.0000   1.0000   1.0000
     1.0000   1.0000   1.0000   1.0000   1.0000   1.0000   1.0000   1.0000
     1.0000   1.0000   1.0000   1.0000   1.0000   1.0000   1.0000   1.0000
     1.0000   1.0000   1.0000   1.0000   1.0000   1.0000   1.0000   1.0000
     1.0000   1.0000   1.0000   1.0000   1.0000   1.0000   1.0000   1.0000
     1.0000   1.0000   1.0000   1.0000   1.0000   1.0000   1.0000   1.0000
     1.0000   1.0000   1.0000   1.0000   1.0000   1.0000   1.0000   1.0000

          k =-0.0575 0.0114-0.0651 ( 58544 PWs)   bands (ev):

   -23.9265 -23.9236 -23.9072 -23.8990 -23.6465 -23.6462 -23.6428 -23.6333
   -19.1662 -19.1629 -19.1575 -19.1467 -18.8606 -18.8583 -18.8348 -18.8313
   -18.2607 -18.2361 -17.2234 -17.1794 -17.0584 -17.0548 -16.0620 -16.0433
   -12.1148 -12.1107 -12.0281 -11.9505 -11.8390 -11.7922 -11.7919 -11.7767
    -8.9303  -8.8080  -8.2816  -8.2452  -7.5665  -7.5409  -7.4768  -7.3417
    -7.0843  -6.8580  -6.6797  -6.5109  -6.5007  -6.4385  -6.4164  -6.3157
    -6.2601  -6.1785  -5.9902  -5.9628  -5.9160  -5.8617  -5.7953  -5.7371
    -5.6318  -5.5786  -5.5082  -5.4370  -5.1603  -4.9977  -4.9853  -4.9241
    -4.3998  -4.3851  -4.3261  -4.2827  -4.0001  -3.9619  -3.9095  -3.8709
    -3.7637  -3.6674  -3.5980  -3.5049  -3.2029  -3.1762  -3.0507  -2.9931
    -0.8331  -0.7899  -0.3021  -0.2663  -0.2050  -0.1745  -0.1174  -0.0788
    -0.0305   0.0019   0.1733   0.2057   0.2242   0.2441   0.3162   0.4112
     0.4932   0.5122   0.5617   0.6715   0.7686   0.8010   0.8454   0.8757
     0.9711   1.0096   1.0246   1.0521   1.3009   1.3378   1.3562   1.4008

     occupation numbers 
     1.0000   1.0000   1.0000   1.0000   1.0000   1.0000   1.0000   1.0000
     1.0000   1.0000   1.0000   1.0000   1.0000   1.0000   1.0000   1.0000
     1.0000   1.0000   1.0000   1.0000   1.0000   1.0000   1.0000   1.0000
     1.0000   1.0000   1.0000   1.0000   1.0000   1.0000   1.0000   1.0000
     1.0000   1.0000   1.0000   1.0000   1.0000   1.0000   1.0000   1.0000
     1.0000   1.0000   1.0000   1.0000   1.0000   1.0000   1.0000   1.0000
     1.0000   1.0000   1.0000   1.0000   1.0000   1.0000   1.0000   1.0000
     1.0000   1.0000   1.0000   1.0000   1.0000   1.0000   1.0000   1.0000
     1.0000   1.0000   1.0000   1.0000   1.0000   1.0000   1.0000   1.0000
     1.0000   1.0000   1.0000   1.0000   1.0000   1.0000   1.0000   1.0000
     1.0000   1.0000   1.0000   1.0000   1.0000   1.0000   1.0000   1.0000
     1.0000   1.0000   1.0000   1.0000   1.0000   1.0000   1.0000   1.0000
     1.0000   1.0000   1.0000   1.0000   1.0000   1.0000   1.0000   1.0000
     1.0000   1.0000   1.0000   1.0000   1.0000   1.0000   1.0000   1.0000

          k =-0.0575 0.0114 0.0394 ( 58481 PWs)   bands (ev):

   -23.9282 -23.9224 -23.9088 -23.8968 -23.6497 -23.6486 -23.6384 -23.6321
   -19.1642 -19.1621 -19.1577 -19.1495 -18.8616 -18.8594 -18.8337 -18.8302
   -18.2653 -18.2303 -17.2334 -17.1688 -17.0612 -17.0582 -16.0616 -16.0371
   -12.1191 -12.1116 -12.0522 -11.9295 -11.8553 -11.7913 -11.7865 -11.7654
    -8.9254  -8.7836  -8.2757  -8.2467  -7.5651  -7.5461  -7.4987  -7.3294
    -7.1020  -6.8603  -6.6669  -6.5318  -6.5012  -6.4799  -6.4051  -6.3402
    -6.2643  -6.1946  -5.9781  -5.9227  -5.8846  -5.8684  -5.7957  -5.7526
    -5.6064  -5.5745  -5.5151  -5.4358  -5.1506  -5.0220  -4.9591  -4.9106
    -4.4024  -4.3640  -4.3243  -4.2989  -4.0258  -4.0026  -3.8568  -3.8496
    -3.7104  -3.6973  -3.6571  -3.5122  -3.2070  -3.1718  -3.0462  -2.9986
    -0.7908  -0.7257  -0.2948  -0.2425  -0.2185  -0.1944  -0.1241  -0.0993
    -0.0909  -0.0500   0.1049   0.1878   0.2233   0.2662   0.2833   0.3089
     0.5430   0.6162   0.6434   0.6589   0.7670   0.7951   0.8664   0.8881
     0.9614   0.9896   1.0431   1.1086   1.3168   1.3331   1.3379   1.3637

     occupation numbers 
     1.0000   1.0000   1.0000   1.0000   1.0000   1.0000   1.0000   1.0000
     1.0000   1.0000   1.0000   1.0000   1.0000   1.0000   1.0000   1.0000
     1.0000   1.0000   1.0000   1.0000   1.0000   1.0000   1.0000   1.0000
     1.0000   1.0000   1.0000   1.0000   1.0000   1.0000   1.0000   1.0000
     1.0000   1.0000   1.0000   1.0000   1.0000   1.0000   1.0000   1.0000
     1.0000   1.0000   1.0000   1.0000   1.0000   1.0000   1.0000   1.0000
     1.0000   1.0000   1.0000   1.0000   1.0000   1.0000   1.0000   1.0000
     1.0000   1.0000   1.0000   1.0000   1.0000   1.0000   1.0000   1.0000
     1.0000   1.0000   1.0000   1.0000   1.0000   1.0000   1.0000   1.0000
     1.0000   1.0000   1.0000   1.0000   1.0000   1.0000   1.0000   1.0000
     1.0000   1.0000   1.0000   1.0000   1.0000   1.0000   1.0000   1.0000
     1.0000   1.0000   1.0000   1.0000   1.0000   1.0000   1.0000   1.0000
     1.0000   1.0000   1.0000   1.0000   1.0000   1.0000   1.0000   1.0000
     1.0000   1.0000   1.0000   1.0000   1.0000   1.0000   1.0000   1.0000

          k =-0.0575 0.0114 0.0046 ( 58445 PWs)   bands (ev):

   -23.9315 -23.9205 -23.9072 -23.8983 -23.6502 -23.6467 -23.6362 -23.6345
   -19.1636 -19.1618 -19.1540 -19.1527 -18.8534 -18.8523 -18.8392 -18.8380
   -18.2580 -18.2329 -17.2257 -17.1782 -17.0702 -17.0699 -16.0501 -16.0342
   -12.1075 -12.1020 -12.0399 -11.9398 -11.8639 -11.8040 -11.7767 -11.7743
    -8.8957  -8.8135  -8.2754  -8.2721  -7.5615  -7.5515  -7.5392  -7.4349
    -6.9984  -6.9082  -6.6302  -6.6057  -6.4736  -6.4699  -6.2983  -6.2663
    -6.1851  -6.1801  -5.9597  -5.9249  -5.8592  -5.8266  -5.7786  -5.7701
    -5.6307  -5.6168  -5.5500  -5.5401  -5.1090  -5.0898  -4.8983  -4.8911
    -4.4556  -4.4296  -4.3799  -4.3492  -4.0482  -4.0139  -3.7749  -3.7680
    -3.7028  -3.6773  -3.6325  -3.5809  -3.1762  -3.1427  -3.0479  -3.0309
    -0.7032  -0.6547  -0.2993  -0.2896  -0.2118  -0.2083  -0.1765  -0.1750
    -0.0807  -0.0514   0.0643   0.1281   0.1878   0.2278   0.3228   0.3588
     0.5617   0.6279   0.7124   0.7505   0.7670   0.8100   0.8781   0.9016
     0.9333   0.9506   1.0256   1.1122   1.3043   1.3106   1.3315   1.3491

     occupation numbers 
     1.0000   1.0000   1.0000   1.0000   1.0000   1.0000   1.0000   1.0000
     1.0000   1.0000   1.0000   1.0000   1.0000   1.0000   1.0000   1.0000
     1.0000   1.0000   1.0000   1.0000   1.0000   1.0000   1.0000   1.0000
     1.0000   1.0000   1.0000   1.0000   1.0000   1.0000   1.0000   1.0000
     1.0000   1.0000   1.0000   1.0000   1.0000   1.0000   1.0000   1.0000
     1.0000   1.0000   1.0000   1.0000   1.0000   1.0000   1.0000   1.0000
     1.0000   1.0000   1.0000   1.0000   1.0000   1.0000   1.0000   1.0000
     1.0000   1.0000   1.0000   1.0000   1.0000   1.0000   1.0000   1.0000
     1.0000   1.0000   1.0000   1.0000   1.0000   1.0000   1.0000   1.0000
     1.0000   1.0000   1.0000   1.0000   1.0000   1.0000   1.0000   1.0000
     1.0000   1.0000   1.0000   1.0000   1.0000   1.0000   1.0000   1.0000
     1.0000   1.0000   1.0000   1.0000   1.0000   1.0000   1.0000   1.0000
     1.0000   1.0000   1.0000   1.0000   1.0000   1.0000   1.0000   1.0000
     1.0000   1.0000   1.0000   1.0000   1.0000   1.0000   1.0000   1.0000

          k =-0.0575 0.0342-0.0303 ( 58502 PWs)   bands (ev):

   -23.9275 -23.9234 -23.9036 -23.9032 -23.6455 -23.6444 -23.6398 -23.6377
   -19.1657 -19.1645 -19.1525 -19.1492 -18.8505 -18.8500 -18.8416 -18.8411
   -18.2461 -18.2461 -17.2030 -17.2020 -17.0672 -17.0663 -16.0458 -16.0450
   -12.1023 -12.1021 -11.9915 -11.9831 -11.8348 -11.8283 -11.7829 -11.7765
    -8.8763  -8.8625  -8.2773  -8.2679  -7.5545  -7.5445  -7.5011  -7.4768
    -6.9850  -6.9600  -6.5983  -6.5551  -6.4607  -6.4354  -6.2914  -6.2568
    -6.1921  -6.1640  -5.9902  -5.9613  -5.8850  -5.8589  -5.7641  -5.7434
    -5.6365  -5.6229  -5.5489  -5.5413  -5.1198  -5.0738  -4.9220  -4.9177
    -4.4468  -4.4346  -4.3770  -4.3567  -4.0192  -3.9945  -3.7981  -3.7820
    -3.7158  -3.6724  -3.5877  -3.5809  -3.1591  -3.1562  -3.0497  -3.0366
    -0.7496  -0.7437  -0.2863  -0.2792  -0.2388  -0.2201  -0.1020  -0.0812
    -0.0617  -0.0459   0.1217   0.1377   0.2100   0.2242   0.3498   0.3606
     0.5998   0.6064   0.6340   0.6629   0.7792   0.7866   0.8708   0.8902
     0.9485   0.9788   1.0155   1.0393   1.2968   1.3090   1.3629   1.3779

     occupation numbers 
     1.0000   1.0000   1.0000   1.0000   1.0000   1.0000   1.0000   1.0000
     1.0000   1.0000   1.0000   1.0000   1.0000   1.0000   1.0000   1.0000
     1.0000   1.0000   1.0000   1.0000   1.0000   1.0000   1.0000   1.0000
     1.0000   1.0000   1.0000   1.0000   1.0000   1.0000   1.0000   1.0000
     1.0000   1.0000   1.0000   1.0000   1.0000   1.0000   1.0000   1.0000
     1.0000   1.0000   1.0000   1.0000   1.0000   1.0000   1.0000   1.0000
     1.0000   1.0000   1.0000   1.0000   1.0000   1.0000   1.0000   1.0000
     1.0000   1.0000   1.0000   1.0000   1.0000   1.0000   1.0000   1.0000
     1.0000   1.0000   1.0000   1.0000   1.0000   1.0000   1.0000   1.0000
     1.0000   1.0000   1.0000   1.0000   1.0000   1.0000   1.0000   1.0000
     1.0000   1.0000   1.0000   1.0000   1.0000   1.0000   1.0000   1.0000
     1.0000   1.0000   1.0000   1.0000   1.0000   1.0000   1.0000   1.0000
     1.0000   1.0000   1.0000   1.0000   1.0000   1.0000   1.0000   1.0000
     1.0000   1.0000   1.0000   1.0000   1.0000   1.0000   1.0000   1.0000

          k =-0.0575 0.0342-0.0651 ( 58521 PWs)   bands (ev):

   -23.9253 -23.9241 -23.9053 -23.9019 -23.6463 -23.6461 -23.6401 -23.6361
   -19.1665 -19.1656 -19.1525 -19.1486 -18.8599 -18.8590 -18.8338 -18.8323
   -18.2537 -18.2435 -17.2105 -17.1922 -17.0573 -17.0559 -16.0564 -16.0486
   -12.1158 -12.1139 -12.0049 -11.9738 -11.8228 -11.8039 -11.7879 -11.7815
    -8.8958  -8.8452  -8.2694  -8.2542  -7.5432  -7.5302  -7.4644  -7.4027
    -7.0420  -6.9623  -6.5816  -6.5276  -6.4892  -6.4679  -6.3739  -6.3188
    -6.2450  -6.1945  -5.9696  -5.9519  -5.9121  -5.8898  -5.8078  -5.7706
    -5.6223  -5.6012  -5.4785  -5.4495  -5.1222  -5.0540  -4.9653  -4.9392
    -4.3849  -4.3652  -4.3225  -4.2884  -3.9866  -3.9716  -3.9015  -3.8857
    -3.7415  -3.7075  -3.5641  -3.5284  -3.1957  -3.1847  -3.0346  -3.0106
    -0.8171  -0.7995  -0.2894  -0.2735  -0.2326  -0.2229  -0.0915  -0.0799
    -0.0003   0.0110   0.1906   0.2012   0.2387   0.2507   0.3390   0.3836
     0.4784   0.4881   0.6124   0.6685   0.7469   0.7829   0.8569   0.8737
     0.9634   0.9873   1.0436   1.0591   1.3106   1.3255   1.3695   1.3876

     occupation numbers 
     1.0000   1.0000   1.0000   1.0000   1.0000   1.0000   1.0000   1.0000
     1.0000   1.0000   1.0000   1.0000   1.0000   1.0000   1.0000   1.0000
     1.0000   1.0000   1.0000   1.0000   1.0000   1.0000   1.0000   1.0000
     1.0000   1.0000   1.0000   1.0000   1.0000   1.0000   1.0000   1.0000
     1.0000   1.0000   1.0000   1.0000   1.0000   1.0000   1.0000   1.0000
     1.0000   1.0000   1.0000   1.0000   1.0000   1.0000   1.0000   1.0000
     1.0000   1.0000   1.0000   1.0000   1.0000   1.0000   1.0000   1.0000
     1.0000   1.0000   1.0000   1.0000   1.0000   1.0000   1.0000   1.0000
     1.0000   1.0000   1.0000   1.0000   1.0000   1.0000   1.0000   1.0000
     1.0000   1.0000   1.0000   1.0000   1.0000   1.0000   1.0000   1.0000
     1.0000   1.0000   1.0000   1.0000   1.0000   1.0000   1.0000   1.0000
     1.0000   1.0000   1.0000   1.0000   1.0000   1.0000   1.0000   1.0000
     1.0000   1.0000   1.0000   1.0000   1.0000   1.0000   1.0000   1.0000
     1.0000   1.0000   1.0000   1.0000   1.0000   1.0000   1.0000   1.0000

          k =-0.0575 0.0342 0.0394 ( 58516 PWs)   bands (ev):

   -23.9267 -23.9243 -23.9052 -23.9003 -23.6491 -23.6486 -23.6368 -23.6341
   -19.1649 -19.1645 -19.1534 -19.1505 -18.8609 -18.8600 -18.8327 -18.8312
   -18.2554 -18.2409 -17.2142 -17.1875 -17.0604 -17.0592 -16.0542 -16.0440
   -12.1198 -12.1172 -12.0198 -11.9736 -11.8245 -11.8016 -11.7815 -11.7732
    -8.8860  -8.8274  -8.2668  -8.2547  -7.5482  -7.5307  -7.4764  -7.3967
    -7.0481  -6.9605  -6.5812  -6.5417  -6.5001  -6.4794  -6.4227  -6.3671
    -6.2096  -6.1684  -5.9730  -5.9379  -5.8920  -5.8836  -5.8023  -5.7741
    -5.6036  -5.5903  -5.4776  -5.4451  -5.1359  -5.0832  -4.9333  -4.9125
    -4.4027  -4.3860  -4.2957  -4.2782  -4.0155  -4.0067  -3.8573  -3.8540
    -3.7200  -3.7140  -3.6050  -3.5488  -3.1949  -3.1794  -3.0362  -3.0159
    -0.7693  -0.7421  -0.2852  -0.2659  -0.2407  -0.2238  -0.1038  -0.0966
    -0.0619  -0.0370   0.1328   0.1642   0.2320   0.2491   0.2875   0.3116
     0.5673   0.5952   0.6697   0.6722   0.7639   0.7762   0.8512   0.8586
     0.9719   0.9895   1.0686   1.0937   1.3203   1.3284   1.3431   1.3552

     occupation numbers 
     1.0000   1.0000   1.0000   1.0000   1.0000   1.0000   1.0000   1.0000
     1.0000   1.0000   1.0000   1.0000   1.0000   1.0000   1.0000   1.0000
     1.0000   1.0000   1.0000   1.0000   1.0000   1.0000   1.0000   1.0000
     1.0000   1.0000   1.0000   1.0000   1.0000   1.0000   1.0000   1.0000
     1.0000   1.0000   1.0000   1.0000   1.0000   1.0000   1.0000   1.0000
     1.0000   1.0000   1.0000   1.0000   1.0000   1.0000   1.0000   1.0000
     1.0000   1.0000   1.0000   1.0000   1.0000   1.0000   1.0000   1.0000
     1.0000   1.0000   1.0000   1.0000   1.0000   1.0000   1.0000   1.0000
     1.0000   1.0000   1.0000   1.0000   1.0000   1.0000   1.0000   1.0000
     1.0000   1.0000   1.0000   1.0000   1.0000   1.0000   1.0000   1.0000
     1.0000   1.0000   1.0000   1.0000   1.0000   1.0000   1.0000   1.0000
     1.0000   1.0000   1.0000   1.0000   1.0000   1.0000   1.0000   1.0000
     1.0000   1.0000   1.0000   1.0000   1.0000   1.0000   1.0000   1.0000
     1.0000   1.0000   1.0000   1.0000   1.0000   1.0000   1.0000   1.0000

          k =-0.0575 0.0342 0.0046 ( 58504 PWs)   bands (ev):

   -23.9285 -23.9240 -23.9044 -23.9008 -23.6487 -23.6472 -23.6361 -23.6353
   -19.1640 -19.1633 -19.1526 -19.1522 -18.8531 -18.8526 -18.8389 -18.8384
   -18.2509 -18.2405 -17.2117 -17.1921 -17.0701 -17.0699 -16.0454 -16.0388
   -12.1070 -12.1051 -12.0146 -11.9760 -11.8380 -11.8155 -11.7771 -11.7751
    -8.8722  -8.8383  -8.2733  -8.2704  -7.5582  -7.5541  -7.5118  -7.4685
    -6.9864  -6.9502  -6.5917  -6.5799  -6.4609  -6.4554  -6.3537  -6.3411
    -6.1388  -6.1313  -5.9703  -5.9496  -5.8516  -5.8380  -5.7608  -5.7553
    -5.6336  -5.6197  -5.5472  -5.5440  -5.1138  -5.1031  -4.8942  -4.8922
    -4.4556  -4.4392  -4.3772  -4.3541  -4.0257  -4.0111  -3.7766  -3.7745
    -3.6792  -3.6517  -3.6484  -3.6087  -3.1651  -3.1501  -3.0488  -3.0425
    -0.6873  -0.6672  -0.2846  -0.2779  -0.2293  -0.2066  -0.1980  -0.1791
    -0.0802  -0.0595   0.0875   0.1148   0.2065   0.2261   0.3332   0.3528
     0.5926   0.6273   0.6947   0.7183   0.7737   0.8025   0.8836   0.8889
     0.9523   0.9635   1.0421   1.0819   1.3070   1.3087   1.3359   1.3437

     occupation numbers 
     1.0000   1.0000   1.0000   1.0000   1.0000   1.0000   1.0000   1.0000
     1.0000   1.0000   1.0000   1.0000   1.0000   1.0000   1.0000   1.0000
     1.0000   1.0000   1.0000   1.0000   1.0000   1.0000   1.0000   1.0000
     1.0000   1.0000   1.0000   1.0000   1.0000   1.0000   1.0000   1.0000
     1.0000   1.0000   1.0000   1.0000   1.0000   1.0000   1.0000   1.0000
     1.0000   1.0000   1.0000   1.0000   1.0000   1.0000   1.0000   1.0000
     1.0000   1.0000   1.0000   1.0000   1.0000   1.0000   1.0000   1.0000
     1.0000   1.0000   1.0000   1.0000   1.0000   1.0000   1.0000   1.0000
     1.0000   1.0000   1.0000   1.0000   1.0000   1.0000   1.0000   1.0000
     1.0000   1.0000   1.0000   1.0000   1.0000   1.0000   1.0000   1.0000
     1.0000   1.0000   1.0000   1.0000   1.0000   1.0000   1.0000   1.0000
     1.0000   1.0000   1.0000   1.0000   1.0000   1.0000   1.0000   1.0000
     1.0000   1.0000   1.0000   1.0000   1.0000   1.0000   1.0000   1.0000
     1.0000   1.0000   1.0000   1.0000   1.0000   1.0000   1.0000   1.0000

     highest occupied level (ev):     1.4008

!    total energy              =   -1282.01359022 Ry
     Harris-Foulkes estimate   =   -1282.01359097 Ry
     estimated scf accuracy    <       0.00000083 Ry

     total all-electron energy =     -4786.457338 Ry

     The total energy is the sum of the following terms:

     one-electron contribution =    -643.01599013 Ry
     hartree contribution      =     419.77383061 Ry
     xc contribution           =    -260.28316267 Ry
     ewald contribution        =    -468.09466675 Ry
     one-center paw contrib.   =    -330.39360128 Ry

     convergence has been achieved in  19 iterations

     Writing output data file scf.pbe-ec-100-kp444.HMX-792829-nofor.nostress.save

     init_run     :    593.19s CPU    633.97s WALL (       1 calls)
     electrons    :  24617.35s CPU  26898.99s WALL (       1 calls)

     Called by init_run:
     wfcinit      :    476.65s CPU    512.81s WALL (       1 calls)
     potinit      :     36.96s CPU     37.44s WALL (       1 calls)

     Called by electrons:
     c_bands      :  21534.23s CPU  23428.85s WALL (      19 calls)
     sum_band     :   2830.99s CPU   3180.66s WALL (      19 calls)
     v_of_rho     :     41.77s CPU     43.37s WALL (      20 calls)
     v_h          :      3.99s CPU      4.08s WALL (      20 calls)
     v_xc         :     37.78s CPU     39.29s WALL (      20 calls)
     newd         :    193.87s CPU    226.46s WALL (      20 calls)
     PAW_pot      :     13.30s CPU     13.52s WALL (      20 calls)
     mix_rho      :      9.66s CPU      9.98s WALL (      19 calls)

     Called by c_bands:
     init_us_2    :    106.55s CPU    108.74s WALL (    1248 calls)
     cegterg      :  21362.19s CPU  23227.22s WALL (     608 calls)

     Called by sum_band:
     sum_band:bec :      0.59s CPU      0.62s WALL (     608 calls)
     addusdens    :    329.28s CPU    536.36s WALL (      19 calls)

     Called by *egterg:
     h_psi        :  11532.73s CPU  12433.73s WALL (    3011 calls)
     s_psi        :   2547.66s CPU   2697.69s WALL (    3011 calls)
     g_psi        :     18.29s CPU     23.57s WALL (    2371 calls)
     cdiaghg      :    691.10s CPU    712.70s WALL (    2979 calls)
     cegterg:over :   2523.72s CPU   2830.80s WALL (    2371 calls)
     cegterg:upda :   1576.03s CPU   1638.72s WALL (    2371 calls)
     cegterg:last :   1035.52s CPU   1117.29s WALL (     672 calls)

     Called by h_psi:
     h_psi:vloc   :   6542.21s CPU   7037.26s WALL (    3011 calls)
     h_psi:vnl    :   4926.53s CPU   5330.53s WALL (    3011 calls)
     add_vuspsi   :   2558.00s CPU   2750.68s WALL (    3011 calls)

     General routines
     calbec       :   3118.66s CPU   3385.87s WALL (    3619 calls)
     fft          :     44.91s CPU     52.23s WALL (     316 calls)
     ffts         :      0.77s CPU      0.83s WALL (      39 calls)
     fftw         :   4460.95s CPU   4994.36s WALL (  483124 calls)
     interpolate  :      7.52s CPU      7.88s WALL (      39 calls)
     davcio       :      1.65s CPU     41.98s WALL (      32 calls)

     Parallel routines
     fft_scatter  :   1729.37s CPU   2245.32s WALL (  483479 calls)

     PAW routines
     PAW_pot      :     13.30s CPU     13.52s WALL (      20 calls)
     PAW_symme    :      0.00s CPU      0.01s WALL (      39 calls)

     PWSCF        :     7h 0m CPU        7h39m WALL


   This run was terminated on:   6:21:11  24May2016            

=------------------------------------------------------------------------------=
   JOB DONE.
=------------------------------------------------------------------------------=
