
     Program PWSCF v.5.3.0 (svn rev. 11974) starts on  1Jun2016 at 16:16:44 

     This program is part of the open-source Quantum ESPRESSO suite
     for quantum simulation of materials; please cite
         "P. Giannozzi et al., J. Phys.:Condens. Matter 21 395502 (2009);
          URL http://www.quantum-espresso.org", 
     in publications or presentations arising from this work. More details at
     http://www.quantum-espresso.org/quote

     Parallel version (MPI), running on     8 processors
     R & G space division:  proc/nbgrp/npool/nimage =       8
     Waiting for input...
     Reading input from standard input
Warning: card    &IONS ignored
Warning: card TRUST_RADIUS_MAX=0.2 ignored
Warning: card / ignored
Warning: card     &CELL ignored
Warning: card CELL_DYNAMICS='BFGS' ignored
Warning: card / ignored

     Current dimensions of program PWSCF are:
     Max number of different atomic species (ntypx) = 10
     Max number of k-points (npk) =  40000
     Max angular momentum in pseudopotentials (lmaxx) =  3
               file N.pbe-n-kjpaw_psl.1.0.0.UPF: wavefunction(s)  2S renormalized
               file C.pbe-n-kjpaw_psl.1.0.0.UPF: wavefunction(s)  2S 2P renormalized
               file H.pbe-kjpaw_psl.1.0.0.UPF: wavefunction(s)  1S renormalized
               file O.pbe-n-kjpaw_psl.1.0.0.UPF: wavefunction(s)  2S 2P renormalized

     Subspace diagonalization in iterative solution of the eigenvalue problem:
     a serial algorithm will be used


     Parallelization info
     --------------------
     sticks:   dense  smooth     PW     G-vecs:    dense   smooth      PW
     Min        6533    2615    678               955560   241691   31999
     Max        6534    2616    679               955561   241761   32002
     Sum       52265   20921   5431              7644485  1933815  256007


     Title: 
     HMX-scf--kp-444-ec-260-default-conv-thr                                    


     bravais-lattice index     =            0
     lattice parameter (alat)  =       1.8897  a.u.
     unit-cell volume          =    3414.4567 (a.u.)^3
     number of atoms/cell      =           56
     number of atomic types    =            4
     number of electrons       =       224.00
     number of Kohn-Sham states=          112
     kinetic-energy cutoff     =     260.0000  Ry
     charge density cutoff     =    2600.0000  Ry
     convergence threshold     =      1.0E-06
     mixing beta               =       0.7000
     number of iterations used =            8  plain     mixing
     Exchange-correlation      =  SLA  PW   PBX  PBC ( 1  4  3  4 0 0)

     celldm(1)=   1.889726  celldm(2)=   0.000000  celldm(3)=   0.000000
     celldm(4)=   0.000000  celldm(5)=   0.000000  celldm(6)=   0.000000

     crystal axes: (cart. coord. in units of alat)
               a(1) = (   6.525000   0.000000   0.000000 )  
               a(2) = (   0.000000  10.840000   0.000000 )  
               a(3) = (  -1.555911   0.000000   7.153446 )  

     reciprocal axes: (cart. coord. in units 2 pi/alat)
               b(1) = (  0.153257 -0.000000  0.033334 )  
               b(2) = (  0.000000  0.092251 -0.000000 )  
               b(3) = (  0.000000  0.000000  0.139793 )  


     PseudoPot. # 1 for  N read from file:
     /users/majewski/.data/PSEUDOPOTENTIALS/N.pbe-n-kjpaw_psl.1.0.0.UPF
     MD5 check sum: c21df8f53e59d08c3548513d559cdda6
     Pseudo is Projector augmented-wave + core cor, Zval =  5.0
     Generated using "atomic" code by A. Dal Corso  v.5.3.0 svn rev. 11974
     Shape of augmentation charge: PSQ
     Using radial grid of 1085 points,  4 beta functions with: 
                l(1) =   0
                l(2) =   0
                l(3) =   1
                l(4) =   1
     Q(r) pseudized with 0 coefficients 


     PseudoPot. # 2 for  C read from file:
     /users/majewski/.data/PSEUDOPOTENTIALS/C.pbe-n-kjpaw_psl.1.0.0.UPF
     MD5 check sum: 2ba8448e293caca687844dde9a1b88a8
     Pseudo is Projector augmented-wave + core cor, Zval =  4.0
     Generated using "atomic" code by A. Dal Corso  v.5.3.0 svn rev. 11974
     Shape of augmentation charge: PSQ
     Using radial grid of 1073 points,  4 beta functions with: 
                l(1) =   0
                l(2) =   0
                l(3) =   1
                l(4) =   1
     Q(r) pseudized with 0 coefficients 


     PseudoPot. # 3 for  H read from file:
     /users/majewski/.data/PSEUDOPOTENTIALS/H.pbe-kjpaw_psl.1.0.0.UPF
     MD5 check sum: bc0feb48a24907a0b97fa6ee2d589a29
     Pseudo is Projector augmented-wave, Zval =  1.0
     Generated using "atomic" code by A. Dal Corso  v.5.3.0 svn rev. 11974
     Shape of augmentation charge: PSQ
     Using radial grid of  929 points,  2 beta functions with: 
                l(1) =   0
                l(2) =   0
     Q(r) pseudized with 0 coefficients 


     PseudoPot. # 4 for  O read from file:
     /users/majewski/.data/PSEUDOPOTENTIALS/O.pbe-n-kjpaw_psl.1.0.0.UPF
     MD5 check sum: 9c0ade6c043cf4a781bde3908a3a8206
     Pseudo is Projector augmented-wave + core cor, Zval =  6.0
     Generated using "atomic" code by A. Dal Corso  v.5.3.0 svn rev. 11974
     Shape of augmentation charge: PSQ
     Using radial grid of 1095 points,  4 beta functions with: 
                l(1) =   0
                l(2) =   0
                l(3) =   1
                l(4) =   1
     Q(r) pseudized with 0 coefficients 


     atomic species   valence    mass     pseudopotential
        N              5.00    14.00670      N( 1.00)
        C              4.00    12.01100      C( 1.00)
        H              1.00     1.00790      H( 1.00)
        O              6.00    15.99940      O( 1.00)

      2 Sym. Ops., with inversion, found
          (note:  2 additional sym.ops. were found but ignored
           their fractional translations are incommensurate with FFT grid)

                                    s                        frac. trans.

      isym =  1     identity                                     

 cryst.   s( 1) = (     1          0          0      )
                  (     0          1          0      )
                  (     0          0          1      )

 cart.    s( 1) = (  1.0000000  0.0000000  0.0000000 )
                  (  0.0000000  1.0000000  0.0000000 )
                  (  0.0000000  0.0000000  1.0000000 )


      isym =  2     inversion                                    

 cryst.   s( 2) = (    -1          0          0      )
                  (     0         -1          0      )
                  (     0          0         -1      )

 cart.    s( 2) = ( -1.0000000  0.0000000  0.0000000 )
                  (  0.0000000 -1.0000000  0.0000000 )
                  (  0.0000000  0.0000000 -1.0000000 )


   Cartesian axes

     site n.     atom                  positions (alat units)
         1           N   tau(   1) = (   5.6886823   6.7601492   3.2843616  )
         2           O   tau(   2) = (   7.6345424   7.8128216   3.1053824  )
         3           N   tau(   3) = (   6.6234393   7.6327692   3.7848167  )
         4           N   tau(   4) = (   4.4891047   5.7135472   5.0604192  )
         5           O   tau(   5) = (   3.2863227   4.6538288   6.6112148  )
         6           N   tau(   6) = (   3.3004890   5.4507856   5.6779047  )
         7           O   tau(   7) = (   6.3913497   8.1227372   4.8818692  )
         8           C   tau(   8) = (   4.4127564   6.6880632   3.9477722  )
         9           H   tau(   9) = (   3.7158703   6.4064400   3.3034613  )
        10           H   tau(  10) = (   4.1672919   7.5804120   4.2999364  )
        11           O   tau(  11) = (   2.3241568   6.0900204   5.2677976  )
        12           C   tau(  12) = (   5.9475335   6.1238412   1.9976713  )
        13           H   tau(  13) = (   5.1187040   5.7029240   1.7196884  )
        14           H   tau(  14) = (   6.2049380   6.7630760   1.3155187  )
        15           H   tau(  15) = (   3.7203935  -1.3430760  -2.2612043  )
        16           H   tau(  16) = (   2.6341595  -0.2829240  -1.8570346  )
        17           C   tau(  17) = (   3.4629891  -0.7038412  -1.5790517  )
        18           O   tau(  18) = (  -0.1603876  -0.6700204   1.6910746  )
        19           H   tau(  19) = (   1.6827474  -2.1604120   0.7232134  )
        20           H   tau(  20) = (   1.2313258  -0.9864400  -0.2732616  )
        21           C   tau(  21) = (   1.9282119  -1.2680632   0.3710492  )
        22           O   tau(  22) = (   3.9068053  -2.7027372   1.3051462  )
        23           N   tau(  23) = (   0.8159445  -0.0307856   2.1011817  )
        24           O   tau(  24) = (   0.8017783   0.7661712   3.0344918  )
        25           N   tau(  25) = (   2.0045602  -0.2935472   1.4836962  )
        26           N   tau(  26) = (   4.1388948  -2.2127692   0.2080937  )
        27           O   tau(  27) = (   5.1499980  -2.3928216  -0.4713406  )
        28           N   tau(  28) = (   3.2041378  -1.3401492  -0.2923613  )
        29           H   tau(  29) = (   5.2891510   4.0769240   5.8379273  )
        30           H   tau(  30) = (   6.3753850   5.1370760   5.4337576  )
        31           C   tau(  31) = (   5.5465554   4.7161588   5.1557746  )
        32           O   tau(  32) = (   9.1699321   4.7499796   1.8856484  )
        33           H   tau(  33) = (   7.3267971   3.2595880   2.8535096  )
        34           H   tau(  34) = (   7.7782187   4.4335600   3.8499846  )
        35           C   tau(  35) = (   7.0813326   4.1519368   3.2056737  )
        36           O   tau(  36) = (   5.1027392   2.7172628   2.2715768  )
        37           N   tau(  37) = (   8.1936000   5.3892144   1.4755413  )
        38           O   tau(  38) = (   8.2077662   6.1861712   0.5422312  )
        39           N   tau(  39) = (   7.0049842   5.1264528   2.0930268  )
        40           N   tau(  40) = (   4.8706497   3.2072308   3.3686292  )
        41           O   tau(  41) = (   3.8595465   3.0271784   4.0480635  )
        42           N   tau(  42) = (   5.8054066   4.0798508   3.8690843  )
        43           H   tau(  43) = (   2.8046065   1.3430760   2.2612043  )
        44           H   tau(  44) = (   3.8908405   0.2829240   1.8570346  )
        45           C   tau(  45) = (   3.0620109   0.7038412   1.5790517  )
        46           O   tau(  46) = (   6.6853876   0.6700204  -1.6910746  )
        47           H   tau(  47) = (   4.8422526   2.1604120  -0.7232134  )
        48           H   tau(  48) = (   5.2936742   0.9864400   0.2732616  )
        49           C   tau(  49) = (   4.5967881   1.2680632  -0.3710492  )
        50           O   tau(  50) = (   2.6181947   2.7027372  -1.3051462  )
        51           N   tau(  51) = (   5.7090555   0.0307856  -2.1011817  )
        52           O   tau(  52) = (   5.7232217  -0.7661712  -3.0344918  )
        53           N   tau(  53) = (   4.5204398   0.2935472  -1.4836962  )
        54           N   tau(  54) = (   2.3861052   2.2127692  -0.2080937  )
        55           O   tau(  55) = (   1.3750020   2.3928216   0.4713406  )
        56           N   tau(  56) = (   3.3208622   1.3401492   0.2923613  )

   Crystallographic axes

     site n.     atom                  positions (cryst. coord.)
         1           N   tau(   1) = (  0.9813100  0.6236300  0.4591300  )
         2           O   tau(   2) = (  1.2735600  0.7207400  0.4341100  )
         3           N   tau(   3) = (  1.1412500  0.7041300  0.5290900  )
         4           N   tau(   4) = (  0.8566700  0.5270800  0.7074100  )
         5           O   tau(   5) = (  0.7240300  0.4293200  0.9242000  )
         6           N   tau(   6) = (  0.6950900  0.5028400  0.7937300  )
         7           O   tau(   7) = (  1.1422500  0.7493300  0.6824500  )
         8           C   tau(   8) = (  0.8078800  0.6169800  0.5518700  )
         9           H   tau(   9) = (  0.6796000  0.5910000  0.4618000  )
        10           H   tau(  10) = (  0.7820000  0.6993000  0.6011000  )
        11           O   tau(  11) = (  0.5317900  0.5618100  0.7364000  )
        12           C   tau(  12) = (  0.9780900  0.5649300  0.2792600  )
        13           H   tau(  13) = (  0.8418000  0.5261000  0.2404000  )
        14           H   tau(  14) = (  0.9948000  0.6239000  0.1839000  )
        15           H   tau(  15) = (  0.4948000 -0.1239000 -0.3161000  )
        16           H   tau(  16) = (  0.3418000 -0.0261000 -0.2596000  )
        17           C   tau(  17) = (  0.4780900 -0.0649300 -0.2207400  )
        18           O   tau(  18) = (  0.0317900 -0.0618100  0.2364000  )
        19           H   tau(  19) = (  0.2820000 -0.1993000  0.1011000  )
        20           H   tau(  20) = (  0.1796000 -0.0910000 -0.0382000  )
        21           C   tau(  21) = (  0.3078800 -0.1169800  0.0518700  )
        22           O   tau(  22) = (  0.6422500 -0.2493300  0.1824500  )
        23           N   tau(  23) = (  0.1950900 -0.0028400  0.2937300  )
        24           O   tau(  24) = (  0.2240300  0.0706800  0.4242000  )
        25           N   tau(  25) = (  0.3566700 -0.0270800  0.2074100  )
        26           N   tau(  26) = (  0.6412500 -0.2041300  0.0290900  )
        27           O   tau(  27) = (  0.7735600 -0.2207400 -0.0658900  )
        28           N   tau(  28) = (  0.4813100 -0.1236300 -0.0408700  )
        29           H   tau(  29) = (  1.0052000  0.3761000  0.8161000  )
        30           H   tau(  30) = (  1.1582000  0.4739000  0.7596000  )
        31           C   tau(  31) = (  1.0219100  0.4350700  0.7207400  )
        32           O   tau(  32) = (  1.4682100  0.4381900  0.2636000  )
        33           H   tau(  33) = (  1.2180000  0.3007000  0.3989000  )
        34           H   tau(  34) = (  1.3204000  0.4090000  0.5382000  )
        35           C   tau(  35) = (  1.1921200  0.3830200  0.4481300  )
        36           O   tau(  36) = (  0.8577500  0.2506700  0.3175500  )
        37           N   tau(  37) = (  1.3049100  0.4971600  0.2062700  )
        38           O   tau(  38) = (  1.2759700  0.5706800  0.0758000  )
        39           N   tau(  39) = (  1.1433300  0.4729200  0.2925900  )
        40           N   tau(  40) = (  0.8587500  0.2958700  0.4709100  )
        41           O   tau(  41) = (  0.7264400  0.2792600  0.5658900  )
        42           N   tau(  42) = (  1.0186900  0.3763700  0.5408700  )
        43           H   tau(  43) = (  0.5052000  0.1239000  0.3161000  )
        44           H   tau(  44) = (  0.6582000  0.0261000  0.2596000  )
        45           C   tau(  45) = (  0.5219100  0.0649300  0.2207400  )
        46           O   tau(  46) = (  0.9682100  0.0618100 -0.2364000  )
        47           H   tau(  47) = (  0.7180000  0.1993000 -0.1011000  )
        48           H   tau(  48) = (  0.8204000  0.0910000  0.0382000  )
        49           C   tau(  49) = (  0.6921200  0.1169800 -0.0518700  )
        50           O   tau(  50) = (  0.3577500  0.2493300 -0.1824500  )
        51           N   tau(  51) = (  0.8049100  0.0028400 -0.2937300  )
        52           O   tau(  52) = (  0.7759700 -0.0706800 -0.4242000  )
        53           N   tau(  53) = (  0.6433300  0.0270800 -0.2074100  )
        54           N   tau(  54) = (  0.3587500  0.2041300 -0.0290900  )
        55           O   tau(  55) = (  0.2264400  0.2207400  0.0658900  )
        56           N   tau(  56) = (  0.5186900  0.1236300  0.0408700  )

     number of k points=    32
                       cart. coord. in units 2pi/alat
        k(    1) = (   0.0191571   0.0115314   0.0216409), wk =   0.0625000
        k(    2) = (   0.0191571   0.0115314   0.0565891), wk =   0.0625000
        k(    3) = (   0.0191571   0.0115314  -0.0482555), wk =   0.0625000
        k(    4) = (   0.0191571   0.0115314  -0.0133073), wk =   0.0625000
        k(    5) = (   0.0191571   0.0345941   0.0216409), wk =   0.0625000
        k(    6) = (   0.0191571   0.0345941   0.0565891), wk =   0.0625000
        k(    7) = (   0.0191571   0.0345941  -0.0482555), wk =   0.0625000
        k(    8) = (   0.0191571   0.0345941  -0.0133073), wk =   0.0625000
        k(    9) = (   0.0574713   0.0115314   0.0299744), wk =   0.0625000
        k(   10) = (   0.0574713   0.0115314   0.0649226), wk =   0.0625000
        k(   11) = (   0.0574713   0.0115314  -0.0399220), wk =   0.0625000
        k(   12) = (   0.0574713   0.0115314  -0.0049738), wk =   0.0625000
        k(   13) = (   0.0574713   0.0345941   0.0299744), wk =   0.0625000
        k(   14) = (   0.0574713   0.0345941   0.0649226), wk =   0.0625000
        k(   15) = (   0.0574713   0.0345941  -0.0399220), wk =   0.0625000
        k(   16) = (   0.0574713   0.0345941  -0.0049738), wk =   0.0625000
        k(   17) = (  -0.0191571   0.0115314  -0.0216409), wk =   0.0625000
        k(   18) = (  -0.0191571   0.0115314  -0.0565891), wk =   0.0625000
        k(   19) = (  -0.0191571   0.0115314   0.0482555), wk =   0.0625000
        k(   20) = (  -0.0191571   0.0115314   0.0133073), wk =   0.0625000
        k(   21) = (  -0.0191571   0.0345941  -0.0216409), wk =   0.0625000
        k(   22) = (  -0.0191571   0.0345941  -0.0565891), wk =   0.0625000
        k(   23) = (  -0.0191571   0.0345941   0.0482555), wk =   0.0625000
        k(   24) = (  -0.0191571   0.0345941   0.0133073), wk =   0.0625000
        k(   25) = (  -0.0574713   0.0115314  -0.0299744), wk =   0.0625000
        k(   26) = (  -0.0574713   0.0115314  -0.0649226), wk =   0.0625000
        k(   27) = (  -0.0574713   0.0115314   0.0399220), wk =   0.0625000
        k(   28) = (  -0.0574713   0.0115314   0.0049738), wk =   0.0625000
        k(   29) = (  -0.0574713   0.0345941  -0.0299744), wk =   0.0625000
        k(   30) = (  -0.0574713   0.0345941  -0.0649226), wk =   0.0625000
        k(   31) = (  -0.0574713   0.0345941   0.0399220), wk =   0.0625000
        k(   32) = (  -0.0574713   0.0345941   0.0049738), wk =   0.0625000

                       cryst. coord.
        k(    1) = (   0.1250000   0.1250000   0.1250000), wk =   0.0625000
        k(    2) = (   0.1250000   0.1250000   0.3750000), wk =   0.0625000
        k(    3) = (   0.1250000   0.1250000  -0.3750000), wk =   0.0625000
        k(    4) = (   0.1250000   0.1250000  -0.1250000), wk =   0.0625000
        k(    5) = (   0.1250000   0.3750000   0.1250000), wk =   0.0625000
        k(    6) = (   0.1250000   0.3750000   0.3750000), wk =   0.0625000
        k(    7) = (   0.1250000   0.3750000  -0.3750000), wk =   0.0625000
        k(    8) = (   0.1250000   0.3750000  -0.1250000), wk =   0.0625000
        k(    9) = (   0.3750000   0.1250000   0.1250000), wk =   0.0625000
        k(   10) = (   0.3750000   0.1250000   0.3750000), wk =   0.0625000
        k(   11) = (   0.3750000   0.1250000  -0.3750000), wk =   0.0625000
        k(   12) = (   0.3750000   0.1250000  -0.1250000), wk =   0.0625000
        k(   13) = (   0.3750000   0.3750000   0.1250000), wk =   0.0625000
        k(   14) = (   0.3750000   0.3750000   0.3750000), wk =   0.0625000
        k(   15) = (   0.3750000   0.3750000  -0.3750000), wk =   0.0625000
        k(   16) = (   0.3750000   0.3750000  -0.1250000), wk =   0.0625000
        k(   17) = (  -0.1250000   0.1250000  -0.1250000), wk =   0.0625000
        k(   18) = (  -0.1250000   0.1250000  -0.3750000), wk =   0.0625000
        k(   19) = (  -0.1250000   0.1250000   0.3750000), wk =   0.0625000
        k(   20) = (  -0.1250000   0.1250000   0.1250000), wk =   0.0625000
        k(   21) = (  -0.1250000   0.3750000  -0.1250000), wk =   0.0625000
        k(   22) = (  -0.1250000   0.3750000  -0.3750000), wk =   0.0625000
        k(   23) = (  -0.1250000   0.3750000   0.3750000), wk =   0.0625000
        k(   24) = (  -0.1250000   0.3750000   0.1250000), wk =   0.0625000
        k(   25) = (  -0.3750000   0.1250000  -0.1250000), wk =   0.0625000
        k(   26) = (  -0.3750000   0.1250000  -0.3750000), wk =   0.0625000
        k(   27) = (  -0.3750000   0.1250000   0.3750000), wk =   0.0625000
        k(   28) = (  -0.3750000   0.1250000   0.1250000), wk =   0.0625000
        k(   29) = (  -0.3750000   0.3750000  -0.1250000), wk =   0.0625000
        k(   30) = (  -0.3750000   0.3750000  -0.3750000), wk =   0.0625000
        k(   31) = (  -0.3750000   0.3750000   0.3750000), wk =   0.0625000
        k(   32) = (  -0.3750000   0.3750000   0.1250000), wk =   0.0625000

     Dense  grid:  7644485 G-vectors     FFT dimensions: ( 216, 360, 225)

     Smooth grid:  1933815 G-vectors     FFT dimensions: ( 128, 216, 144)

     Largest allocated arrays     est. size (Mb)     dimensions
        Kohn-Sham Wavefunctions        51.68 Mb     (   30238,  112)
        NL pseudopotentials           162.41 Mb     (   30238,  352)
        Each V/rho on FFT grid         34.41 Mb     ( 2255040)
        Each G-vector array             7.29 Mb     (  955561)
        G-vector shells                 6.71 Mb     (  879904)
     Largest temporary arrays     est. size (Mb)     dimensions
        Auxiliary wavefunctions       206.71 Mb     (   30238,  448)
        Each subspace H/S matrix        3.06 Mb     (     448,  448)
        Each <psi_i|beta_j> matrix      0.60 Mb     (     352,  112)
        Arrays for rho mixing         275.27 Mb     ( 2255040,    8)

     Initial potential from superposition of free atoms

     starting charge  223.99937, renormalised to  224.00000
     Starting wfc are  176 randomized atomic wfcs
     Checking if some PAW data can be deallocated... 
       node    0, deallocated PAW data for type:  2
       node    0, deallocated PAW data for type:  3
       node    1, deallocated PAW data for type:  1
       node    2, deallocated PAW data for type:  1
       node    3, deallocated PAW data for type:  2
       node    3, deallocated PAW data for type:  3
       node    4, deallocated PAW data for type:  1
       node    5, deallocated PAW data for type:  2
       node    5, deallocated PAW data for type:  3
       node    6, deallocated PAW data for type:  1
       node    7, deallocated PAW data for type:  2
       node    7, deallocated PAW data for type:  3

     total cpu time spent up to now is     4958.7 secs

     Self-consistent Calculation

     iteration #  1     ecut=   260.00 Ry     beta=0.70
     Davidson diagonalization with overlap
