
     Program PWSCF v.5.3.0 (svn rev. 11974) starts on 31May2016 at 23:19:34 

     This program is part of the open-source Quantum ESPRESSO suite
     for quantum simulation of materials; please cite
         "P. Giannozzi et al., J. Phys.:Condens. Matter 21 395502 (2009);
          URL http://www.quantum-espresso.org", 
     in publications or presentations arising from this work. More details at
     http://www.quantum-espresso.org/quote

     Parallel version (MPI), running on     8 processors
     R & G space division:  proc/nbgrp/npool/nimage =       8
     Waiting for input...
     Reading input from standard input
Warning: card    &IONS ignored
Warning: card TRUST_RADIUS_MAX=0.2 ignored
Warning: card / ignored
Warning: card     &CELL ignored
Warning: card CELL_DYNAMICS='BFGS' ignored
Warning: card / ignored

     Current dimensions of program PWSCF are:
     Max number of different atomic species (ntypx) = 10
     Max number of k-points (npk) =  40000
     Max angular momentum in pseudopotentials (lmaxx) =  3
               file N.pbe-n-kjpaw_psl.1.0.0.UPF: wavefunction(s)  2S renormalized
               file C.pbe-n-kjpaw_psl.1.0.0.UPF: wavefunction(s)  2S 2P renormalized
               file H.pbe-kjpaw_psl.1.0.0.UPF: wavefunction(s)  1S renormalized
               file O.pbe-n-kjpaw_psl.1.0.0.UPF: wavefunction(s)  2S 2P renormalized

     Subspace diagonalization in iterative solution of the eigenvalue problem:
     a serial algorithm will be used


     Parallelization info
     --------------------
     sticks:   dense  smooth     PW     G-vecs:    dense   smooth      PW
     Min        5527    2211    575               743718   188139   25031
     Max        5528    2212    576               743719   188199   25034
     Sum       44221   17689   4605              5949749  1505245  200259


     Title: 
     HMX-scf--kp-444-ec-220-default-conv-thr                                    


     bravais-lattice index     =            0
     lattice parameter (alat)  =       1.8897  a.u.
     unit-cell volume          =    3414.4567 (a.u.)^3
     number of atoms/cell      =           56
     number of atomic types    =            4
     number of electrons       =       224.00
     number of Kohn-Sham states=          112
     kinetic-energy cutoff     =     220.0000  Ry
     charge density cutoff     =    2200.0000  Ry
     convergence threshold     =      1.0E-06
     mixing beta               =       0.7000
     number of iterations used =            8  plain     mixing
     Exchange-correlation      =  SLA  PW   PBX  PBC ( 1  4  3  4 0 0)

     celldm(1)=   1.889726  celldm(2)=   0.000000  celldm(3)=   0.000000
     celldm(4)=   0.000000  celldm(5)=   0.000000  celldm(6)=   0.000000

     crystal axes: (cart. coord. in units of alat)
               a(1) = (   6.525000   0.000000   0.000000 )  
               a(2) = (   0.000000  10.840000   0.000000 )  
               a(3) = (  -1.555911   0.000000   7.153446 )  

     reciprocal axes: (cart. coord. in units 2 pi/alat)
               b(1) = (  0.153257 -0.000000  0.033334 )  
               b(2) = (  0.000000  0.092251 -0.000000 )  
               b(3) = (  0.000000  0.000000  0.139793 )  


     PseudoPot. # 1 for  N read from file:
     /users/majewski/.data/PSEUDOPOTENTIALS/N.pbe-n-kjpaw_psl.1.0.0.UPF
     MD5 check sum: c21df8f53e59d08c3548513d559cdda6
     Pseudo is Projector augmented-wave + core cor, Zval =  5.0
     Generated using "atomic" code by A. Dal Corso  v.5.3.0 svn rev. 11974
     Shape of augmentation charge: PSQ
     Using radial grid of 1085 points,  4 beta functions with: 
                l(1) =   0
                l(2) =   0
                l(3) =   1
                l(4) =   1
     Q(r) pseudized with 0 coefficients 


     PseudoPot. # 2 for  C read from file:
     /users/majewski/.data/PSEUDOPOTENTIALS/C.pbe-n-kjpaw_psl.1.0.0.UPF
     MD5 check sum: 2ba8448e293caca687844dde9a1b88a8
     Pseudo is Projector augmented-wave + core cor, Zval =  4.0
     Generated using "atomic" code by A. Dal Corso  v.5.3.0 svn rev. 11974
     Shape of augmentation charge: PSQ
     Using radial grid of 1073 points,  4 beta functions with: 
                l(1) =   0
                l(2) =   0
                l(3) =   1
                l(4) =   1
     Q(r) pseudized with 0 coefficients 


     PseudoPot. # 3 for  H read from file:
     /users/majewski/.data/PSEUDOPOTENTIALS/H.pbe-kjpaw_psl.1.0.0.UPF
     MD5 check sum: bc0feb48a24907a0b97fa6ee2d589a29
     Pseudo is Projector augmented-wave, Zval =  1.0
     Generated using "atomic" code by A. Dal Corso  v.5.3.0 svn rev. 11974
     Shape of augmentation charge: PSQ
     Using radial grid of  929 points,  2 beta functions with: 
                l(1) =   0
                l(2) =   0
     Q(r) pseudized with 0 coefficients 


     PseudoPot. # 4 for  O read from file:
     /users/majewski/.data/PSEUDOPOTENTIALS/O.pbe-n-kjpaw_psl.1.0.0.UPF
     MD5 check sum: 9c0ade6c043cf4a781bde3908a3a8206
     Pseudo is Projector augmented-wave + core cor, Zval =  6.0
     Generated using "atomic" code by A. Dal Corso  v.5.3.0 svn rev. 11974
     Shape of augmentation charge: PSQ
     Using radial grid of 1095 points,  4 beta functions with: 
                l(1) =   0
                l(2) =   0
                l(3) =   1
                l(4) =   1
     Q(r) pseudized with 0 coefficients 


     atomic species   valence    mass     pseudopotential
        N              5.00    14.00670      N( 1.00)
        C              4.00    12.01100      C( 1.00)
        H              1.00     1.00790      H( 1.00)
        O              6.00    15.99940      O( 1.00)

      4 Sym. Ops., with inversion, found ( 2 have fractional translation)


                                    s                        frac. trans.

      isym =  1     identity                                     

 cryst.   s( 1) = (     1          0          0      )
                  (     0          1          0      )
                  (     0          0          1      )

 cart.    s( 1) = (  1.0000000  0.0000000  0.0000000 )
                  (  0.0000000  1.0000000  0.0000000 )
                  (  0.0000000  0.0000000  1.0000000 )


      isym =  2     180 deg rotation - cart. axis [0,1,0]        

 cryst.   s( 2) = (    -1          0          0      )    f =(  0.5000000 )
                  (     0          1          0      )       ( -0.5000000 )
                  (     0          0         -1      )       ( -0.5000000 )

 cart.    s( 2) = ( -1.0000000  0.0000000  0.0000000 )    f =(  4.0404555 )
                  (  0.0000000  1.0000000  0.0000000 )       ( -5.4200000 )
                  (  0.0000000  0.0000000 -1.0000000 )       ( -3.5767230 )


      isym =  3     inversion                                    

 cryst.   s( 3) = (    -1          0          0      )
                  (     0         -1          0      )
                  (     0          0         -1      )

 cart.    s( 3) = ( -1.0000000  0.0000000  0.0000000 )
                  (  0.0000000 -1.0000000  0.0000000 )
                  (  0.0000000  0.0000000 -1.0000000 )


      isym =  4     inv. 180 deg rotation - cart. axis [0,1,0]   

 cryst.   s( 4) = (     1          0          0      )    f =(  0.5000000 )
                  (     0         -1          0      )       ( -0.5000000 )
                  (     0          0          1      )       ( -0.5000000 )

 cart.    s( 4) = (  1.0000000  0.0000000  0.0000000 )    f =(  4.0404555 )
                  (  0.0000000 -1.0000000  0.0000000 )       ( -5.4200000 )
                  (  0.0000000  0.0000000  1.0000000 )       ( -3.5767230 )


   Cartesian axes

     site n.     atom                  positions (alat units)
         1           N   tau(   1) = (   5.6886823   6.7601492   3.2843616  )
         2           O   tau(   2) = (   7.6345424   7.8128216   3.1053824  )
         3           N   tau(   3) = (   6.6234393   7.6327692   3.7848167  )
         4           N   tau(   4) = (   4.4891047   5.7135472   5.0604192  )
         5           O   tau(   5) = (   3.2863227   4.6538288   6.6112148  )
         6           N   tau(   6) = (   3.3004890   5.4507856   5.6779047  )
         7           O   tau(   7) = (   6.3913497   8.1227372   4.8818692  )
         8           C   tau(   8) = (   4.4127564   6.6880632   3.9477722  )
         9           H   tau(   9) = (   3.7158703   6.4064400   3.3034613  )
        10           H   tau(  10) = (   4.1672919   7.5804120   4.2999364  )
        11           O   tau(  11) = (   2.3241568   6.0900204   5.2677976  )
        12           C   tau(  12) = (   5.9475335   6.1238412   1.9976713  )
        13           H   tau(  13) = (   5.1187040   5.7029240   1.7196884  )
        14           H   tau(  14) = (   6.2049380   6.7630760   1.3155187  )
        15           H   tau(  15) = (   3.7203935  -1.3430760  -2.2612043  )
        16           H   tau(  16) = (   2.6341595  -0.2829240  -1.8570346  )
        17           C   tau(  17) = (   3.4629891  -0.7038412  -1.5790517  )
        18           O   tau(  18) = (  -0.1603876  -0.6700204   1.6910746  )
        19           H   tau(  19) = (   1.6827474  -2.1604120   0.7232134  )
        20           H   tau(  20) = (   1.2313258  -0.9864400  -0.2732616  )
        21           C   tau(  21) = (   1.9282119  -1.2680632   0.3710492  )
        22           O   tau(  22) = (   3.9068053  -2.7027372   1.3051462  )
        23           N   tau(  23) = (   0.8159445  -0.0307856   2.1011817  )
        24           O   tau(  24) = (   0.8017783   0.7661712   3.0344918  )
        25           N   tau(  25) = (   2.0045602  -0.2935472   1.4836962  )
        26           N   tau(  26) = (   4.1388948  -2.2127692   0.2080937  )
        27           O   tau(  27) = (   5.1499980  -2.3928216  -0.4713406  )
        28           N   tau(  28) = (   3.2041378  -1.3401492  -0.2923613  )
        29           H   tau(  29) = (   5.2891510   4.0769240   5.8379273  )
        30           H   tau(  30) = (   6.3753850   5.1370760   5.4337576  )
        31           C   tau(  31) = (   5.5465554   4.7161588   5.1557746  )
        32           O   tau(  32) = (   9.1699321   4.7499796   1.8856484  )
        33           H   tau(  33) = (   7.3267971   3.2595880   2.8535096  )
        34           H   tau(  34) = (   7.7782187   4.4335600   3.8499846  )
        35           C   tau(  35) = (   7.0813326   4.1519368   3.2056737  )
        36           O   tau(  36) = (   5.1027392   2.7172628   2.2715768  )
        37           N   tau(  37) = (   8.1936000   5.3892144   1.4755413  )
        38           O   tau(  38) = (   8.2077662   6.1861712   0.5422312  )
        39           N   tau(  39) = (   7.0049842   5.1264528   2.0930268  )
        40           N   tau(  40) = (   4.8706497   3.2072308   3.3686292  )
        41           O   tau(  41) = (   3.8595465   3.0271784   4.0480635  )
        42           N   tau(  42) = (   5.8054066   4.0798508   3.8690843  )
        43           H   tau(  43) = (   2.8046065   1.3430760   2.2612043  )
        44           H   tau(  44) = (   3.8908405   0.2829240   1.8570346  )
        45           C   tau(  45) = (   3.0620109   0.7038412   1.5790517  )
        46           O   tau(  46) = (   6.6853876   0.6700204  -1.6910746  )
        47           H   tau(  47) = (   4.8422526   2.1604120  -0.7232134  )
        48           H   tau(  48) = (   5.2936742   0.9864400   0.2732616  )
        49           C   tau(  49) = (   4.5967881   1.2680632  -0.3710492  )
        50           O   tau(  50) = (   2.6181947   2.7027372  -1.3051462  )
        51           N   tau(  51) = (   5.7090555   0.0307856  -2.1011817  )
        52           O   tau(  52) = (   5.7232217  -0.7661712  -3.0344918  )
        53           N   tau(  53) = (   4.5204398   0.2935472  -1.4836962  )
        54           N   tau(  54) = (   2.3861052   2.2127692  -0.2080937  )
        55           O   tau(  55) = (   1.3750020   2.3928216   0.4713406  )
        56           N   tau(  56) = (   3.3208622   1.3401492   0.2923613  )

   Crystallographic axes

     site n.     atom                  positions (cryst. coord.)
         1           N   tau(   1) = (  0.9813100  0.6236300  0.4591300  )
         2           O   tau(   2) = (  1.2735600  0.7207400  0.4341100  )
         3           N   tau(   3) = (  1.1412500  0.7041300  0.5290900  )
         4           N   tau(   4) = (  0.8566700  0.5270800  0.7074100  )
         5           O   tau(   5) = (  0.7240300  0.4293200  0.9242000  )
         6           N   tau(   6) = (  0.6950900  0.5028400  0.7937300  )
         7           O   tau(   7) = (  1.1422500  0.7493300  0.6824500  )
         8           C   tau(   8) = (  0.8078800  0.6169800  0.5518700  )
         9           H   tau(   9) = (  0.6796000  0.5910000  0.4618000  )
        10           H   tau(  10) = (  0.7820000  0.6993000  0.6011000  )
        11           O   tau(  11) = (  0.5317900  0.5618100  0.7364000  )
        12           C   tau(  12) = (  0.9780900  0.5649300  0.2792600  )
        13           H   tau(  13) = (  0.8418000  0.5261000  0.2404000  )
        14           H   tau(  14) = (  0.9948000  0.6239000  0.1839000  )
        15           H   tau(  15) = (  0.4948000 -0.1239000 -0.3161000  )
        16           H   tau(  16) = (  0.3418000 -0.0261000 -0.2596000  )
        17           C   tau(  17) = (  0.4780900 -0.0649300 -0.2207400  )
        18           O   tau(  18) = (  0.0317900 -0.0618100  0.2364000  )
        19           H   tau(  19) = (  0.2820000 -0.1993000  0.1011000  )
        20           H   tau(  20) = (  0.1796000 -0.0910000 -0.0382000  )
        21           C   tau(  21) = (  0.3078800 -0.1169800  0.0518700  )
        22           O   tau(  22) = (  0.6422500 -0.2493300  0.1824500  )
        23           N   tau(  23) = (  0.1950900 -0.0028400  0.2937300  )
        24           O   tau(  24) = (  0.2240300  0.0706800  0.4242000  )
        25           N   tau(  25) = (  0.3566700 -0.0270800  0.2074100  )
        26           N   tau(  26) = (  0.6412500 -0.2041300  0.0290900  )
        27           O   tau(  27) = (  0.7735600 -0.2207400 -0.0658900  )
        28           N   tau(  28) = (  0.4813100 -0.1236300 -0.0408700  )
        29           H   tau(  29) = (  1.0052000  0.3761000  0.8161000  )
        30           H   tau(  30) = (  1.1582000  0.4739000  0.7596000  )
        31           C   tau(  31) = (  1.0219100  0.4350700  0.7207400  )
        32           O   tau(  32) = (  1.4682100  0.4381900  0.2636000  )
        33           H   tau(  33) = (  1.2180000  0.3007000  0.3989000  )
        34           H   tau(  34) = (  1.3204000  0.4090000  0.5382000  )
        35           C   tau(  35) = (  1.1921200  0.3830200  0.4481300  )
        36           O   tau(  36) = (  0.8577500  0.2506700  0.3175500  )
        37           N   tau(  37) = (  1.3049100  0.4971600  0.2062700  )
        38           O   tau(  38) = (  1.2759700  0.5706800  0.0758000  )
        39           N   tau(  39) = (  1.1433300  0.4729200  0.2925900  )
        40           N   tau(  40) = (  0.8587500  0.2958700  0.4709100  )
        41           O   tau(  41) = (  0.7264400  0.2792600  0.5658900  )
        42           N   tau(  42) = (  1.0186900  0.3763700  0.5408700  )
        43           H   tau(  43) = (  0.5052000  0.1239000  0.3161000  )
        44           H   tau(  44) = (  0.6582000  0.0261000  0.2596000  )
        45           C   tau(  45) = (  0.5219100  0.0649300  0.2207400  )
        46           O   tau(  46) = (  0.9682100  0.0618100 -0.2364000  )
        47           H   tau(  47) = (  0.7180000  0.1993000 -0.1011000  )
        48           H   tau(  48) = (  0.8204000  0.0910000  0.0382000  )
        49           C   tau(  49) = (  0.6921200  0.1169800 -0.0518700  )
        50           O   tau(  50) = (  0.3577500  0.2493300 -0.1824500  )
        51           N   tau(  51) = (  0.8049100  0.0028400 -0.2937300  )
        52           O   tau(  52) = (  0.7759700 -0.0706800 -0.4242000  )
        53           N   tau(  53) = (  0.6433300  0.0270800 -0.2074100  )
        54           N   tau(  54) = (  0.3587500  0.2041300 -0.0290900  )
        55           O   tau(  55) = (  0.2264400  0.2207400  0.0658900  )
        56           N   tau(  56) = (  0.5186900  0.1236300  0.0408700  )

     number of k points=    16
                       cart. coord. in units 2pi/alat
        k(    1) = (   0.0191571   0.0115314   0.0216409), wk =   0.1250000
        k(    2) = (   0.0191571   0.0115314   0.0565891), wk =   0.1250000
        k(    3) = (   0.0191571   0.0115314  -0.0482555), wk =   0.1250000
        k(    4) = (   0.0191571   0.0115314  -0.0133073), wk =   0.1250000
        k(    5) = (   0.0191571   0.0345941   0.0216409), wk =   0.1250000
        k(    6) = (   0.0191571   0.0345941   0.0565891), wk =   0.1250000
        k(    7) = (   0.0191571   0.0345941  -0.0482555), wk =   0.1250000
        k(    8) = (   0.0191571   0.0345941  -0.0133073), wk =   0.1250000
        k(    9) = (   0.0574713   0.0115314   0.0299744), wk =   0.1250000
        k(   10) = (   0.0574713   0.0115314   0.0649226), wk =   0.1250000
        k(   11) = (   0.0574713   0.0115314  -0.0399220), wk =   0.1250000
        k(   12) = (   0.0574713   0.0115314  -0.0049738), wk =   0.1250000
        k(   13) = (   0.0574713   0.0345941   0.0299744), wk =   0.1250000
        k(   14) = (   0.0574713   0.0345941   0.0649226), wk =   0.1250000
        k(   15) = (   0.0574713   0.0345941  -0.0399220), wk =   0.1250000
        k(   16) = (   0.0574713   0.0345941  -0.0049738), wk =   0.1250000

                       cryst. coord.
        k(    1) = (   0.1250000   0.1250000   0.1250000), wk =   0.1250000
        k(    2) = (   0.1250000   0.1250000   0.3750000), wk =   0.1250000
        k(    3) = (   0.1250000   0.1250000  -0.3750000), wk =   0.1250000
        k(    4) = (   0.1250000   0.1250000  -0.1250000), wk =   0.1250000
        k(    5) = (   0.1250000   0.3750000   0.1250000), wk =   0.1250000
        k(    6) = (   0.1250000   0.3750000   0.3750000), wk =   0.1250000
        k(    7) = (   0.1250000   0.3750000  -0.3750000), wk =   0.1250000
        k(    8) = (   0.1250000   0.3750000  -0.1250000), wk =   0.1250000
        k(    9) = (   0.3750000   0.1250000   0.1250000), wk =   0.1250000
        k(   10) = (   0.3750000   0.1250000   0.3750000), wk =   0.1250000
        k(   11) = (   0.3750000   0.1250000  -0.3750000), wk =   0.1250000
        k(   12) = (   0.3750000   0.1250000  -0.1250000), wk =   0.1250000
        k(   13) = (   0.3750000   0.3750000   0.1250000), wk =   0.1250000
        k(   14) = (   0.3750000   0.3750000   0.3750000), wk =   0.1250000
        k(   15) = (   0.3750000   0.3750000  -0.3750000), wk =   0.1250000
        k(   16) = (   0.3750000   0.3750000  -0.1250000), wk =   0.1250000

     Dense  grid:  5949749 G-vectors     FFT dimensions: ( 192, 320, 216)

     Smooth grid:  1505245 G-vectors     FFT dimensions: ( 120, 200, 135)

     Largest allocated arrays     est. size (Mb)     dimensions
        Kohn-Sham Wavefunctions        40.22 Mb     (   23532,  112)
        NL pseudopotentials           126.39 Mb     (   23532,  352)
        Each V/rho on FFT grid         25.31 Mb     ( 1658880)
        Each G-vector array             5.67 Mb     (  743718)
        G-vector shells                 5.23 Mb     (  686123)
     Largest temporary arrays     est. size (Mb)     dimensions
        Auxiliary wavefunctions       160.86 Mb     (   23532,  448)
        Each subspace H/S matrix        3.06 Mb     (     448,  448)
        Each <psi_i|beta_j> matrix      0.60 Mb     (     352,  112)
        Arrays for rho mixing         202.50 Mb     ( 1658880,    8)

     Initial potential from superposition of free atoms

     starting charge  223.99937, renormalised to  224.00000
     Starting wfc are  176 randomized atomic wfcs
     Checking if some PAW data can be deallocated... 
       node    0, deallocated PAW data for type:  2
       node    0, deallocated PAW data for type:  3
       node    1, deallocated PAW data for type:  1
       node    2, deallocated PAW data for type:  1
       node    3, deallocated PAW data for type:  2
       node    3, deallocated PAW data for type:  3
       node    4, deallocated PAW data for type:  1
       node    5, deallocated PAW data for type:  2
       node    5, deallocated PAW data for type:  3
       node    6, deallocated PAW data for type:  1
       node    7, deallocated PAW data for type:  2
       node    7, deallocated PAW data for type:  3

     total cpu time spent up to now is     1436.6 secs

     per-process dynamical memory:  1193.1 Mb

     Self-consistent Calculation

     iteration #  1     ecut=   220.00 Ry     beta=0.70
     Davidson diagonalization with overlap
     ethr =  1.00E-02,  avg # of iterations =  3.0

     total cpu time spent up to now is     5550.5 secs

     total energy              =   -1279.68169258 Ry
     Harris-Foulkes estimate   =   -1283.97555327 Ry
     estimated scf accuracy    <       6.61542444 Ry

     iteration #  2     ecut=   220.00 Ry     beta=0.70
     Davidson diagonalization with overlap
     ethr =  2.95E-03,  avg # of iterations =  4.0

     total cpu time spent up to now is     9627.4 secs

     total energy              =   -1280.31806300 Ry
     Harris-Foulkes estimate   =   -1283.86403474 Ry
     estimated scf accuracy    <       7.20171479 Ry

     iteration #  3     ecut=   220.00 Ry     beta=0.70
     Davidson diagonalization with overlap
     ethr =  2.95E-03,  avg # of iterations =  4.5

     total cpu time spent up to now is    12931.3 secs

     total energy              =   -1281.85236271 Ry
     Harris-Foulkes estimate   =   -1282.09465985 Ry
     estimated scf accuracy    <       0.45083312 Ry

     iteration #  4     ecut=   220.00 Ry     beta=0.70
     Davidson diagonalization with overlap
     ethr =  2.01E-04,  avg # of iterations =  5.0

     total cpu time spent up to now is    16936.7 secs

     total energy              =   -1281.99912067 Ry
     Harris-Foulkes estimate   =   -1282.09556613 Ry
     estimated scf accuracy    <       0.21729627 Ry

     iteration #  5     ecut=   220.00 Ry     beta=0.70
     Davidson diagonalization with overlap
     ethr =  9.70E-05,  avg # of iterations =  4.1

     total cpu time spent up to now is    20360.3 secs

     total energy              =   -1282.04257137 Ry
     Harris-Foulkes estimate   =   -1282.05171467 Ry
     estimated scf accuracy    <       0.02230484 Ry

     iteration #  6     ecut=   220.00 Ry     beta=0.70
     Davidson diagonalization with overlap
     ethr =  9.96E-06,  avg # of iterations =  7.0

     total cpu time spent up to now is    23653.2 secs

     total energy              =   -1282.04603379 Ry
     Harris-Foulkes estimate   =   -1282.04765644 Ry
     estimated scf accuracy    <       0.00367617 Ry

     iteration #  7     ecut=   220.00 Ry     beta=0.70
     Davidson diagonalization with overlap
     ethr =  1.64E-06,  avg # of iterations =  4.4

     total cpu time spent up to now is    28032.8 secs

     total energy              =   -1282.04777139 Ry
     Harris-Foulkes estimate   =   -1282.04815733 Ry
     estimated scf accuracy    <       0.00089200 Ry

     iteration #  8     ecut=   220.00 Ry     beta=0.70
     Davidson diagonalization with overlap
     ethr =  3.98E-07,  avg # of iterations =  8.4

     total cpu time spent up to now is    31694.2 secs

     total energy              =   -1282.04793331 Ry
     Harris-Foulkes estimate   =   -1282.04797872 Ry
     estimated scf accuracy    <       0.00010994 Ry

     iteration #  9     ecut=   220.00 Ry     beta=0.70
     Davidson diagonalization with overlap
     ethr =  4.91E-08,  avg # of iterations =  4.5

     total cpu time spent up to now is    36013.3 secs

     total energy              =   -1282.04799095 Ry
     Harris-Foulkes estimate   =   -1282.04800843 Ry
     estimated scf accuracy    <       0.00005056 Ry

     iteration # 10     ecut=   220.00 Ry     beta=0.70
     Davidson diagonalization with overlap
     ethr =  2.26E-08,  avg # of iterations =  1.2

     total cpu time spent up to now is    38630.0 secs

     total energy              =   -1282.04798383 Ry
     Harris-Foulkes estimate   =   -1282.04799303 Ry
     estimated scf accuracy    <       0.00002073 Ry

     iteration # 11     ecut=   220.00 Ry     beta=0.70
     Davidson diagonalization with overlap
     ethr =  9.25E-09,  avg # of iterations =  4.9

     total cpu time spent up to now is    42922.3 secs

     total energy              =   -1282.04799785 Ry
     Harris-Foulkes estimate   =   -1282.04800736 Ry
     estimated scf accuracy    <       0.00004552 Ry

     iteration # 12     ecut=   220.00 Ry     beta=0.70
     Davidson diagonalization with overlap
     ethr =  9.25E-09,  avg # of iterations =  1.0

     total cpu time spent up to now is    45613.9 secs

     total energy              =   -1282.04799063 Ry
     Harris-Foulkes estimate   =   -1282.04799823 Ry
     estimated scf accuracy    <       0.00003021 Ry

     iteration # 13     ecut=   220.00 Ry     beta=0.70
     Davidson diagonalization with overlap
     ethr =  9.25E-09,  avg # of iterations =  5.0

     total cpu time spent up to now is    49445.3 secs

     total energy              =   -1282.04799822 Ry
     Harris-Foulkes estimate   =   -1282.04799936 Ry
     estimated scf accuracy    <       0.00000376 Ry

     iteration # 14     ecut=   220.00 Ry     beta=0.70
     Davidson diagonalization with overlap
     ethr =  1.68E-09,  avg # of iterations =  1.0

     total cpu time spent up to now is    52518.3 secs

     total energy              =   -1282.04799798 Ry
     Harris-Foulkes estimate   =   -1282.04799832 Ry
     estimated scf accuracy    <       0.00000194 Ry

     iteration # 15     ecut=   220.00 Ry     beta=0.70
     Davidson diagonalization with overlap
     ethr =  8.66E-10,  avg # of iterations =  5.0

     total cpu time spent up to now is    56258.0 secs

     End of self-consistent calculation

          k = 0.0192 0.0115 0.0216 (188120 PWs)   bands (ev):

   -23.7604 -23.7357 -23.7248 -23.7147 -23.4327 -23.4212 -23.4203 -23.4180
   -18.9880 -18.9824 -18.9750 -18.9619 -18.6478 -18.6472 -18.6432 -18.6419
   -18.0830 -18.0537 -17.0512 -16.9950 -16.9106 -16.9067 -15.8951 -15.8820
   -11.9541 -11.9253 -11.9156 -11.8231 -11.7584 -11.6775 -11.6036 -11.5817
    -8.7483  -8.7065  -8.1151  -8.0743  -7.4134  -7.3629  -7.2823  -7.2789
    -6.7192  -6.6094  -6.4703  -6.3662  -6.3430  -6.2708  -6.2156  -6.1199
    -5.9843  -5.9484  -5.9256  -5.7883  -5.7485  -5.6654  -5.5906  -5.5545
    -5.4948  -5.4717  -5.4065  -5.3573  -5.0110  -4.8929  -4.7905  -4.7763
    -4.3046  -4.2924  -4.2625  -4.2149  -4.0655  -3.9590  -3.7293  -3.7188
    -3.5519  -3.4127  -3.3513  -3.3055  -3.0291  -2.9900  -2.8985  -2.8770
    -0.6672  -0.6624  -0.1903  -0.1795  -0.0785  -0.0329   0.0291   0.0528
     0.1132   0.1467   0.2970   0.3359   0.3542   0.3868   0.5103   0.5204
     0.5559   0.5897   0.7564   0.8186   0.9052   0.9519   1.0083   1.0200
     1.0645   1.1621   1.1966   1.2592   1.3293   1.4743   1.4913   1.5158

     occupation numbers 
     1.0000   1.0000   1.0000   1.0000   1.0000   1.0000   1.0000   1.0000
     1.0000   1.0000   1.0000   1.0000   1.0000   1.0000   1.0000   1.0000
     1.0000   1.0000   1.0000   1.0000   1.0000   1.0000   1.0000   1.0000
     1.0000   1.0000   1.0000   1.0000   1.0000   1.0000   1.0000   1.0000
     1.0000   1.0000   1.0000   1.0000   1.0000   1.0000   1.0000   1.0000
     1.0000   1.0000   1.0000   1.0000   1.0000   1.0000   1.0000   1.0000
     1.0000   1.0000   1.0000   1.0000   1.0000   1.0000   1.0000   1.0000
     1.0000   1.0000   1.0000   1.0000   1.0000   1.0000   1.0000   1.0000
     1.0000   1.0000   1.0000   1.0000   1.0000   1.0000   1.0000   1.0000
     1.0000   1.0000   1.0000   1.0000   1.0000   1.0000   1.0000   1.0000
     1.0000   1.0000   1.0000   1.0000   1.0000   1.0000   1.0000   1.0000
     1.0000   1.0000   1.0000   1.0000   1.0000   1.0000   1.0000   1.0000
     1.0000   1.0000   1.0000   1.0000   1.0000   1.0000   1.0000   1.0000
     1.0000   1.0000   1.0000   1.0000   1.0000   1.0000   1.0000   1.0000

          k = 0.0192 0.0115 0.0566 (188159 PWs)   bands (ev):

   -23.7517 -23.7418 -23.7210 -23.7198 -23.4330 -23.4290 -23.4179 -23.4136
   -18.9864 -18.9812 -18.9760 -18.9655 -18.6545 -18.6535 -18.6375 -18.6355
   -18.0698 -18.0690 -17.0241 -17.0213 -16.9062 -16.9029 -15.8908 -15.8879
   -11.9346 -11.9256 -11.8963 -11.8718 -11.7152 -11.6990 -11.6129 -11.6010
    -8.7287  -8.6895  -8.0974  -8.0693  -7.4233  -7.3662  -7.2615  -7.1730
    -6.7694  -6.6373  -6.4589  -6.4011  -6.3935  -6.2906  -6.2438  -6.2004
    -6.0385  -6.0072  -5.8042  -5.7529  -5.7239  -5.6812  -5.6507  -5.6008
    -5.5475  -5.4897  -5.3248  -5.2728  -5.0152  -4.9343  -4.7832  -4.7449
    -4.2634  -4.2553  -4.1976  -4.1256  -3.9899  -3.9553  -3.8429  -3.8415
    -3.5270  -3.4642  -3.2895  -3.2774  -3.0575  -3.0528  -2.8780  -2.8505
    -0.6294  -0.5972  -0.2025  -0.1875  -0.0910  -0.0638  -0.0022   0.0179
     0.0504   0.0922   0.2071   0.2711   0.3667   0.4273   0.4782   0.4919
     0.6712   0.7337   0.7861   0.8248   0.9110   0.9275   0.9648   1.0224
     1.1145   1.1595   1.2397   1.2609   1.3449   1.4268   1.4918   1.5181

     occupation numbers 
     1.0000   1.0000   1.0000   1.0000   1.0000   1.0000   1.0000   1.0000
     1.0000   1.0000   1.0000   1.0000   1.0000   1.0000   1.0000   1.0000
     1.0000   1.0000   1.0000   1.0000   1.0000   1.0000   1.0000   1.0000
     1.0000   1.0000   1.0000   1.0000   1.0000   1.0000   1.0000   1.0000
     1.0000   1.0000   1.0000   1.0000   1.0000   1.0000   1.0000   1.0000
     1.0000   1.0000   1.0000   1.0000   1.0000   1.0000   1.0000   1.0000
     1.0000   1.0000   1.0000   1.0000   1.0000   1.0000   1.0000   1.0000
     1.0000   1.0000   1.0000   1.0000   1.0000   1.0000   1.0000   1.0000
     1.0000   1.0000   1.0000   1.0000   1.0000   1.0000   1.0000   1.0000
     1.0000   1.0000   1.0000   1.0000   1.0000   1.0000   1.0000   1.0000
     1.0000   1.0000   1.0000   1.0000   1.0000   1.0000   1.0000   1.0000
     1.0000   1.0000   1.0000   1.0000   1.0000   1.0000   1.0000   1.0000
     1.0000   1.0000   1.0000   1.0000   1.0000   1.0000   1.0000   1.0000
     1.0000   1.0000   1.0000   1.0000   1.0000   1.0000   1.0000   1.0000

          k = 0.0192 0.0115-0.0483 (188110 PWs)   bands (ev):

   -23.7528 -23.7411 -23.7249 -23.7154 -23.4344 -23.4310 -23.4147 -23.4134
   -18.9834 -18.9822 -18.9721 -18.9716 -18.6557 -18.6550 -18.6359 -18.6342
   -18.0826 -18.0546 -17.0484 -16.9963 -16.9086 -16.9075 -15.8942 -15.8769
   -11.9626 -11.9253 -11.9140 -11.8387 -11.7391 -11.6683 -11.6122 -11.6041
    -8.7374  -8.6475  -8.0835  -8.0787  -7.4179  -7.4003  -7.2711  -7.1463
    -6.7831  -6.6625  -6.4496  -6.4088  -6.3643  -6.3366  -6.2487  -6.2153
    -6.0643  -6.0319  -5.8000  -5.7649  -5.6836  -5.6469  -5.6248  -5.6068
    -5.5435  -5.4728  -5.3305  -5.2688  -5.0119  -4.9314  -4.7713  -4.7365
    -4.2945  -4.2210  -4.1890  -4.1190  -4.0189  -3.9893  -3.8546  -3.7876
    -3.5254  -3.4739  -3.3452  -3.2549  -3.0667  -3.0369  -2.8740  -2.8576
    -0.5570  -0.4966  -0.1899  -0.1789  -0.1645  -0.1264  -0.0425  -0.0260
     0.0400   0.0459   0.1767   0.2649   0.3859   0.4282   0.4325   0.4840
     0.7113   0.7964   0.8248   0.8362   0.8882   0.9763   0.9790   1.0038
     1.1106   1.1662   1.2428   1.3052   1.3538   1.3845   1.4812   1.5044

     occupation numbers 
     1.0000   1.0000   1.0000   1.0000   1.0000   1.0000   1.0000   1.0000
     1.0000   1.0000   1.0000   1.0000   1.0000   1.0000   1.0000   1.0000
     1.0000   1.0000   1.0000   1.0000   1.0000   1.0000   1.0000   1.0000
     1.0000   1.0000   1.0000   1.0000   1.0000   1.0000   1.0000   1.0000
     1.0000   1.0000   1.0000   1.0000   1.0000   1.0000   1.0000   1.0000
     1.0000   1.0000   1.0000   1.0000   1.0000   1.0000   1.0000   1.0000
     1.0000   1.0000   1.0000   1.0000   1.0000   1.0000   1.0000   1.0000
     1.0000   1.0000   1.0000   1.0000   1.0000   1.0000   1.0000   1.0000
     1.0000   1.0000   1.0000   1.0000   1.0000   1.0000   1.0000   1.0000
     1.0000   1.0000   1.0000   1.0000   1.0000   1.0000   1.0000   1.0000
     1.0000   1.0000   1.0000   1.0000   1.0000   1.0000   1.0000   1.0000
     1.0000   1.0000   1.0000   1.0000   1.0000   1.0000   1.0000   1.0000
     1.0000   1.0000   1.0000   1.0000   1.0000   1.0000   1.0000   1.0000
     1.0000   1.0000   1.0000   1.0000   1.0000   1.0000   1.0000   1.0000

          k = 0.0192 0.0115-0.0133 (188173 PWs)   bands (ev):

   -23.7609 -23.7360 -23.7259 -23.7127 -23.4348 -23.4249 -23.4169 -23.4155
   -18.9866 -18.9809 -18.9753 -18.9647 -18.6509 -18.6507 -18.6392 -18.6391
   -18.0879 -18.0472 -17.0611 -16.9843 -16.9135 -16.9112 -15.8955 -15.8740
   -11.9778 -11.9317 -11.9113 -11.8155 -11.7590 -11.6653 -11.6023 -11.5841
    -8.7595  -8.6620  -8.1074  -8.0779  -7.4191  -7.3901  -7.3176  -7.2249
    -6.6875  -6.6717  -6.4608  -6.3616  -6.3559  -6.3066  -6.2167  -6.1423
    -6.0378  -5.9824  -5.8459  -5.7906  -5.7109  -5.6686  -5.5780  -5.5407
    -5.5074  -5.4587  -5.3743  -5.3663  -4.9767  -4.9297  -4.7793  -4.7539
    -4.3069  -4.2872  -4.2544  -4.2333  -4.0789  -3.9659  -3.7406  -3.6753
    -3.5781  -3.4262  -3.3623  -3.3020  -3.0389  -2.9824  -2.8895  -2.8865
    -0.6141  -0.5945  -0.1777  -0.1679  -0.0830  -0.0516   0.0124   0.0380
     0.0514   0.0918   0.1992   0.2646   0.3186   0.4064   0.4495   0.5208
     0.6815   0.7207   0.7604   0.8388   0.9007   0.9576   1.0182   1.0346
     1.0670   1.1385   1.2227   1.2854   1.3203   1.4537   1.4751   1.5095

     occupation numbers 
     1.0000   1.0000   1.0000   1.0000   1.0000   1.0000   1.0000   1.0000
     1.0000   1.0000   1.0000   1.0000   1.0000   1.0000   1.0000   1.0000
     1.0000   1.0000   1.0000   1.0000   1.0000   1.0000   1.0000   1.0000
     1.0000   1.0000   1.0000   1.0000   1.0000   1.0000   1.0000   1.0000
     1.0000   1.0000   1.0000   1.0000   1.0000   1.0000   1.0000   1.0000
     1.0000   1.0000   1.0000   1.0000   1.0000   1.0000   1.0000   1.0000
     1.0000   1.0000   1.0000   1.0000   1.0000   1.0000   1.0000   1.0000
     1.0000   1.0000   1.0000   1.0000   1.0000   1.0000   1.0000   1.0000
     1.0000   1.0000   1.0000   1.0000   1.0000   1.0000   1.0000   1.0000
     1.0000   1.0000   1.0000   1.0000   1.0000   1.0000   1.0000   1.0000
     1.0000   1.0000   1.0000   1.0000   1.0000   1.0000   1.0000   1.0000
     1.0000   1.0000   1.0000   1.0000   1.0000   1.0000   1.0000   1.0000
     1.0000   1.0000   1.0000   1.0000   1.0000   1.0000   1.0000   1.0000
     1.0000   1.0000   1.0000   1.0000   1.0000   1.0000   1.0000   1.0000

          k = 0.0192 0.0346 0.0216 (188100 PWs)   bands (ev):

   -23.7546 -23.7451 -23.7197 -23.7163 -23.4286 -23.4234 -23.4202 -23.4197
   -18.9877 -18.9861 -18.9691 -18.9644 -18.6477 -18.6474 -18.6427 -18.6422
   -18.0747 -18.0626 -17.0347 -17.0114 -16.9093 -16.9077 -15.8912 -15.8857
   -11.9385 -11.9283 -11.9060 -11.8716 -11.7188 -11.6907 -11.5970 -11.5880
    -8.7372  -8.7198  -8.1039  -8.0870  -7.4032  -7.3819  -7.2723  -7.2707
    -6.6970  -6.6481  -6.4113  -6.3625  -6.3520  -6.3190  -6.1885  -6.1581
    -5.9992  -5.9772  -5.8394  -5.8041  -5.7470  -5.6960  -5.6124  -5.5946
    -5.4544  -5.4387  -5.3825  -5.3570  -4.9624  -4.8896  -4.8442  -4.8134
    -4.3158  -4.3049  -4.2259  -4.2064  -4.0433  -3.9916  -3.7237  -3.7159
    -3.5111  -3.4503  -3.3388  -3.3174  -3.0220  -3.0063  -2.8886  -2.8806
    -0.6619  -0.6594  -0.1799  -0.1674  -0.0981  -0.0634   0.0082   0.0141
     0.1507   0.1612   0.3290   0.3400   0.3766   0.3845   0.5193   0.5314
     0.5403   0.5799   0.7647   0.7974   0.8859   0.9095   1.0269   1.0493
     1.0815   1.1296   1.2248   1.2476   1.3743   1.4349   1.4983   1.5052

     occupation numbers 
     1.0000   1.0000   1.0000   1.0000   1.0000   1.0000   1.0000   1.0000
     1.0000   1.0000   1.0000   1.0000   1.0000   1.0000   1.0000   1.0000
     1.0000   1.0000   1.0000   1.0000   1.0000   1.0000   1.0000   1.0000
     1.0000   1.0000   1.0000   1.0000   1.0000   1.0000   1.0000   1.0000
     1.0000   1.0000   1.0000   1.0000   1.0000   1.0000   1.0000   1.0000
     1.0000   1.0000   1.0000   1.0000   1.0000   1.0000   1.0000   1.0000
     1.0000   1.0000   1.0000   1.0000   1.0000   1.0000   1.0000   1.0000
     1.0000   1.0000   1.0000   1.0000   1.0000   1.0000   1.0000   1.0000
     1.0000   1.0000   1.0000   1.0000   1.0000   1.0000   1.0000   1.0000
     1.0000   1.0000   1.0000   1.0000   1.0000   1.0000   1.0000   1.0000
     1.0000   1.0000   1.0000   1.0000   1.0000   1.0000   1.0000   1.0000
     1.0000   1.0000   1.0000   1.0000   1.0000   1.0000   1.0000   1.0000
     1.0000   1.0000   1.0000   1.0000   1.0000   1.0000   1.0000   1.0000
     1.0000   1.0000   1.0000   1.0000   1.0000   1.0000   1.0000   1.0000

          k = 0.0192 0.0346 0.0566 (188080 PWs)   bands (ev):

   -23.7484 -23.7442 -23.7213 -23.7206 -23.4311 -23.4294 -23.4173 -23.4155
   -18.9863 -18.9848 -18.9708 -18.9671 -18.6542 -18.6538 -18.6370 -18.6361
   -18.0695 -18.0692 -17.0238 -17.0226 -16.9047 -16.9033 -15.8900 -15.8888
   -11.9309 -11.9260 -11.8937 -11.8822 -11.7071 -11.6999 -11.6107 -11.6057
    -8.7175  -8.7012  -8.0898  -8.0780  -7.4055  -7.3825  -7.2342  -7.1989
    -6.7496  -6.7015  -6.4321  -6.4143  -6.3495  -6.3034  -6.2498  -6.2264
    -5.9960  -5.9587  -5.8230  -5.7625  -5.7162  -5.6820  -5.6517  -5.6311
    -5.5375  -5.4979  -5.3345  -5.3081  -4.9457  -4.8919  -4.8381  -4.7960
    -4.2355  -4.2188  -4.1930  -4.1584  -3.9866  -3.9728  -3.8435  -3.8418
    -3.5020  -3.4757  -3.2874  -3.2821  -3.0521  -3.0470  -2.8790  -2.8652
    -0.6186  -0.6053  -0.1926  -0.1809  -0.1075  -0.0805  -0.0206  -0.0053
     0.0789   0.0966   0.2604   0.2816   0.3737   0.4037   0.4679   0.4823
     0.6909   0.7176   0.7970   0.8158   0.9158   0.9312   0.9692   1.0051
     1.1142   1.1384   1.2508   1.2588   1.3749   1.4076   1.4976   1.5084

     occupation numbers 
     1.0000   1.0000   1.0000   1.0000   1.0000   1.0000   1.0000   1.0000
     1.0000   1.0000   1.0000   1.0000   1.0000   1.0000   1.0000   1.0000
     1.0000   1.0000   1.0000   1.0000   1.0000   1.0000   1.0000   1.0000
     1.0000   1.0000   1.0000   1.0000   1.0000   1.0000   1.0000   1.0000
     1.0000   1.0000   1.0000   1.0000   1.0000   1.0000   1.0000   1.0000
     1.0000   1.0000   1.0000   1.0000   1.0000   1.0000   1.0000   1.0000
     1.0000   1.0000   1.0000   1.0000   1.0000   1.0000   1.0000   1.0000
     1.0000   1.0000   1.0000   1.0000   1.0000   1.0000   1.0000   1.0000
     1.0000   1.0000   1.0000   1.0000   1.0000   1.0000   1.0000   1.0000
     1.0000   1.0000   1.0000   1.0000   1.0000   1.0000   1.0000   1.0000
     1.0000   1.0000   1.0000   1.0000   1.0000   1.0000   1.0000   1.0000
     1.0000   1.0000   1.0000   1.0000   1.0000   1.0000   1.0000   1.0000
     1.0000   1.0000   1.0000   1.0000   1.0000   1.0000   1.0000   1.0000
     1.0000   1.0000   1.0000   1.0000   1.0000   1.0000   1.0000   1.0000

          k = 0.0192 0.0346-0.0483 (188113 PWs)   bands (ev):

   -23.7495 -23.7447 -23.7221 -23.7182 -23.4329 -23.4314 -23.4148 -23.4142
   -18.9842 -18.9837 -18.9707 -18.9705 -18.6555 -18.6552 -18.6355 -18.6347
   -18.0746 -18.0630 -17.0333 -17.0118 -16.9080 -16.9075 -15.8890 -15.8819
   -11.9519 -11.9375 -11.8974 -11.8697 -11.7090 -11.6820 -11.6102 -11.6064
    -8.7122  -8.6750  -8.0838  -8.0815  -7.4087  -7.4026  -7.2381  -7.1851
    -6.7455  -6.6943  -6.4582  -6.4252  -6.3460  -6.3277  -6.2823  -6.2630
    -5.9720  -5.9530  -5.8400  -5.8040  -5.6755  -5.6546  -5.6267  -5.5980
    -5.5388  -5.4981  -5.3215  -5.2888  -4.9804  -4.9248  -4.7980  -4.7625
    -4.2804  -4.2487  -4.1437  -4.1168  -4.0200  -4.0078  -3.8356  -3.8082
    -3.5016  -3.4802  -3.3187  -3.2812  -3.0508  -3.0370  -2.8805  -2.8743
    -0.5402  -0.5156  -0.1913  -0.1855  -0.1318  -0.1123  -0.0675  -0.0468
     0.0224   0.0357   0.2307   0.2659   0.3915   0.4099   0.4433   0.4731
     0.7349   0.7704   0.8454   0.8598   0.8795   0.9259   0.9929   1.0034
     1.1234   1.1407   1.2712   1.2943   1.3601   1.3740   1.4868   1.4970

     occupation numbers 
     1.0000   1.0000   1.0000   1.0000   1.0000   1.0000   1.0000   1.0000
     1.0000   1.0000   1.0000   1.0000   1.0000   1.0000   1.0000   1.0000
     1.0000   1.0000   1.0000   1.0000   1.0000   1.0000   1.0000   1.0000
     1.0000   1.0000   1.0000   1.0000   1.0000   1.0000   1.0000   1.0000
     1.0000   1.0000   1.0000   1.0000   1.0000   1.0000   1.0000   1.0000
     1.0000   1.0000   1.0000   1.0000   1.0000   1.0000   1.0000   1.0000
     1.0000   1.0000   1.0000   1.0000   1.0000   1.0000   1.0000   1.0000
     1.0000   1.0000   1.0000   1.0000   1.0000   1.0000   1.0000   1.0000
     1.0000   1.0000   1.0000   1.0000   1.0000   1.0000   1.0000   1.0000
     1.0000   1.0000   1.0000   1.0000   1.0000   1.0000   1.0000   1.0000
     1.0000   1.0000   1.0000   1.0000   1.0000   1.0000   1.0000   1.0000
     1.0000   1.0000   1.0000   1.0000   1.0000   1.0000   1.0000   1.0000
     1.0000   1.0000   1.0000   1.0000   1.0000   1.0000   1.0000   1.0000
     1.0000   1.0000   1.0000   1.0000   1.0000   1.0000   1.0000   1.0000

          k = 0.0192 0.0346-0.0133 (188107 PWs)   bands (ev):

   -23.7552 -23.7458 -23.7196 -23.7151 -23.4314 -23.4272 -23.4169 -23.4164
   -18.9864 -18.9848 -18.9700 -18.9663 -18.6509 -18.6508 -18.6391 -18.6391
   -18.0765 -18.0597 -17.0383 -17.0065 -16.9128 -16.9118 -15.8890 -15.8801
   -11.9604 -11.9413 -11.8990 -11.8666 -11.7134 -11.6815 -11.5961 -11.5886
    -8.7329  -8.6926  -8.1007  -8.0885  -7.4119  -7.3984  -7.2861  -7.2494
    -6.6604  -6.6417  -6.4570  -6.4011  -6.3475  -6.3235  -6.2426  -6.2068
    -5.9725  -5.9464  -5.8529  -5.8235  -5.7006  -5.6772  -5.5857  -5.5823
    -5.4548  -5.4399  -5.3644  -5.3541  -4.9734  -4.9383  -4.7978  -4.7761
    -4.3209  -4.3142  -4.2271  -4.2051  -4.0576  -4.0022  -3.7189  -3.6920
    -3.5214  -3.4571  -3.3488  -3.3227  -3.0258  -3.0026  -2.8880  -2.8869
    -0.6045  -0.5964  -0.1699  -0.1569  -0.0994  -0.0654   0.0031   0.0134
     0.0521   0.0735   0.2334   0.2641   0.3471   0.3868   0.4891   0.5202
     0.6970   0.7302   0.7550   0.8137   0.8726   0.9125   1.0396   1.0443
     1.0936   1.1219   1.2533   1.2774   1.3535   1.4126   1.4857   1.4954

     occupation numbers 
     1.0000   1.0000   1.0000   1.0000   1.0000   1.0000   1.0000   1.0000
     1.0000   1.0000   1.0000   1.0000   1.0000   1.0000   1.0000   1.0000
     1.0000   1.0000   1.0000   1.0000   1.0000   1.0000   1.0000   1.0000
     1.0000   1.0000   1.0000   1.0000   1.0000   1.0000   1.0000   1.0000
     1.0000   1.0000   1.0000   1.0000   1.0000   1.0000   1.0000   1.0000
     1.0000   1.0000   1.0000   1.0000   1.0000   1.0000   1.0000   1.0000
     1.0000   1.0000   1.0000   1.0000   1.0000   1.0000   1.0000   1.0000
     1.0000   1.0000   1.0000   1.0000   1.0000   1.0000   1.0000   1.0000
     1.0000   1.0000   1.0000   1.0000   1.0000   1.0000   1.0000   1.0000
     1.0000   1.0000   1.0000   1.0000   1.0000   1.0000   1.0000   1.0000
     1.0000   1.0000   1.0000   1.0000   1.0000   1.0000   1.0000   1.0000
     1.0000   1.0000   1.0000   1.0000   1.0000   1.0000   1.0000   1.0000
     1.0000   1.0000   1.0000   1.0000   1.0000   1.0000   1.0000   1.0000
     1.0000   1.0000   1.0000   1.0000   1.0000   1.0000   1.0000   1.0000

          k = 0.0575 0.0115 0.0300 (188213 PWs)   bands (ev):

   -23.7491 -23.7385 -23.7216 -23.7210 -23.4306 -23.4263 -23.4217 -23.4177
   -18.9859 -18.9815 -18.9767 -18.9663 -18.6516 -18.6502 -18.6408 -18.6392
   -18.0755 -18.0749 -17.0230 -17.0208 -16.9093 -16.9070 -15.8917 -15.8885
   -11.9201 -11.9158 -11.8622 -11.8424 -11.6866 -11.6622 -11.6177 -11.5968
    -8.7492  -8.7133  -8.1150  -8.0898  -7.4121  -7.3729  -7.3508  -7.2915
    -6.8420  -6.7708  -6.5487  -6.4166  -6.3108  -6.2641  -6.1113  -6.0769
    -6.0555  -6.0024  -5.8588  -5.7953  -5.7400  -5.6958  -5.6021  -5.5748
    -5.4864  -5.4465  -5.4010  -5.3792  -5.0159  -4.8979  -4.7749  -4.7716
    -4.2909  -4.2690  -4.2235  -4.1717  -3.8738  -3.8170  -3.6726  -3.6267
    -3.5884  -3.4601  -3.4208  -3.4114  -3.0255  -3.0225  -2.9006  -2.8650
    -0.6154  -0.6057  -0.1694  -0.1601  -0.0765  -0.0555   0.0076   0.0331
     0.0708   0.0995   0.2431   0.2648   0.3329   0.3507   0.4940   0.5132
     0.7011   0.7154   0.7914   0.8354   0.9106   0.9159   1.0116   1.0254
     1.0813   1.1271   1.1534   1.2019   1.4095   1.4451   1.4633   1.5045

     occupation numbers 
     1.0000   1.0000   1.0000   1.0000   1.0000   1.0000   1.0000   1.0000
     1.0000   1.0000   1.0000   1.0000   1.0000   1.0000   1.0000   1.0000
     1.0000   1.0000   1.0000   1.0000   1.0000   1.0000   1.0000   1.0000
     1.0000   1.0000   1.0000   1.0000   1.0000   1.0000   1.0000   1.0000
     1.0000   1.0000   1.0000   1.0000   1.0000   1.0000   1.0000   1.0000
     1.0000   1.0000   1.0000   1.0000   1.0000   1.0000   1.0000   1.0000
     1.0000   1.0000   1.0000   1.0000   1.0000   1.0000   1.0000   1.0000
     1.0000   1.0000   1.0000   1.0000   1.0000   1.0000   1.0000   1.0000
     1.0000   1.0000   1.0000   1.0000   1.0000   1.0000   1.0000   1.0000
     1.0000   1.0000   1.0000   1.0000   1.0000   1.0000   1.0000   1.0000
     1.0000   1.0000   1.0000   1.0000   1.0000   1.0000   1.0000   1.0000
     1.0000   1.0000   1.0000   1.0000   1.0000   1.0000   1.0000   1.0000
     1.0000   1.0000   1.0000   1.0000   1.0000   1.0000   1.0000   1.0000
     1.0000   1.0000   1.0000   1.0000   1.0000   1.0000   1.0000   1.0000

          k = 0.0575 0.0115 0.0649 (188159 PWs)   bands (ev):

   -23.7448 -23.7415 -23.7258 -23.7170 -23.4280 -23.4279 -23.4256 -23.4160
   -18.9869 -18.9837 -18.9768 -18.9647 -18.6621 -18.6595 -18.6328 -18.6287
   -18.0916 -18.0648 -17.0450 -16.9957 -16.8992 -16.8954 -15.9089 -15.8870
   -11.9393 -11.9221 -11.8908 -11.8138 -11.6788 -11.6412 -11.6218 -11.5979
    -8.7984  -8.6676  -8.1121  -8.0693  -7.4030  -7.3865  -7.3025  -7.1641
    -6.9519  -6.7166  -6.5527  -6.3535  -6.3326  -6.2985  -6.2800  -6.1665
    -6.1139  -6.0217  -5.8515  -5.8094  -5.7642  -5.6895  -5.6265  -5.5592
    -5.4605  -5.4137  -5.3623  -5.2751  -5.0310  -4.8642  -4.8496  -4.7759
    -4.2335  -4.2196  -4.1541  -4.1148  -3.8308  -3.8145  -3.7586  -3.7351
    -3.6070  -3.4895  -3.4263  -3.3210  -3.0786  -3.0391  -2.8994  -2.8300
    -0.6932  -0.6576  -0.1770  -0.1347  -0.0742  -0.0438   0.0150   0.0541
     0.1078   0.1458   0.3032   0.3327   0.3624   0.3780   0.4571   0.5615
     0.6211   0.6292   0.6860   0.7861   0.9154   0.9432   0.9956   1.0178
     1.1152   1.1514   1.1613   1.1898   1.4221   1.4634   1.4731   1.5211

     occupation numbers 
     1.0000   1.0000   1.0000   1.0000   1.0000   1.0000   1.0000   1.0000
     1.0000   1.0000   1.0000   1.0000   1.0000   1.0000   1.0000   1.0000
     1.0000   1.0000   1.0000   1.0000   1.0000   1.0000   1.0000   1.0000
     1.0000   1.0000   1.0000   1.0000   1.0000   1.0000   1.0000   1.0000
     1.0000   1.0000   1.0000   1.0000   1.0000   1.0000   1.0000   1.0000
     1.0000   1.0000   1.0000   1.0000   1.0000   1.0000   1.0000   1.0000
     1.0000   1.0000   1.0000   1.0000   1.0000   1.0000   1.0000   1.0000
     1.0000   1.0000   1.0000   1.0000   1.0000   1.0000   1.0000   1.0000
     1.0000   1.0000   1.0000   1.0000   1.0000   1.0000   1.0000   1.0000
     1.0000   1.0000   1.0000   1.0000   1.0000   1.0000   1.0000   1.0000
     1.0000   1.0000   1.0000   1.0000   1.0000   1.0000   1.0000   1.0000
     1.0000   1.0000   1.0000   1.0000   1.0000   1.0000   1.0000   1.0000
     1.0000   1.0000   1.0000   1.0000   1.0000   1.0000   1.0000   1.0000
     1.0000   1.0000   1.0000   1.0000   1.0000   1.0000   1.0000   1.0000

          k = 0.0575 0.0115-0.0399 (188091 PWs)   bands (ev):

   -23.7465 -23.7404 -23.7274 -23.7147 -23.4316 -23.4306 -23.4208 -23.4144
   -18.9847 -18.9823 -18.9775 -18.9677 -18.6629 -18.6604 -18.6319 -18.6278
   -18.0968 -18.0581 -17.0560 -16.9839 -16.9024 -16.8996 -15.9081 -15.8802
   -11.9506 -11.9289 -11.9060 -11.7911 -11.6959 -11.6235 -11.6151 -11.6026
    -8.7923  -8.6407  -8.1055  -8.0704  -7.4068  -7.3859  -7.3288  -7.1512
    -6.9734  -6.7159  -6.5409  -6.3906  -6.3368  -6.3207  -6.2673  -6.1998
    -6.1158  -6.0386  -5.8361  -5.7834  -5.7084  -5.6985  -5.6273  -5.5784
    -5.4350  -5.4090  -5.3687  -5.2753  -5.0221  -4.8874  -4.8215  -4.7627
    -4.2366  -4.1933  -4.1560  -4.1269  -3.8731  -3.8615  -3.7106  -3.6934
    -3.5581  -3.5231  -3.4795  -3.3239  -3.0832  -3.0359  -2.8948  -2.8361
    -0.6479  -0.5889  -0.1681  -0.1073  -0.0924  -0.0658   0.0072   0.0299
     0.0421   0.0874   0.2393   0.3333   0.3532   0.4036   0.4170   0.4442
     0.6648   0.7300   0.7732   0.7949   0.9160   0.9431   1.0131   1.0300
     1.1044   1.1318   1.1769   1.2469   1.4336   1.4527   1.4587   1.4871

     occupation numbers 
     1.0000   1.0000   1.0000   1.0000   1.0000   1.0000   1.0000   1.0000
     1.0000   1.0000   1.0000   1.0000   1.0000   1.0000   1.0000   1.0000
     1.0000   1.0000   1.0000   1.0000   1.0000   1.0000   1.0000   1.0000
     1.0000   1.0000   1.0000   1.0000   1.0000   1.0000   1.0000   1.0000
     1.0000   1.0000   1.0000   1.0000   1.0000   1.0000   1.0000   1.0000
     1.0000   1.0000   1.0000   1.0000   1.0000   1.0000   1.0000   1.0000
     1.0000   1.0000   1.0000   1.0000   1.0000   1.0000   1.0000   1.0000
     1.0000   1.0000   1.0000   1.0000   1.0000   1.0000   1.0000   1.0000
     1.0000   1.0000   1.0000   1.0000   1.0000   1.0000   1.0000   1.0000
     1.0000   1.0000   1.0000   1.0000   1.0000   1.0000   1.0000   1.0000
     1.0000   1.0000   1.0000   1.0000   1.0000   1.0000   1.0000   1.0000
     1.0000   1.0000   1.0000   1.0000   1.0000   1.0000   1.0000   1.0000
     1.0000   1.0000   1.0000   1.0000   1.0000   1.0000   1.0000   1.0000
     1.0000   1.0000   1.0000   1.0000   1.0000   1.0000   1.0000   1.0000

          k = 0.0575 0.0115-0.0050 (188218 PWs)   bands (ev):

   -23.7500 -23.7382 -23.7257 -23.7163 -23.4329 -23.4291 -23.4180 -23.4163
   -18.9832 -18.9818 -18.9730 -18.9726 -18.6535 -18.6525 -18.6385 -18.6370
   -18.0885 -18.0603 -17.0478 -16.9951 -16.9119 -16.9118 -15.8951 -15.8776
   -11.9350 -11.9167 -11.8984 -11.8011 -11.7074 -11.6381 -11.6108 -11.6044
    -8.7584  -8.6704  -8.1019  -8.0980  -7.4031  -7.3958  -7.3825  -7.2658
    -6.8626  -6.7633  -6.5050  -6.4778  -6.3025  -6.2965  -6.1528  -6.1259
    -6.0325  -6.0235  -5.7987  -5.7508  -5.7100  -5.6829  -5.6140  -5.6071
    -5.4664  -5.4466  -5.3932  -5.3823  -4.9750  -4.9516  -4.7529  -4.7490
    -4.2920  -4.2642  -4.2179  -4.1809  -3.8880  -3.8462  -3.6317  -3.6201
    -3.5439  -3.5143  -3.4625  -3.4003  -3.0456  -3.0059  -2.8939  -2.8720
    -0.5559  -0.5081  -0.1758  -0.1615  -0.0896  -0.0789  -0.0519  -0.0490
     0.0546   0.0877   0.2002   0.2735   0.3122   0.3600   0.4623   0.5024
     0.6813   0.7513   0.8559   0.8772   0.9142   0.9442   1.0245   1.0471
     1.0785   1.0946   1.1634   1.2514   1.4266   1.4335   1.4432   1.4652

     occupation numbers 
     1.0000   1.0000   1.0000   1.0000   1.0000   1.0000   1.0000   1.0000
     1.0000   1.0000   1.0000   1.0000   1.0000   1.0000   1.0000   1.0000
     1.0000   1.0000   1.0000   1.0000   1.0000   1.0000   1.0000   1.0000
     1.0000   1.0000   1.0000   1.0000   1.0000   1.0000   1.0000   1.0000
     1.0000   1.0000   1.0000   1.0000   1.0000   1.0000   1.0000   1.0000
     1.0000   1.0000   1.0000   1.0000   1.0000   1.0000   1.0000   1.0000
     1.0000   1.0000   1.0000   1.0000   1.0000   1.0000   1.0000   1.0000
     1.0000   1.0000   1.0000   1.0000   1.0000   1.0000   1.0000   1.0000
     1.0000   1.0000   1.0000   1.0000   1.0000   1.0000   1.0000   1.0000
     1.0000   1.0000   1.0000   1.0000   1.0000   1.0000   1.0000   1.0000
     1.0000   1.0000   1.0000   1.0000   1.0000   1.0000   1.0000   1.0000
     1.0000   1.0000   1.0000   1.0000   1.0000   1.0000   1.0000   1.0000
     1.0000   1.0000   1.0000   1.0000   1.0000   1.0000   1.0000   1.0000
     1.0000   1.0000   1.0000   1.0000   1.0000   1.0000   1.0000   1.0000

          k = 0.0575 0.0346 0.0300 (188182 PWs)   bands (ev):

   -23.7457 -23.7412 -23.7220 -23.7215 -23.4283 -23.4265 -23.4215 -23.4198
   -18.9859 -18.9848 -18.9717 -18.9680 -18.6512 -18.6506 -18.6403 -18.6397
   -18.0754 -18.0751 -17.0226 -17.0216 -16.9084 -16.9075 -15.8908 -15.8895
   -11.9192 -11.9174 -11.8546 -11.8462 -11.6816 -11.6714 -11.6113 -11.6027
    -8.7387  -8.7238  -8.1036  -8.0929  -7.3998  -7.3846  -7.3381  -7.3131
    -6.8473  -6.8242  -6.4667  -6.4194  -6.2890  -6.2608  -6.1440  -6.1114
    -6.0402  -6.0112  -5.8296  -5.8040  -5.7311  -5.7084  -5.6067  -5.5788
    -5.4673  -5.4576  -5.3914  -5.3802  -4.9851  -4.9362  -4.7814  -4.7782
    -4.2826  -4.2685  -4.2126  -4.1928  -3.8484  -3.8237  -3.6591  -3.6374
    -3.5545  -3.5007  -3.4190  -3.4113  -3.0245  -3.0213  -2.8957  -2.8798
    -0.6082  -0.6042  -0.1605  -0.1513  -0.1160  -0.0935   0.0304   0.0545
     0.0763   0.0924   0.2527   0.2741   0.3425   0.3589   0.4921   0.5022
     0.7344   0.7371   0.7651   0.7985   0.9035   0.9133   1.0157   1.0371
     1.0885   1.1199   1.1596   1.1819   1.4210   1.4347   1.4773   1.4933

     occupation numbers 
     1.0000   1.0000   1.0000   1.0000   1.0000   1.0000   1.0000   1.0000
     1.0000   1.0000   1.0000   1.0000   1.0000   1.0000   1.0000   1.0000
     1.0000   1.0000   1.0000   1.0000   1.0000   1.0000   1.0000   1.0000
     1.0000   1.0000   1.0000   1.0000   1.0000   1.0000   1.0000   1.0000
     1.0000   1.0000   1.0000   1.0000   1.0000   1.0000   1.0000   1.0000
     1.0000   1.0000   1.0000   1.0000   1.0000   1.0000   1.0000   1.0000
     1.0000   1.0000   1.0000   1.0000   1.0000   1.0000   1.0000   1.0000
     1.0000   1.0000   1.0000   1.0000   1.0000   1.0000   1.0000   1.0000
     1.0000   1.0000   1.0000   1.0000   1.0000   1.0000   1.0000   1.0000
     1.0000   1.0000   1.0000   1.0000   1.0000   1.0000   1.0000   1.0000
     1.0000   1.0000   1.0000   1.0000   1.0000   1.0000   1.0000   1.0000
     1.0000   1.0000   1.0000   1.0000   1.0000   1.0000   1.0000   1.0000
     1.0000   1.0000   1.0000   1.0000   1.0000   1.0000   1.0000   1.0000
     1.0000   1.0000   1.0000   1.0000   1.0000   1.0000   1.0000   1.0000

          k = 0.0575 0.0346 0.0649 (188159 PWs)   bands (ev):

   -23.7433 -23.7420 -23.7238 -23.7202 -23.4276 -23.4274 -23.4232 -23.4189
   -18.9873 -18.9864 -18.9714 -18.9669 -18.6613 -18.6602 -18.6316 -18.6299
   -18.0840 -18.0729 -17.0306 -17.0102 -16.8980 -16.8964 -15.9023 -15.8932
   -11.9393 -11.9340 -11.8612 -11.8316 -11.6680 -11.6524 -11.6149 -11.6051
    -8.7614  -8.7073  -8.0978  -8.0799  -7.3775  -7.3682  -7.2966  -7.2332
    -6.9083  -6.8270  -6.4505  -6.3892  -6.3182  -6.3051  -6.2340  -6.1742
    -6.0933  -6.0386  -5.8295  -5.8058  -5.7475  -5.7165  -5.6460  -5.6022
    -5.4554  -5.4366  -5.3245  -5.2896  -4.9909  -4.9186  -4.8292  -4.7969
    -4.2169  -4.1952  -4.1539  -4.1163  -3.8202  -3.8134  -3.7592  -3.7486
    -3.5815  -3.5398  -3.3861  -3.3465  -3.0686  -3.0524  -2.8794  -2.8506
    -0.6785  -0.6641  -0.1631  -0.1436  -0.1063  -0.0954   0.0427   0.0554
     0.1381   0.1526   0.3215   0.3307   0.3778   0.3911   0.4802   0.5302
     0.6006   0.6098   0.7408   0.7978   0.8807   0.9177   1.0058   1.0194
     1.1016   1.1242   1.1857   1.1994   1.4338   1.4502   1.4871   1.5065

     occupation numbers 
     1.0000   1.0000   1.0000   1.0000   1.0000   1.0000   1.0000   1.0000
     1.0000   1.0000   1.0000   1.0000   1.0000   1.0000   1.0000   1.0000
     1.0000   1.0000   1.0000   1.0000   1.0000   1.0000   1.0000   1.0000
     1.0000   1.0000   1.0000   1.0000   1.0000   1.0000   1.0000   1.0000
     1.0000   1.0000   1.0000   1.0000   1.0000   1.0000   1.0000   1.0000
     1.0000   1.0000   1.0000   1.0000   1.0000   1.0000   1.0000   1.0000
     1.0000   1.0000   1.0000   1.0000   1.0000   1.0000   1.0000   1.0000
     1.0000   1.0000   1.0000   1.0000   1.0000   1.0000   1.0000   1.0000
     1.0000   1.0000   1.0000   1.0000   1.0000   1.0000   1.0000   1.0000
     1.0000   1.0000   1.0000   1.0000   1.0000   1.0000   1.0000   1.0000
     1.0000   1.0000   1.0000   1.0000   1.0000   1.0000   1.0000   1.0000
     1.0000   1.0000   1.0000   1.0000   1.0000   1.0000   1.0000   1.0000
     1.0000   1.0000   1.0000   1.0000   1.0000   1.0000   1.0000   1.0000
     1.0000   1.0000   1.0000   1.0000   1.0000   1.0000   1.0000   1.0000

          k = 0.0575 0.0346-0.0399 (188160 PWs)   bands (ev):

   -23.7449 -23.7423 -23.7237 -23.7184 -23.4310 -23.4305 -23.4192 -23.4165
   -18.9856 -18.9851 -18.9725 -18.9690 -18.6621 -18.6611 -18.6307 -18.6290
   -18.0859 -18.0699 -17.0347 -17.0048 -16.9016 -16.9005 -15.8996 -15.8880
   -11.9489 -11.9419 -11.8707 -11.8278 -11.6682 -11.6411 -11.6101 -11.6055
    -8.7500  -8.6874  -8.0950  -8.0803  -7.3843  -7.3639  -7.3141  -7.2278
    -6.9156  -6.8246  -6.4493  -6.4047  -6.3381  -6.3132  -6.2814  -6.2253
    -6.0566  -6.0117  -5.8237  -5.7918  -5.7281  -5.7186  -5.6377  -5.6031
    -5.4349  -5.4237  -5.3240  -5.2858  -5.0076  -4.9517  -4.7930  -4.7681
    -4.2371  -4.2200  -4.1205  -4.1027  -3.8657  -3.8610  -3.7082  -3.7018
    -3.5626  -3.5490  -3.4237  -3.3634  -3.0669  -3.0462  -2.8826  -2.8573
    -0.6273  -0.6024  -0.1590  -0.1359  -0.1157  -0.0970   0.0289   0.0388
     0.0704   0.0980   0.2715   0.3085   0.3604   0.3814   0.4246   0.4510
     0.6880   0.7182   0.8038   0.8099   0.9020   0.9137   1.0002   1.0050
     1.1121   1.1331   1.2052   1.2313   1.4373   1.4466   1.4646   1.4778

     occupation numbers 
     1.0000   1.0000   1.0000   1.0000   1.0000   1.0000   1.0000   1.0000
     1.0000   1.0000   1.0000   1.0000   1.0000   1.0000   1.0000   1.0000
     1.0000   1.0000   1.0000   1.0000   1.0000   1.0000   1.0000   1.0000
     1.0000   1.0000   1.0000   1.0000   1.0000   1.0000   1.0000   1.0000
     1.0000   1.0000   1.0000   1.0000   1.0000   1.0000   1.0000   1.0000
     1.0000   1.0000   1.0000   1.0000   1.0000   1.0000   1.0000   1.0000
     1.0000   1.0000   1.0000   1.0000   1.0000   1.0000   1.0000   1.0000
     1.0000   1.0000   1.0000   1.0000   1.0000   1.0000   1.0000   1.0000
     1.0000   1.0000   1.0000   1.0000   1.0000   1.0000   1.0000   1.0000
     1.0000   1.0000   1.0000   1.0000   1.0000   1.0000   1.0000   1.0000
     1.0000   1.0000   1.0000   1.0000   1.0000   1.0000   1.0000   1.0000
     1.0000   1.0000   1.0000   1.0000   1.0000   1.0000   1.0000   1.0000
     1.0000   1.0000   1.0000   1.0000   1.0000   1.0000   1.0000   1.0000
     1.0000   1.0000   1.0000   1.0000   1.0000   1.0000   1.0000   1.0000

          k = 0.0575 0.0346-0.0050 (188195 PWs)   bands (ev):

   -23.7468 -23.7420 -23.7227 -23.7189 -23.4313 -23.4296 -23.4180 -23.4172
   -18.9839 -18.9834 -18.9717 -18.9716 -18.6532 -18.6528 -18.6381 -18.6375
   -18.0805 -18.0689 -17.0323 -17.0105 -16.9118 -16.9118 -15.8899 -15.8827
   -11.9317 -11.9258 -11.8708 -11.8337 -11.6820 -11.6555 -11.6080 -11.6048
    -8.7333  -8.6970  -8.0994  -8.0956  -7.3995  -7.3974  -7.3535  -7.3049
    -6.8502  -6.8110  -6.4589  -6.4466  -6.2932  -6.2807  -6.2105  -6.2011
    -5.9828  -5.9754  -5.8059  -5.7812  -5.7073  -5.6965  -5.5918  -5.5877
    -5.4698  -5.4514  -5.3892  -5.3848  -4.9810  -4.9679  -4.7508  -4.7495
    -4.2936  -4.2761  -4.2116  -4.1858  -3.8615  -3.8438  -3.6339  -3.6303
    -3.5182  -3.4939  -3.4692  -3.4298  -3.0315  -3.0136  -2.8959  -2.8877
    -0.5399  -0.5201  -0.1634  -0.1524  -0.1039  -0.0817  -0.0707  -0.0517
     0.0565   0.0790   0.2228   0.2537   0.3386   0.3618   0.4743   0.4966
     0.7124   0.7510   0.8363   0.8625   0.9004   0.9307   1.0334   1.0386
     1.0968   1.1080   1.1798   1.2204   1.4286   1.4299   1.4499   1.4595

     occupation numbers 
     1.0000   1.0000   1.0000   1.0000   1.0000   1.0000   1.0000   1.0000
     1.0000   1.0000   1.0000   1.0000   1.0000   1.0000   1.0000   1.0000
     1.0000   1.0000   1.0000   1.0000   1.0000   1.0000   1.0000   1.0000
     1.0000   1.0000   1.0000   1.0000   1.0000   1.0000   1.0000   1.0000
     1.0000   1.0000   1.0000   1.0000   1.0000   1.0000   1.0000   1.0000
     1.0000   1.0000   1.0000   1.0000   1.0000   1.0000   1.0000   1.0000
     1.0000   1.0000   1.0000   1.0000   1.0000   1.0000   1.0000   1.0000
     1.0000   1.0000   1.0000   1.0000   1.0000   1.0000   1.0000   1.0000
     1.0000   1.0000   1.0000   1.0000   1.0000   1.0000   1.0000   1.0000
     1.0000   1.0000   1.0000   1.0000   1.0000   1.0000   1.0000   1.0000
     1.0000   1.0000   1.0000   1.0000   1.0000   1.0000   1.0000   1.0000
     1.0000   1.0000   1.0000   1.0000   1.0000   1.0000   1.0000   1.0000
     1.0000   1.0000   1.0000   1.0000   1.0000   1.0000   1.0000   1.0000
     1.0000   1.0000   1.0000   1.0000   1.0000   1.0000   1.0000   1.0000

     highest occupied level (ev):     1.5211

!    total energy              =   -1282.04799846 Ry
     Harris-Foulkes estimate   =   -1282.04799873 Ry
     estimated scf accuracy    <       0.00000031 Ry

     total all-electron energy =     -4786.491746 Ry

     The total energy is the sum of the following terms:

     one-electron contribution =    -621.20020693 Ry
     hartree contribution      =     410.02339147 Ry
     xc contribution           =    -260.08806699 Ry
     ewald contribution        =    -480.39096194 Ry
     one-center paw contrib.   =    -330.39215407 Ry

     convergence has been achieved in  15 iterations

     Forces acting on atoms (Ry/au):

     atom    1 type  1   force =    -0.01200812   -0.00528861   -0.01230694
     atom    2 type  4   force =     0.02580328    0.00514191   -0.01885699
     atom    3 type  1   force =    -0.00342360   -0.00714543   -0.00994850
     atom    4 type  1   force =     0.00646375    0.00208151   -0.00137906
     atom    5 type  4   force =     0.00345224   -0.02545177    0.02809841
     atom    6 type  1   force =     0.00905431    0.00331274   -0.00566555
     atom    7 type  4   force =    -0.00955970    0.01770351    0.03712812
     atom    8 type  2   force =     0.16327180   -0.10175574    0.05083843
     atom    9 type  3   force =    -0.11962110   -0.05610672   -0.12342979
     atom   10 type  3   force =    -0.04027690    0.16021091    0.07077050
     atom   11 type  4   force =    -0.02756851    0.01757782   -0.01376853
     atom   12 type  2   force =     0.12509830   -0.05410470    0.21323192
     atom   13 type  3   force =    -0.19609919   -0.10162840   -0.05998100
     atom   14 type  3   force =     0.06572328    0.15355467   -0.15490510
     atom   15 type  3   force =     0.06572328   -0.15355467   -0.15490510
     atom   16 type  3   force =    -0.19609919    0.10162840   -0.05998100
     atom   17 type  2   force =     0.12509830    0.05410470    0.21323192
     atom   18 type  4   force =    -0.02756851   -0.01757782   -0.01376853
     atom   19 type  3   force =    -0.04027690   -0.16021091    0.07077050
     atom   20 type  3   force =    -0.11962110    0.05610672   -0.12342979
     atom   21 type  2   force =     0.16327180    0.10175574    0.05083843
     atom   22 type  4   force =    -0.00955970   -0.01770351    0.03712812
     atom   23 type  1   force =     0.00905431   -0.00331274   -0.00566555
     atom   24 type  4   force =     0.00345224    0.02545177    0.02809841
     atom   25 type  1   force =     0.00646375   -0.00208151   -0.00137906
     atom   26 type  1   force =    -0.00342360    0.00714543   -0.00994850
     atom   27 type  4   force =     0.02580328   -0.00514191   -0.01885699
     atom   28 type  1   force =    -0.01200812    0.00528861   -0.01230694
     atom   29 type  3   force =    -0.06572328   -0.15355467    0.15490510
     atom   30 type  3   force =     0.19609919    0.10162840    0.05998100
     atom   31 type  2   force =    -0.12509830    0.05410470   -0.21323192
     atom   32 type  4   force =     0.02756851   -0.01757782    0.01376853
     atom   33 type  3   force =     0.04027690   -0.16021091   -0.07077050
     atom   34 type  3   force =     0.11962110    0.05610672    0.12342979
     atom   35 type  2   force =    -0.16327180    0.10175574   -0.05083843
     atom   36 type  4   force =     0.00955970   -0.01770351   -0.03712812
     atom   37 type  1   force =    -0.00905431   -0.00331274    0.00566555
     atom   38 type  4   force =    -0.00345224    0.02545177   -0.02809841
     atom   39 type  1   force =    -0.00646375   -0.00208151    0.00137906
     atom   40 type  1   force =     0.00342360    0.00714543    0.00994850
     atom   41 type  4   force =    -0.02580328   -0.00514191    0.01885699
     atom   42 type  1   force =     0.01200812    0.00528861    0.01230694
     atom   43 type  3   force =    -0.06572328    0.15355467    0.15490510
     atom   44 type  3   force =     0.19609919   -0.10162840    0.05998100
     atom   45 type  2   force =    -0.12509830   -0.05410470   -0.21323192
     atom   46 type  4   force =     0.02756851    0.01757782    0.01376853
     atom   47 type  3   force =     0.04027690    0.16021091   -0.07077050
     atom   48 type  3   force =     0.11962110   -0.05610672    0.12342979
     atom   49 type  2   force =    -0.16327180   -0.10175574   -0.05083843
     atom   50 type  4   force =     0.00955970    0.01770351   -0.03712812
     atom   51 type  1   force =    -0.00905431    0.00331274    0.00566555
     atom   52 type  4   force =    -0.00345224   -0.02545177   -0.02809841
     atom   53 type  1   force =    -0.00646375    0.00208151    0.00137906
     atom   54 type  1   force =     0.00342360   -0.00714543    0.00994850
     atom   55 type  4   force =    -0.02580328    0.00514191    0.01885699
     atom   56 type  1   force =     0.01200812   -0.00528861    0.01230694
     The non-local contrib.  to forces
     atom    1 type  1   force =     0.17945372    0.38152622    0.11765258
     atom    2 type  4   force =    -2.40411054   -0.46618896    1.52932796
     atom    3 type  1   force =     0.04240385   -0.03108001    0.05293820
     atom    4 type  1   force =    -0.58028064   -0.43236107   -0.13286285
     atom    5 type  4   force =     0.16185708    1.85008812   -2.23345455
     atom    6 type  1   force =    -0.00449778    0.06222052    0.05712500
     atom    7 type  4   force =     0.52460070   -1.16594858   -2.61808006
     atom    8 type  2   force =     0.63347871   -0.42757967    0.18164927
     atom    9 type  3   force =     0.07735309    0.02761140    0.06753442
     atom   10 type  3   force =     0.02819741   -0.09677452   -0.03719491
     atom   11 type  4   force =     2.26857599   -1.45901971    0.84858515
     atom   12 type  2   force =     0.39517717   -0.18515607    0.69941063
     atom   13 type  3   force =     0.09546341    0.04779201    0.03646762
     atom   14 type  3   force =    -0.02802774   -0.07447592    0.08109923
     atom   15 type  3   force =    -0.02802774    0.07447592    0.08109923
     atom   16 type  3   force =     0.09546341   -0.04779201    0.03646762
     atom   17 type  2   force =     0.39517717    0.18515607    0.69941063
     atom   18 type  4   force =     2.26857599    1.45901971    0.84858515
     atom   19 type  3   force =     0.02819741    0.09677452   -0.03719491
     atom   20 type  3   force =     0.07735309   -0.02761140    0.06753442
     atom   21 type  2   force =     0.63347871    0.42757967    0.18164927
     atom   22 type  4   force =     0.52460070    1.16594858   -2.61808006
     atom   23 type  1   force =    -0.00449778   -0.06222052    0.05712500
     atom   24 type  4   force =     0.16185708   -1.85008812   -2.23345455
     atom   25 type  1   force =    -0.58028064    0.43236107   -0.13286285
     atom   26 type  1   force =     0.04240385    0.03108001    0.05293820
     atom   27 type  4   force =    -2.40411054    0.46618896    1.52932796
     atom   28 type  1   force =     0.17945372   -0.38152622    0.11765258
     atom   29 type  3   force =     0.02802774    0.07447592   -0.08109923
     atom   30 type  3   force =    -0.09546341   -0.04779201   -0.03646762
     atom   31 type  2   force =    -0.39517717    0.18515607   -0.69941063
     atom   32 type  4   force =    -2.26857599    1.45901971   -0.84858515
     atom   33 type  3   force =    -0.02819741    0.09677452    0.03719491
     atom   34 type  3   force =    -0.07735309   -0.02761140   -0.06753442
     atom   35 type  2   force =    -0.63347871    0.42757967   -0.18164927
     atom   36 type  4   force =    -0.52460070    1.16594858    2.61808006
     atom   37 type  1   force =     0.00449778   -0.06222052   -0.05712500
     atom   38 type  4   force =    -0.16185708   -1.85008812    2.23345455
     atom   39 type  1   force =     0.58028064    0.43236107    0.13286285
     atom   40 type  1   force =    -0.04240385    0.03108001   -0.05293820
     atom   41 type  4   force =     2.40411054    0.46618896   -1.52932796
     atom   42 type  1   force =    -0.17945372   -0.38152622   -0.11765258
     atom   43 type  3   force =     0.02802774   -0.07447592   -0.08109923
     atom   44 type  3   force =    -0.09546341    0.04779201   -0.03646762
     atom   45 type  2   force =    -0.39517717   -0.18515607   -0.69941063
     atom   46 type  4   force =    -2.26857599   -1.45901971   -0.84858515
     atom   47 type  3   force =    -0.02819741   -0.09677452    0.03719491
     atom   48 type  3   force =    -0.07735309    0.02761140   -0.06753442
     atom   49 type  2   force =    -0.63347871   -0.42757967   -0.18164927
     atom   50 type  4   force =    -0.52460070   -1.16594858    2.61808006
     atom   51 type  1   force =     0.00449778    0.06222052   -0.05712500
     atom   52 type  4   force =    -0.16185708    1.85008812    2.23345455
     atom   53 type  1   force =     0.58028064   -0.43236107    0.13286285
     atom   54 type  1   force =    -0.04240385   -0.03108001   -0.05293820
     atom   55 type  4   force =     2.40411054   -0.46618896   -1.52932796
     atom   56 type  1   force =    -0.17945372    0.38152622   -0.11765258
     The ionic contribution  to forces
     atom    1 type  1   force =    -3.03478738    0.20905755   -2.00046672
     atom    2 type  4   force =    12.15418357    4.10932969   -5.92000621
     atom    3 type  1   force =    -0.24705301    1.53245550    0.00534198
     atom    4 type  1   force =     2.81932890    2.84312317    2.03314511
     atom    5 type  4   force =    -1.20921679   -8.45279425   11.27736591
     atom    6 type  1   force =    -0.31114216    0.07002407    1.00310917
     atom    7 type  4   force =    -2.01671640    6.16743187   12.36580157
     atom    8 type  2   force =    -4.03220049    3.18986759   -1.21237597
     atom    9 type  3   force =    -2.19807535   -0.16901412   -1.94153157
     atom   10 type  3   force =    -1.21186693    2.72321084    0.66376501
     atom   11 type  4   force =   -10.99673597    6.02005505   -2.45061154
     atom   12 type  2   force =    -2.79325118    0.91244333   -4.66673822
     atom   13 type  3   force =    -2.60546661   -1.07510307   -1.51971326
     atom   14 type  3   force =     0.25416154    2.00835353   -2.52633650
     atom   15 type  3   force =     0.25416154   -2.00835353   -2.52633650
     atom   16 type  3   force =    -2.60546661    1.07510307   -1.51971326
     atom   17 type  2   force =    -2.79325118   -0.91244333   -4.66673822
     atom   18 type  4   force =   -10.99673597   -6.02005505   -2.45061154
     atom   19 type  3   force =    -1.21186693   -2.72321084    0.66376501
     atom   20 type  3   force =    -2.19807535    0.16901412   -1.94153157
     atom   21 type  2   force =    -4.03220049   -3.18986759   -1.21237597
     atom   22 type  4   force =    -2.01671640   -6.16743187   12.36580157
     atom   23 type  1   force =    -0.31114216   -0.07002407    1.00310917
     atom   24 type  4   force =    -1.20921679    8.45279425   11.27736591
     atom   25 type  1   force =     2.81932890   -2.84312317    2.03314511
     atom   26 type  1   force =    -0.24705301   -1.53245550    0.00534198
     atom   27 type  4   force =    12.15418357   -4.10932969   -5.92000621
     atom   28 type  1   force =    -3.03478738   -0.20905755   -2.00046672
     atom   29 type  3   force =    -0.25416154   -2.00835353    2.52633650
     atom   30 type  3   force =     2.60546661    1.07510307    1.51971326
     atom   31 type  2   force =     2.79325118   -0.91244333    4.66673822
     atom   32 type  4   force =    10.99673597   -6.02005505    2.45061154
     atom   33 type  3   force =     1.21186693   -2.72321084   -0.66376501
     atom   34 type  3   force =     2.19807535    0.16901412    1.94153157
     atom   35 type  2   force =     4.03220049   -3.18986759    1.21237597
     atom   36 type  4   force =     2.01671640   -6.16743187  -12.36580157
     atom   37 type  1   force =     0.31114216   -0.07002407   -1.00310917
     atom   38 type  4   force =     1.20921679    8.45279425  -11.27736591
     atom   39 type  1   force =    -2.81932890   -2.84312317   -2.03314511
     atom   40 type  1   force =     0.24705301   -1.53245550   -0.00534198
     atom   41 type  4   force =   -12.15418357   -4.10932969    5.92000621
     atom   42 type  1   force =     3.03478738   -0.20905755    2.00046672
     atom   43 type  3   force =    -0.25416154    2.00835353    2.52633650
     atom   44 type  3   force =     2.60546661   -1.07510307    1.51971326
     atom   45 type  2   force =     2.79325118    0.91244333    4.66673822
     atom   46 type  4   force =    10.99673597    6.02005505    2.45061154
     atom   47 type  3   force =     1.21186693    2.72321084   -0.66376501
     atom   48 type  3   force =     2.19807535   -0.16901412    1.94153157
     atom   49 type  2   force =     4.03220049    3.18986759    1.21237597
     atom   50 type  4   force =     2.01671640    6.16743187  -12.36580157
     atom   51 type  1   force =     0.31114216    0.07002407   -1.00310917
     atom   52 type  4   force =     1.20921679   -8.45279425  -11.27736591
     atom   53 type  1   force =    -2.81932890    2.84312317   -2.03314511
     atom   54 type  1   force =     0.24705301    1.53245550   -0.00534198
     atom   55 type  4   force =   -12.15418357    4.10932969    5.92000621
     atom   56 type  1   force =     3.03478738    0.20905755    2.00046672
     The local contribution  to forces
     atom    1 type  1   force =     2.84638684   -0.58946239    1.87244964
     atom    2 type  4   force =    -9.74308000   -3.64158238    4.38384044
     atom    3 type  1   force =     0.20066897   -1.51008273   -0.06789852
     atom    4 type  1   force =    -2.24198409   -2.41521186   -1.90346192
     atom    5 type  4   force =     1.05206684    6.59164354   -9.03337618
     atom    6 type  1   force =     0.32566156   -0.12717433   -1.06581917
     atom    7 type  4   force =     1.48658380   -4.99266585   -9.73074771
     atom    8 type  2   force =     3.57546019   -2.87360456    1.08638161
     atom    9 type  3   force =     2.00109848    0.08529320    1.75056343
     atom   10 type  3   force =     1.14340035   -2.46623696   -0.55580604
     atom   11 type  4   force =     8.71830655   -4.55494471    1.59495974
     atom   12 type  2   force =     2.53225197   -0.78525863    4.19630794
     atom   13 type  3   force =     2.31389212    0.92568441    1.42327253
     atom   14 type  3   force =    -0.16042481   -1.78032145    2.29033797
     atom   15 type  3   force =    -0.16042481    1.78032145    2.29033797
     atom   16 type  3   force =     2.31389212   -0.92568441    1.42327253
     atom   17 type  2   force =     2.53225197    0.78525863    4.19630794
     atom   18 type  4   force =     8.71830655    4.55494471    1.59495974
     atom   19 type  3   force =     1.14340035    2.46623696   -0.55580604
     atom   20 type  3   force =     2.00109848   -0.08529320    1.75056343
     atom   21 type  2   force =     3.57546019    2.87360456    1.08638161
     atom   22 type  4   force =     1.48658380    4.99266585   -9.73074771
     atom   23 type  1   force =     0.32566156    0.12717433   -1.06581917
     atom   24 type  4   force =     1.05206684   -6.59164354   -9.03337618
     atom   25 type  1   force =    -2.24198409    2.41521186   -1.90346192
     atom   26 type  1   force =     0.20066897    1.51008273   -0.06789852
     atom   27 type  4   force =    -9.74308000    3.64158238    4.38384044
     atom   28 type  1   force =     2.84638684    0.58946239    1.87244964
     atom   29 type  3   force =     0.16042481    1.78032145   -2.29033797
     atom   30 type  3   force =    -2.31389212   -0.92568441   -1.42327253
     atom   31 type  2   force =    -2.53225197    0.78525863   -4.19630794
     atom   32 type  4   force =    -8.71830655    4.55494471   -1.59495974
     atom   33 type  3   force =    -1.14340035    2.46623696    0.55580604
     atom   34 type  3   force =    -2.00109848   -0.08529320   -1.75056343
     atom   35 type  2   force =    -3.57546019    2.87360456   -1.08638161
     atom   36 type  4   force =    -1.48658380    4.99266585    9.73074771
     atom   37 type  1   force =    -0.32566156    0.12717433    1.06581917
     atom   38 type  4   force =    -1.05206684   -6.59164354    9.03337618
     atom   39 type  1   force =     2.24198409    2.41521186    1.90346192
     atom   40 type  1   force =    -0.20066897    1.51008273    0.06789852
     atom   41 type  4   force =     9.74308000    3.64158238   -4.38384044
     atom   42 type  1   force =    -2.84638684    0.58946239   -1.87244964
     atom   43 type  3   force =     0.16042481   -1.78032145   -2.29033797
     atom   44 type  3   force =    -2.31389212    0.92568441   -1.42327253
     atom   45 type  2   force =    -2.53225197   -0.78525863   -4.19630794
     atom   46 type  4   force =    -8.71830655   -4.55494471   -1.59495974
     atom   47 type  3   force =    -1.14340035   -2.46623696    0.55580604
     atom   48 type  3   force =    -2.00109848    0.08529320   -1.75056343
     atom   49 type  2   force =    -3.57546019   -2.87360456   -1.08638161
     atom   50 type  4   force =    -1.48658380   -4.99266585    9.73074771
     atom   51 type  1   force =    -0.32566156   -0.12717433    1.06581917
     atom   52 type  4   force =    -1.05206684    6.59164354    9.03337618
     atom   53 type  1   force =     2.24198409   -2.41521186    1.90346192
     atom   54 type  1   force =    -0.20066897   -1.51008273    0.06789852
     atom   55 type  4   force =     9.74308000   -3.64158238   -4.38384044
     atom   56 type  1   force =    -2.84638684   -0.58946239   -1.87244964
     The core correction contribution to forces
     atom    1 type  1   force =    -0.00311617   -0.00639800   -0.00190438
     atom    2 type  4   force =     0.01876283    0.00357779   -0.01194115
     atom    3 type  1   force =     0.00036548    0.00161674   -0.00001379
     atom    4 type  1   force =     0.00934363    0.00656997    0.00176844
     atom    5 type  4   force =    -0.00131612   -0.01428452    0.01744737
     atom    6 type  1   force =    -0.00108979   -0.00159479   -0.00025466
     atom    7 type  4   force =    -0.00404658    0.00891570    0.02026791
     atom    8 type  2   force =    -0.01348091    0.00955977   -0.00482529
     atom    9 type  3   force =     0.00000000    0.00000000    0.00000000
     atom   10 type  3   force =     0.00000000    0.00000000    0.00000000
     atom   11 type  4   force =    -0.01773156    0.01146350   -0.00673070
     atom   12 type  2   force =    -0.00911788    0.00386049   -0.01573394
     atom   13 type  3   force =     0.00000000    0.00000000    0.00000000
     atom   14 type  3   force =     0.00000000    0.00000000    0.00000000
     atom   15 type  3   force =     0.00000000    0.00000000    0.00000000
     atom   16 type  3   force =     0.00000000    0.00000000    0.00000000
     atom   17 type  2   force =    -0.00911788   -0.00386049   -0.01573394
     atom   18 type  4   force =    -0.01773156   -0.01146350   -0.00673070
     atom   19 type  3   force =     0.00000000    0.00000000    0.00000000
     atom   20 type  3   force =     0.00000000    0.00000000    0.00000000
     atom   21 type  2   force =    -0.01348091   -0.00955977   -0.00482529
     atom   22 type  4   force =    -0.00404658   -0.00891570    0.02026791
     atom   23 type  1   force =    -0.00108979    0.00159479   -0.00025466
     atom   24 type  4   force =    -0.00131612    0.01428452    0.01744737
     atom   25 type  1   force =     0.00934363   -0.00656997    0.00176844
     atom   26 type  1   force =     0.00036548   -0.00161674   -0.00001379
     atom   27 type  4   force =     0.01876283   -0.00357779   -0.01194115
     atom   28 type  1   force =    -0.00311617    0.00639800   -0.00190438
     atom   29 type  3   force =     0.00000000    0.00000000    0.00000000
     atom   30 type  3   force =     0.00000000    0.00000000    0.00000000
     atom   31 type  2   force =     0.00911788   -0.00386049    0.01573394
     atom   32 type  4   force =     0.01773156   -0.01146350    0.00673070
     atom   33 type  3   force =     0.00000000    0.00000000    0.00000000
     atom   34 type  3   force =     0.00000000    0.00000000    0.00000000
     atom   35 type  2   force =     0.01348091   -0.00955977    0.00482529
     atom   36 type  4   force =     0.00404658   -0.00891570   -0.02026791
     atom   37 type  1   force =     0.00108979    0.00159479    0.00025466
     atom   38 type  4   force =     0.00131612    0.01428452   -0.01744737
     atom   39 type  1   force =    -0.00934363   -0.00656997   -0.00176844
     atom   40 type  1   force =    -0.00036548   -0.00161674    0.00001379
     atom   41 type  4   force =    -0.01876283   -0.00357779    0.01194115
     atom   42 type  1   force =     0.00311617    0.00639800    0.00190438
     atom   43 type  3   force =     0.00000000    0.00000000    0.00000000
     atom   44 type  3   force =     0.00000000    0.00000000    0.00000000
     atom   45 type  2   force =     0.00911788    0.00386049    0.01573394
     atom   46 type  4   force =     0.01773156    0.01146350    0.00673070
     atom   47 type  3   force =     0.00000000    0.00000000    0.00000000
     atom   48 type  3   force =     0.00000000    0.00000000    0.00000000
     atom   49 type  2   force =     0.01348091    0.00955977    0.00482529
     atom   50 type  4   force =     0.00404658    0.00891570   -0.02026791
     atom   51 type  1   force =     0.00108979   -0.00159479    0.00025466
     atom   52 type  4   force =     0.00131612   -0.01428452   -0.01744737
     atom   53 type  1   force =    -0.00934363    0.00656997   -0.00176844
     atom   54 type  1   force =    -0.00036548    0.00161674    0.00001379
     atom   55 type  4   force =    -0.01876283    0.00357779    0.01194115
     atom   56 type  1   force =     0.00311617   -0.00639800    0.00190438
     The Hubbard contrib.    to forces
     atom    1 type  1   force =     0.00000000    0.00000000    0.00000000
     atom    2 type  4   force =     0.00000000    0.00000000    0.00000000
     atom    3 type  1   force =     0.00000000    0.00000000    0.00000000
     atom    4 type  1   force =     0.00000000    0.00000000    0.00000000
     atom    5 type  4   force =     0.00000000    0.00000000    0.00000000
     atom    6 type  1   force =     0.00000000    0.00000000    0.00000000
     atom    7 type  4   force =     0.00000000    0.00000000    0.00000000
     atom    8 type  2   force =     0.00000000    0.00000000    0.00000000
     atom    9 type  3   force =     0.00000000    0.00000000    0.00000000
     atom   10 type  3   force =     0.00000000    0.00000000    0.00000000
     atom   11 type  4   force =     0.00000000    0.00000000    0.00000000
     atom   12 type  2   force =     0.00000000    0.00000000    0.00000000
     atom   13 type  3   force =     0.00000000    0.00000000    0.00000000
     atom   14 type  3   force =     0.00000000    0.00000000    0.00000000
     atom   15 type  3   force =     0.00000000    0.00000000    0.00000000
     atom   16 type  3   force =     0.00000000    0.00000000    0.00000000
     atom   17 type  2   force =     0.00000000    0.00000000    0.00000000
     atom   18 type  4   force =     0.00000000    0.00000000    0.00000000
     atom   19 type  3   force =     0.00000000    0.00000000    0.00000000
     atom   20 type  3   force =     0.00000000    0.00000000    0.00000000
     atom   21 type  2   force =     0.00000000    0.00000000    0.00000000
     atom   22 type  4   force =     0.00000000    0.00000000    0.00000000
     atom   23 type  1   force =     0.00000000    0.00000000    0.00000000
     atom   24 type  4   force =     0.00000000    0.00000000    0.00000000
     atom   25 type  1   force =     0.00000000    0.00000000    0.00000000
     atom   26 type  1   force =     0.00000000    0.00000000    0.00000000
     atom   27 type  4   force =     0.00000000    0.00000000    0.00000000
     atom   28 type  1   force =     0.00000000    0.00000000    0.00000000
     atom   29 type  3   force =     0.00000000    0.00000000    0.00000000
     atom   30 type  3   force =     0.00000000    0.00000000    0.00000000
     atom   31 type  2   force =     0.00000000    0.00000000    0.00000000
     atom   32 type  4   force =     0.00000000    0.00000000    0.00000000
     atom   33 type  3   force =     0.00000000    0.00000000    0.00000000
     atom   34 type  3   force =     0.00000000    0.00000000    0.00000000
     atom   35 type  2   force =     0.00000000    0.00000000    0.00000000
     atom   36 type  4   force =     0.00000000    0.00000000    0.00000000
     atom   37 type  1   force =     0.00000000    0.00000000    0.00000000
     atom   38 type  4   force =     0.00000000    0.00000000    0.00000000
     atom   39 type  1   force =     0.00000000    0.00000000    0.00000000
     atom   40 type  1   force =     0.00000000    0.00000000    0.00000000
     atom   41 type  4   force =     0.00000000    0.00000000    0.00000000
     atom   42 type  1   force =     0.00000000    0.00000000    0.00000000
     atom   43 type  3   force =     0.00000000    0.00000000    0.00000000
     atom   44 type  3   force =     0.00000000    0.00000000    0.00000000
     atom   45 type  2   force =     0.00000000    0.00000000    0.00000000
     atom   46 type  4   force =     0.00000000    0.00000000    0.00000000
     atom   47 type  3   force =     0.00000000    0.00000000    0.00000000
     atom   48 type  3   force =     0.00000000    0.00000000    0.00000000
     atom   49 type  2   force =     0.00000000    0.00000000    0.00000000
     atom   50 type  4   force =     0.00000000    0.00000000    0.00000000
     atom   51 type  1   force =     0.00000000    0.00000000    0.00000000
     atom   52 type  4   force =     0.00000000    0.00000000    0.00000000
     atom   53 type  1   force =     0.00000000    0.00000000    0.00000000
     atom   54 type  1   force =     0.00000000    0.00000000    0.00000000
     atom   55 type  4   force =     0.00000000    0.00000000    0.00000000
     atom   56 type  1   force =     0.00000000    0.00000000    0.00000000
     The SCF correction term to forces
     atom    1 type  1   force =     0.00005487   -0.00001199   -0.00003807
     atom    2 type  4   force =     0.00004742    0.00000577   -0.00007804
     atom    3 type  1   force =     0.00019111   -0.00005494   -0.00031637
     atom    4 type  1   force =     0.00005595   -0.00003870    0.00003218
     atom    5 type  4   force =     0.00006123   -0.00010467    0.00011586
     atom    6 type  1   force =     0.00012248   -0.00016272    0.00017412
     atom    7 type  4   force =     0.00001878   -0.00002962   -0.00011358
     atom    8 type  2   force =     0.00001429    0.00000112    0.00000882
     atom    9 type  3   force =     0.00000267    0.00000281    0.00000394
     atom   10 type  3   force =    -0.00000771    0.00001155    0.00000644
     atom   11 type  4   force =     0.00001648    0.00002369    0.00002881
     atom   12 type  2   force =     0.00003822    0.00000618   -0.00001449
     atom   13 type  3   force =     0.00001190   -0.00000175   -0.00000788
     atom   14 type  3   force =     0.00001429   -0.00000149   -0.00000580
     atom   15 type  3   force =     0.00001429    0.00000149   -0.00000580
     atom   16 type  3   force =     0.00001190    0.00000175   -0.00000788
     atom   17 type  2   force =     0.00003822   -0.00000618   -0.00001449
     atom   18 type  4   force =     0.00001648   -0.00002369    0.00002881
     atom   19 type  3   force =    -0.00000771   -0.00001155    0.00000644
     atom   20 type  3   force =     0.00000267   -0.00000281    0.00000394
     atom   21 type  2   force =     0.00001429   -0.00000112    0.00000882
     atom   22 type  4   force =     0.00001878    0.00002962   -0.00011358
     atom   23 type  1   force =     0.00012248    0.00016272    0.00017412
     atom   24 type  4   force =     0.00006123    0.00010467    0.00011586
     atom   25 type  1   force =     0.00005595    0.00003870    0.00003218
     atom   26 type  1   force =     0.00019111    0.00005494   -0.00031637
     atom   27 type  4   force =     0.00004742   -0.00000577   -0.00007804
     atom   28 type  1   force =     0.00005487    0.00001199   -0.00003807
     atom   29 type  3   force =    -0.00001429    0.00000149    0.00000580
     atom   30 type  3   force =    -0.00001190    0.00000175    0.00000788
     atom   31 type  2   force =    -0.00003822   -0.00000618    0.00001449
     atom   32 type  4   force =    -0.00001648   -0.00002369   -0.00002881
     atom   33 type  3   force =     0.00000771   -0.00001155   -0.00000644
     atom   34 type  3   force =    -0.00000267   -0.00000281   -0.00000394
     atom   35 type  2   force =    -0.00001429   -0.00000112   -0.00000882
     atom   36 type  4   force =    -0.00001878    0.00002962    0.00011358
     atom   37 type  1   force =    -0.00012248    0.00016272   -0.00017412
     atom   38 type  4   force =    -0.00006123    0.00010467   -0.00011586
     atom   39 type  1   force =    -0.00005595    0.00003870   -0.00003218
     atom   40 type  1   force =    -0.00019111    0.00005494    0.00031637
     atom   41 type  4   force =    -0.00004742   -0.00000577    0.00007804
     atom   42 type  1   force =    -0.00005487    0.00001199    0.00003807
     atom   43 type  3   force =    -0.00001429   -0.00000149    0.00000580
     atom   44 type  3   force =    -0.00001190   -0.00000175    0.00000788
     atom   45 type  2   force =    -0.00003822    0.00000618    0.00001449
     atom   46 type  4   force =    -0.00001648    0.00002369   -0.00002881
     atom   47 type  3   force =     0.00000771    0.00001155   -0.00000644
     atom   48 type  3   force =    -0.00000267    0.00000281   -0.00000394
     atom   49 type  2   force =    -0.00001429    0.00000112   -0.00000882
     atom   50 type  4   force =    -0.00001878   -0.00002962    0.00011358
     atom   51 type  1   force =    -0.00012248   -0.00016272   -0.00017412
     atom   52 type  4   force =    -0.00006123   -0.00010467   -0.00011586
     atom   53 type  1   force =    -0.00005595   -0.00003870   -0.00003218
     atom   54 type  1   force =    -0.00019111   -0.00005494    0.00031637
     atom   55 type  4   force =    -0.00004742    0.00000577    0.00007804
     atom   56 type  1   force =    -0.00005487   -0.00001199    0.00003807

     Total force =     1.056606     Total SCF correction =     0.001052


     entering subroutine stress ...

          total   stress  (Ry/bohr**3)                   (kbar)     P=  132.36
   0.00091315   0.00000000   0.00011236        134.33      0.00     16.53
   0.00000000   0.00092475   0.00000000          0.00    136.04      0.00
   0.00011236   0.00000000   0.00086136         16.53      0.00    126.71

     kinetic stress (kbar)  15404.00      0.00    328.33
                                0.00  15846.57      0.00
                              328.33      0.00  15374.26

     local   stress (kbar) -15691.72      0.00   7791.65
                                0.00  -8644.77     -0.00
                             7791.65     -0.00 -11816.20

     nonloc. stress (kbar)   1047.73      0.00     10.91
                                0.00   1057.88      0.00
                               10.91      0.00   1017.22

     hartree stress (kbar)   7058.99      0.00  -2844.98
                                0.00   5012.93      0.00
                            -2844.98      0.00   5593.12

     exc-cor stress (kbar)  -2223.25      0.00    -10.80
                                0.00  -2244.29     -0.00
                              -10.80     -0.00  -2229.26

     corecor stress (kbar)  -1155.91     -0.00     -2.75
                               -0.00  -1158.01      0.00
                               -2.75      0.00  -1155.53

     ewald   stress (kbar)  -4305.52     -0.00  -5255.83
                               -0.00  -9734.27      0.00
                            -5255.83      0.00  -6656.90

     hubbard stress (kbar)      0.00      0.00      0.00
                                0.00      0.00      0.00
                                0.00      0.00      0.00

     london  stress (kbar)      0.00      0.00      0.00
                                0.00      0.00      0.00
                                0.00      0.00      0.00

     XDM     stress (kbar)      0.00      0.00      0.00
                                0.00      0.00      0.00
                                0.00      0.00      0.00

     dft-nl  stress (kbar)      0.00      0.00      0.00
                                0.00      0.00      0.00
                                0.00      0.00      0.00

     TS-vdW  stress (kbar)      0.00      0.00      0.00
                                0.00      0.00      0.00
                                0.00      0.00      0.00



     Writing output data file scf.pbe.ec-220.kp-444.HMX-792934.np-8.default-conv-thr.save

     init_run     :   1299.26s CPU   1435.07s WALL (       1 calls)
     electrons    :  37782.34s CPU  54842.71s WALL (       1 calls)
     forces       :    705.88s CPU   1308.59s WALL (       1 calls)
     stress       :   2016.98s CPU   2861.01s WALL (       1 calls)

     Called by init_run:
     wfcinit      :    917.42s CPU   1027.87s WALL (       1 calls)
     potinit      :    126.75s CPU    138.27s WALL (       1 calls)

     Called by electrons:
     c_bands      :  32408.14s CPU  42619.32s WALL (      15 calls)
     sum_band     :   4788.59s CPU   9679.41s WALL (      15 calls)
     v_of_rho     :    142.69s CPU    295.23s WALL (      16 calls)
     v_h          :     11.26s CPU     13.54s WALL (      16 calls)
     v_xc         :    148.73s CPU    309.38s WALL (      18 calls)
     newd         :    394.74s CPU   1596.09s WALL (      16 calls)
     PAW_pot      :     11.98s CPU     52.95s WALL (      16 calls)
     mix_rho      :     45.09s CPU    483.42s WALL (      15 calls)

     Called by c_bands:
     init_us_2    :    149.01s CPU    294.09s WALL (     528 calls)
     cegterg      :  32026.99s CPU  41107.35s WALL (     240 calls)

     Called by sum_band:
     sum_band:bec :      0.30s CPU      0.88s WALL (     240 calls)
     addusdens    :    512.62s CPU   4561.36s WALL (      15 calls)

     Called by *egterg:
     h_psi        :  19146.81s CPU  26275.73s WALL (    1264 calls)
     s_psi        :   3063.17s CPU   3249.76s WALL (    1264 calls)
     g_psi        :     24.44s CPU     31.71s WALL (    1008 calls)
     cdiaghg      :    306.29s CPU    334.96s WALL (    1248 calls)
     cegterg:over :   5118.12s CPU   5954.64s WALL (    1008 calls)
     cegterg:upda :   1953.20s CPU   2029.86s WALL (    1008 calls)
     cegterg:last :    958.74s CPU   1037.55s WALL (     240 calls)

     Called by h_psi:
     h_psi:vloc   :  11153.32s CPU  11864.62s WALL (    1264 calls)
     h_psi:vnl    :   7821.63s CPU  14220.58s WALL (    1264 calls)
     add_vuspsi   :   3095.56s CPU   3354.91s WALL (    1264 calls)

     General routines
     calbec       :   6552.17s CPU  12976.90s WALL (    1584 calls)
     fft          :    210.20s CPU    429.92s WALL (     277 calls)
     ffts         :      7.24s CPU     24.73s WALL (      31 calls)
     fftw         :   7301.54s CPU   8117.18s WALL (  189170 calls)
     interpolate  :     32.12s CPU    186.85s WALL (      31 calls)
     davcio       :      2.44s CPU    270.06s WALL (      16 calls)

     Parallel routines
     fft_scatter  :   3168.35s CPU   4150.56s WALL (  189478 calls)

     PAW routines
     PAW_pot      :     11.98s CPU     52.95s WALL (      16 calls)
     PAW_symme    :      0.29s CPU      1.63s WALL (      31 calls)

     PWSCF        :    11h37m CPU       16h56m WALL


   This run was terminated on:  16:16:34   1Jun2016            

=------------------------------------------------------------------------------=
   JOB DONE.
=------------------------------------------------------------------------------=
