
     Program PWSCF v.5.3.0 (svn rev. 11974) starts on 26May2016 at  0: 4: 3 

     This program is part of the open-source Quantum ESPRESSO suite
     for quantum simulation of materials; please cite
         "P. Giannozzi et al., J. Phys.:Condens. Matter 21 395502 (2009);
          URL http://www.quantum-espresso.org", 
     in publications or presentations arising from this work. More details at
     http://www.quantum-espresso.org/quote

     Parallel version (MPI), running on     8 processors
     R & G space division:  proc/nbgrp/npool/nimage =       8
     Waiting for input...
     Reading input from standard input
Warning: card    &IONS ignored
Warning: card TRUST_RADIUS_MAX=0.2 ignored
Warning: card / ignored
Warning: card     &CELL ignored
Warning: card CELL_DYNAMICS='BFGS' ignored
Warning: card / ignored

     Current dimensions of program PWSCF are:
     Max number of different atomic species (ntypx) = 10
     Max number of k-points (npk) =  40000
     Max angular momentum in pseudopotentials (lmaxx) =  3
               file N.pbe-n-kjpaw_psl.1.0.0.UPF: wavefunction(s)  2S renormalized
               file C.pbe-n-kjpaw_psl.1.0.0.UPF: wavefunction(s)  2S 2P renormalized
               file H.pbe-kjpaw_psl.1.0.0.UPF: wavefunction(s)  1S renormalized
               file O.pbe-n-kjpaw_psl.1.0.0.UPF: wavefunction(s)  2S 2P renormalized

     Subspace diagonalization in iterative solution of the eigenvalue problem:
     a serial algorithm will be used


     Parallelization info
     --------------------
     sticks:   dense  smooth     PW     G-vecs:    dense   smooth      PW
     Min        2513    1005    268               227909    57656    7902
     Max        2514    1006    270               227910    57676    7903
     Sum       20107    8045   2147              1823277   461339   63217


     Title: 
     HMX-scf--kp-444-ec-100-default-conv-thr                                    


     bravais-lattice index     =            0
     lattice parameter (alat)  =       1.8897  a.u.
     unit-cell volume          =    3414.4567 (a.u.)^3
     number of atoms/cell      =           56
     number of atomic types    =            4
     number of electrons       =       224.00
     number of Kohn-Sham states=          112
     kinetic-energy cutoff     =     100.0000  Ry
     charge density cutoff     =    1000.0000  Ry
     convergence threshold     =      1.0E-06
     mixing beta               =       0.7000
     number of iterations used =            8  plain     mixing
     Exchange-correlation      =  SLA  PW   PBX  PBC ( 1  4  3  4 0 0)

     celldm(1)=   1.889726  celldm(2)=   0.000000  celldm(3)=   0.000000
     celldm(4)=   0.000000  celldm(5)=   0.000000  celldm(6)=   0.000000

     crystal axes: (cart. coord. in units of alat)
               a(1) = (   6.525000   0.000000   0.000000 )  
               a(2) = (   0.000000  10.840000   0.000000 )  
               a(3) = (  -1.555911   0.000000   7.153446 )  

     reciprocal axes: (cart. coord. in units 2 pi/alat)
               b(1) = (  0.153257 -0.000000  0.033334 )  
               b(2) = (  0.000000  0.092251 -0.000000 )  
               b(3) = (  0.000000  0.000000  0.139793 )  


     PseudoPot. # 1 for  N read from file:
     /users/majewski/.data/PSEUDOPOTENTIALS/N.pbe-n-kjpaw_psl.1.0.0.UPF
     MD5 check sum: c21df8f53e59d08c3548513d559cdda6
     Pseudo is Projector augmented-wave + core cor, Zval =  5.0
     Generated using "atomic" code by A. Dal Corso  v.5.3.0 svn rev. 11974
     Shape of augmentation charge: PSQ
     Using radial grid of 1085 points,  4 beta functions with: 
                l(1) =   0
                l(2) =   0
                l(3) =   1
                l(4) =   1
     Q(r) pseudized with 0 coefficients 


     PseudoPot. # 2 for  C read from file:
     /users/majewski/.data/PSEUDOPOTENTIALS/C.pbe-n-kjpaw_psl.1.0.0.UPF
     MD5 check sum: 2ba8448e293caca687844dde9a1b88a8
     Pseudo is Projector augmented-wave + core cor, Zval =  4.0
     Generated using "atomic" code by A. Dal Corso  v.5.3.0 svn rev. 11974
     Shape of augmentation charge: PSQ
     Using radial grid of 1073 points,  4 beta functions with: 
                l(1) =   0
                l(2) =   0
                l(3) =   1
                l(4) =   1
     Q(r) pseudized with 0 coefficients 


     PseudoPot. # 3 for  H read from file:
     /users/majewski/.data/PSEUDOPOTENTIALS/H.pbe-kjpaw_psl.1.0.0.UPF
     MD5 check sum: bc0feb48a24907a0b97fa6ee2d589a29
     Pseudo is Projector augmented-wave, Zval =  1.0
     Generated using "atomic" code by A. Dal Corso  v.5.3.0 svn rev. 11974
     Shape of augmentation charge: PSQ
     Using radial grid of  929 points,  2 beta functions with: 
                l(1) =   0
                l(2) =   0
     Q(r) pseudized with 0 coefficients 


     PseudoPot. # 4 for  O read from file:
     /users/majewski/.data/PSEUDOPOTENTIALS/O.pbe-n-kjpaw_psl.1.0.0.UPF
     MD5 check sum: 9c0ade6c043cf4a781bde3908a3a8206
     Pseudo is Projector augmented-wave + core cor, Zval =  6.0
     Generated using "atomic" code by A. Dal Corso  v.5.3.0 svn rev. 11974
     Shape of augmentation charge: PSQ
     Using radial grid of 1095 points,  4 beta functions with: 
                l(1) =   0
                l(2) =   0
                l(3) =   1
                l(4) =   1
     Q(r) pseudized with 0 coefficients 


     atomic species   valence    mass     pseudopotential
        N              5.00    14.00670      N( 1.00)
        C              4.00    12.01100      C( 1.00)
        H              1.00     1.00790      H( 1.00)
        O              6.00    15.99940      O( 1.00)

      2 Sym. Ops., with inversion, found
          (note:  2 additional sym.ops. were found but ignored
           their fractional translations are incommensurate with FFT grid)

                                    s                        frac. trans.

      isym =  1     identity                                     

 cryst.   s( 1) = (     1          0          0      )
                  (     0          1          0      )
                  (     0          0          1      )

 cart.    s( 1) = (  1.0000000  0.0000000  0.0000000 )
                  (  0.0000000  1.0000000  0.0000000 )
                  (  0.0000000  0.0000000  1.0000000 )


      isym =  2     inversion                                    

 cryst.   s( 2) = (    -1          0          0      )
                  (     0         -1          0      )
                  (     0          0         -1      )

 cart.    s( 2) = ( -1.0000000  0.0000000  0.0000000 )
                  (  0.0000000 -1.0000000  0.0000000 )
                  (  0.0000000  0.0000000 -1.0000000 )


   Cartesian axes

     site n.     atom                  positions (alat units)
         1           N   tau(   1) = (   5.6886823   6.7601492   3.2843616  )
         2           O   tau(   2) = (   7.6345424   7.8128216   3.1053824  )
         3           N   tau(   3) = (   6.6234393   7.6327692   3.7848167  )
         4           N   tau(   4) = (   4.4891047   5.7135472   5.0604192  )
         5           O   tau(   5) = (   3.2863227   4.6538288   6.6112148  )
         6           N   tau(   6) = (   3.3004890   5.4507856   5.6779047  )
         7           O   tau(   7) = (   6.3913497   8.1227372   4.8818692  )
         8           C   tau(   8) = (   4.4127564   6.6880632   3.9477722  )
         9           H   tau(   9) = (   3.7158703   6.4064400   3.3034613  )
        10           H   tau(  10) = (   4.1672919   7.5804120   4.2999364  )
        11           O   tau(  11) = (   2.3241568   6.0900204   5.2677976  )
        12           C   tau(  12) = (   5.9475335   6.1238412   1.9976713  )
        13           H   tau(  13) = (   5.1187040   5.7029240   1.7196884  )
        14           H   tau(  14) = (   6.2049380   6.7630760   1.3155187  )
        15           H   tau(  15) = (   3.7203935  -1.3430760  -2.2612043  )
        16           H   tau(  16) = (   2.6341595  -0.2829240  -1.8570346  )
        17           C   tau(  17) = (   3.4629891  -0.7038412  -1.5790517  )
        18           O   tau(  18) = (  -0.1603876  -0.6700204   1.6910746  )
        19           H   tau(  19) = (   1.6827474  -2.1604120   0.7232134  )
        20           H   tau(  20) = (   1.2313258  -0.9864400  -0.2732616  )
        21           C   tau(  21) = (   1.9282119  -1.2680632   0.3710492  )
        22           O   tau(  22) = (   3.9068053  -2.7027372   1.3051462  )
        23           N   tau(  23) = (   0.8159445  -0.0307856   2.1011817  )
        24           O   tau(  24) = (   0.8017783   0.7661712   3.0344918  )
        25           N   tau(  25) = (   2.0045602  -0.2935472   1.4836962  )
        26           N   tau(  26) = (   4.1388948  -2.2127692   0.2080937  )
        27           O   tau(  27) = (   5.1499980  -2.3928216  -0.4713406  )
        28           N   tau(  28) = (   3.2041378  -1.3401492  -0.2923613  )
        29           H   tau(  29) = (   5.2891510   4.0769240   5.8379273  )
        30           H   tau(  30) = (   6.3753850   5.1370760   5.4337576  )
        31           C   tau(  31) = (   5.5465554   4.7161588   5.1557746  )
        32           O   tau(  32) = (   9.1699321   4.7499796   1.8856484  )
        33           H   tau(  33) = (   7.3267971   3.2595880   2.8535096  )
        34           H   tau(  34) = (   7.7782187   4.4335600   3.8499846  )
        35           C   tau(  35) = (   7.0813326   4.1519368   3.2056737  )
        36           O   tau(  36) = (   5.1027392   2.7172628   2.2715768  )
        37           N   tau(  37) = (   8.1936000   5.3892144   1.4755413  )
        38           O   tau(  38) = (   8.2077662   6.1861712   0.5422312  )
        39           N   tau(  39) = (   7.0049842   5.1264528   2.0930268  )
        40           N   tau(  40) = (   4.8706497   3.2072308   3.3686292  )
        41           O   tau(  41) = (   3.8595465   3.0271784   4.0480635  )
        42           N   tau(  42) = (   5.8054066   4.0798508   3.8690843  )
        43           H   tau(  43) = (   2.8046065   1.3430760   2.2612043  )
        44           H   tau(  44) = (   3.8908405   0.2829240   1.8570346  )
        45           C   tau(  45) = (   3.0620109   0.7038412   1.5790517  )
        46           O   tau(  46) = (   6.6853876   0.6700204  -1.6910746  )
        47           H   tau(  47) = (   4.8422526   2.1604120  -0.7232134  )
        48           H   tau(  48) = (   5.2936742   0.9864400   0.2732616  )
        49           C   tau(  49) = (   4.5967881   1.2680632  -0.3710492  )
        50           O   tau(  50) = (   2.6181947   2.7027372  -1.3051462  )
        51           N   tau(  51) = (   5.7090555   0.0307856  -2.1011817  )
        52           O   tau(  52) = (   5.7232217  -0.7661712  -3.0344918  )
        53           N   tau(  53) = (   4.5204398   0.2935472  -1.4836962  )
        54           N   tau(  54) = (   2.3861052   2.2127692  -0.2080937  )
        55           O   tau(  55) = (   1.3750020   2.3928216   0.4713406  )
        56           N   tau(  56) = (   3.3208622   1.3401492   0.2923613  )

   Crystallographic axes

     site n.     atom                  positions (cryst. coord.)
         1           N   tau(   1) = (  0.9813100  0.6236300  0.4591300  )
         2           O   tau(   2) = (  1.2735600  0.7207400  0.4341100  )
         3           N   tau(   3) = (  1.1412500  0.7041300  0.5290900  )
         4           N   tau(   4) = (  0.8566700  0.5270800  0.7074100  )
         5           O   tau(   5) = (  0.7240300  0.4293200  0.9242000  )
         6           N   tau(   6) = (  0.6950900  0.5028400  0.7937300  )
         7           O   tau(   7) = (  1.1422500  0.7493300  0.6824500  )
         8           C   tau(   8) = (  0.8078800  0.6169800  0.5518700  )
         9           H   tau(   9) = (  0.6796000  0.5910000  0.4618000  )
        10           H   tau(  10) = (  0.7820000  0.6993000  0.6011000  )
        11           O   tau(  11) = (  0.5317900  0.5618100  0.7364000  )
        12           C   tau(  12) = (  0.9780900  0.5649300  0.2792600  )
        13           H   tau(  13) = (  0.8418000  0.5261000  0.2404000  )
        14           H   tau(  14) = (  0.9948000  0.6239000  0.1839000  )
        15           H   tau(  15) = (  0.4948000 -0.1239000 -0.3161000  )
        16           H   tau(  16) = (  0.3418000 -0.0261000 -0.2596000  )
        17           C   tau(  17) = (  0.4780900 -0.0649300 -0.2207400  )
        18           O   tau(  18) = (  0.0317900 -0.0618100  0.2364000  )
        19           H   tau(  19) = (  0.2820000 -0.1993000  0.1011000  )
        20           H   tau(  20) = (  0.1796000 -0.0910000 -0.0382000  )
        21           C   tau(  21) = (  0.3078800 -0.1169800  0.0518700  )
        22           O   tau(  22) = (  0.6422500 -0.2493300  0.1824500  )
        23           N   tau(  23) = (  0.1950900 -0.0028400  0.2937300  )
        24           O   tau(  24) = (  0.2240300  0.0706800  0.4242000  )
        25           N   tau(  25) = (  0.3566700 -0.0270800  0.2074100  )
        26           N   tau(  26) = (  0.6412500 -0.2041300  0.0290900  )
        27           O   tau(  27) = (  0.7735600 -0.2207400 -0.0658900  )
        28           N   tau(  28) = (  0.4813100 -0.1236300 -0.0408700  )
        29           H   tau(  29) = (  1.0052000  0.3761000  0.8161000  )
        30           H   tau(  30) = (  1.1582000  0.4739000  0.7596000  )
        31           C   tau(  31) = (  1.0219100  0.4350700  0.7207400  )
        32           O   tau(  32) = (  1.4682100  0.4381900  0.2636000  )
        33           H   tau(  33) = (  1.2180000  0.3007000  0.3989000  )
        34           H   tau(  34) = (  1.3204000  0.4090000  0.5382000  )
        35           C   tau(  35) = (  1.1921200  0.3830200  0.4481300  )
        36           O   tau(  36) = (  0.8577500  0.2506700  0.3175500  )
        37           N   tau(  37) = (  1.3049100  0.4971600  0.2062700  )
        38           O   tau(  38) = (  1.2759700  0.5706800  0.0758000  )
        39           N   tau(  39) = (  1.1433300  0.4729200  0.2925900  )
        40           N   tau(  40) = (  0.8587500  0.2958700  0.4709100  )
        41           O   tau(  41) = (  0.7264400  0.2792600  0.5658900  )
        42           N   tau(  42) = (  1.0186900  0.3763700  0.5408700  )
        43           H   tau(  43) = (  0.5052000  0.1239000  0.3161000  )
        44           H   tau(  44) = (  0.6582000  0.0261000  0.2596000  )
        45           C   tau(  45) = (  0.5219100  0.0649300  0.2207400  )
        46           O   tau(  46) = (  0.9682100  0.0618100 -0.2364000  )
        47           H   tau(  47) = (  0.7180000  0.1993000 -0.1011000  )
        48           H   tau(  48) = (  0.8204000  0.0910000  0.0382000  )
        49           C   tau(  49) = (  0.6921200  0.1169800 -0.0518700  )
        50           O   tau(  50) = (  0.3577500  0.2493300 -0.1824500  )
        51           N   tau(  51) = (  0.8049100  0.0028400 -0.2937300  )
        52           O   tau(  52) = (  0.7759700 -0.0706800 -0.4242000  )
        53           N   tau(  53) = (  0.6433300  0.0270800 -0.2074100  )
        54           N   tau(  54) = (  0.3587500  0.2041300 -0.0290900  )
        55           O   tau(  55) = (  0.2264400  0.2207400  0.0658900  )
        56           N   tau(  56) = (  0.5186900  0.1236300  0.0408700  )

     number of k points=    32
                       cart. coord. in units 2pi/alat
        k(    1) = (   0.0191571   0.0115314   0.0216409), wk =   0.0625000
        k(    2) = (   0.0191571   0.0115314   0.0565891), wk =   0.0625000
        k(    3) = (   0.0191571   0.0115314  -0.0482555), wk =   0.0625000
        k(    4) = (   0.0191571   0.0115314  -0.0133073), wk =   0.0625000
        k(    5) = (   0.0191571   0.0345941   0.0216409), wk =   0.0625000
        k(    6) = (   0.0191571   0.0345941   0.0565891), wk =   0.0625000
        k(    7) = (   0.0191571   0.0345941  -0.0482555), wk =   0.0625000
        k(    8) = (   0.0191571   0.0345941  -0.0133073), wk =   0.0625000
        k(    9) = (   0.0574713   0.0115314   0.0299744), wk =   0.0625000
        k(   10) = (   0.0574713   0.0115314   0.0649226), wk =   0.0625000
        k(   11) = (   0.0574713   0.0115314  -0.0399220), wk =   0.0625000
        k(   12) = (   0.0574713   0.0115314  -0.0049738), wk =   0.0625000
        k(   13) = (   0.0574713   0.0345941   0.0299744), wk =   0.0625000
        k(   14) = (   0.0574713   0.0345941   0.0649226), wk =   0.0625000
        k(   15) = (   0.0574713   0.0345941  -0.0399220), wk =   0.0625000
        k(   16) = (   0.0574713   0.0345941  -0.0049738), wk =   0.0625000
        k(   17) = (  -0.0191571   0.0115314  -0.0216409), wk =   0.0625000
        k(   18) = (  -0.0191571   0.0115314  -0.0565891), wk =   0.0625000
        k(   19) = (  -0.0191571   0.0115314   0.0482555), wk =   0.0625000
        k(   20) = (  -0.0191571   0.0115314   0.0133073), wk =   0.0625000
        k(   21) = (  -0.0191571   0.0345941  -0.0216409), wk =   0.0625000
        k(   22) = (  -0.0191571   0.0345941  -0.0565891), wk =   0.0625000
        k(   23) = (  -0.0191571   0.0345941   0.0482555), wk =   0.0625000
        k(   24) = (  -0.0191571   0.0345941   0.0133073), wk =   0.0625000
        k(   25) = (  -0.0574713   0.0115314  -0.0299744), wk =   0.0625000
        k(   26) = (  -0.0574713   0.0115314  -0.0649226), wk =   0.0625000
        k(   27) = (  -0.0574713   0.0115314   0.0399220), wk =   0.0625000
        k(   28) = (  -0.0574713   0.0115314   0.0049738), wk =   0.0625000
        k(   29) = (  -0.0574713   0.0345941  -0.0299744), wk =   0.0625000
        k(   30) = (  -0.0574713   0.0345941  -0.0649226), wk =   0.0625000
        k(   31) = (  -0.0574713   0.0345941   0.0399220), wk =   0.0625000
        k(   32) = (  -0.0574713   0.0345941   0.0049738), wk =   0.0625000

                       cryst. coord.
        k(    1) = (   0.1250000   0.1250000   0.1250000), wk =   0.0625000
        k(    2) = (   0.1250000   0.1250000   0.3750000), wk =   0.0625000
        k(    3) = (   0.1250000   0.1250000  -0.3750000), wk =   0.0625000
        k(    4) = (   0.1250000   0.1250000  -0.1250000), wk =   0.0625000
        k(    5) = (   0.1250000   0.3750000   0.1250000), wk =   0.0625000
        k(    6) = (   0.1250000   0.3750000   0.3750000), wk =   0.0625000
        k(    7) = (   0.1250000   0.3750000  -0.3750000), wk =   0.0625000
        k(    8) = (   0.1250000   0.3750000  -0.1250000), wk =   0.0625000
        k(    9) = (   0.3750000   0.1250000   0.1250000), wk =   0.0625000
        k(   10) = (   0.3750000   0.1250000   0.3750000), wk =   0.0625000
        k(   11) = (   0.3750000   0.1250000  -0.3750000), wk =   0.0625000
        k(   12) = (   0.3750000   0.1250000  -0.1250000), wk =   0.0625000
        k(   13) = (   0.3750000   0.3750000   0.1250000), wk =   0.0625000
        k(   14) = (   0.3750000   0.3750000   0.3750000), wk =   0.0625000
        k(   15) = (   0.3750000   0.3750000  -0.3750000), wk =   0.0625000
        k(   16) = (   0.3750000   0.3750000  -0.1250000), wk =   0.0625000
        k(   17) = (  -0.1250000   0.1250000  -0.1250000), wk =   0.0625000
        k(   18) = (  -0.1250000   0.1250000  -0.3750000), wk =   0.0625000
        k(   19) = (  -0.1250000   0.1250000   0.3750000), wk =   0.0625000
        k(   20) = (  -0.1250000   0.1250000   0.1250000), wk =   0.0625000
        k(   21) = (  -0.1250000   0.3750000  -0.1250000), wk =   0.0625000
        k(   22) = (  -0.1250000   0.3750000  -0.3750000), wk =   0.0625000
        k(   23) = (  -0.1250000   0.3750000   0.3750000), wk =   0.0625000
        k(   24) = (  -0.1250000   0.3750000   0.1250000), wk =   0.0625000
        k(   25) = (  -0.3750000   0.1250000  -0.1250000), wk =   0.0625000
        k(   26) = (  -0.3750000   0.1250000  -0.3750000), wk =   0.0625000
        k(   27) = (  -0.3750000   0.1250000   0.3750000), wk =   0.0625000
        k(   28) = (  -0.3750000   0.1250000   0.1250000), wk =   0.0625000
        k(   29) = (  -0.3750000   0.3750000  -0.1250000), wk =   0.0625000
        k(   30) = (  -0.3750000   0.3750000  -0.3750000), wk =   0.0625000
        k(   31) = (  -0.3750000   0.3750000   0.3750000), wk =   0.0625000
        k(   32) = (  -0.3750000   0.3750000   0.1250000), wk =   0.0625000

     Dense  grid:  1823277 G-vectors     FFT dimensions: ( 125, 216, 144)

     Smooth grid:   461339 G-vectors     FFT dimensions: (  80, 135,  90)

     Largest allocated arrays     est. size (Mb)     dimensions
        Kohn-Sham Wavefunctions        12.35 Mb     (    7225,  112)
        NL pseudopotentials            38.81 Mb     (    7225,  352)
        Each V/rho on FFT grid          7.42 Mb     (  486000)
        Each G-vector array             1.74 Mb     (  227910)
        G-vector shells                 1.62 Mb     (  212408)
     Largest temporary arrays     est. size (Mb)     dimensions
        Auxiliary wavefunctions        49.39 Mb     (    7225,  448)
        Each subspace H/S matrix        3.06 Mb     (     448,  448)
        Each <psi_i|beta_j> matrix      0.60 Mb     (     352,  112)
        Arrays for rho mixing          59.33 Mb     (  486000,    8)

     Initial potential from superposition of free atoms

     starting charge  223.99937, renormalised to  224.00000
     Starting wfc are  176 randomized atomic wfcs
     Checking if some PAW data can be deallocated... 
       node    0, deallocated PAW data for type:  2
       node    0, deallocated PAW data for type:  3
       node    1, deallocated PAW data for type:  1
       node    2, deallocated PAW data for type:  1
       node    3, deallocated PAW data for type:  2
       node    3, deallocated PAW data for type:  3
       node    4, deallocated PAW data for type:  1
       node    5, deallocated PAW data for type:  2
       node    5, deallocated PAW data for type:  3
       node    6, deallocated PAW data for type:  1
       node    7, deallocated PAW data for type:  2
       node    7, deallocated PAW data for type:  3

     total cpu time spent up to now is      615.6 secs

     per-process dynamical memory:   594.8 Mb

     Self-consistent Calculation

     iteration #  1     ecut=   100.00 Ry     beta=0.70
     Davidson diagonalization with overlap
     ethr =  1.00E-02,  avg # of iterations =  3.0

     total cpu time spent up to now is     2087.8 secs

     total energy              =   -1279.66880296 Ry
     Harris-Foulkes estimate   =   -1283.96628524 Ry
     estimated scf accuracy    <       6.61838125 Ry

     iteration #  2     ecut=   100.00 Ry     beta=0.70
     Davidson diagonalization with overlap
     ethr =  2.95E-03,  avg # of iterations =  4.0

     total cpu time spent up to now is     3796.1 secs

     total energy              =   -1280.30873344 Ry
     Harris-Foulkes estimate   =   -1283.86790310 Ry
     estimated scf accuracy    <       7.23343159 Ry

     iteration #  3     ecut=   100.00 Ry     beta=0.70
     Davidson diagonalization with overlap
     ethr =  2.95E-03,  avg # of iterations =  4.3

     total cpu time spent up to now is     5064.0 secs

     total energy              =   -1281.85065720 Ry
     Harris-Foulkes estimate   =   -1282.09545076 Ry
     estimated scf accuracy    <       0.45636404 Ry

     iteration #  4     ecut=   100.00 Ry     beta=0.70
     Davidson diagonalization with overlap
     ethr =  2.04E-04,  avg # of iterations =  4.9

     total cpu time spent up to now is     6668.2 secs

     total energy              =   -1281.99496350 Ry
     Harris-Foulkes estimate   =   -1282.09327150 Ry
     estimated scf accuracy    <       0.22262428 Ry

     iteration #  5     ecut=   100.00 Ry     beta=0.70
     Davidson diagonalization with overlap
     ethr =  9.94E-05,  avg # of iterations =  4.0

     total cpu time spent up to now is     7911.2 secs

     total energy              =   -1282.03931702 Ry
     Harris-Foulkes estimate   =   -1282.04810541 Ry
     estimated scf accuracy    <       0.02122557 Ry

     iteration #  6     ecut=   100.00 Ry     beta=0.70
     Davidson diagonalization with overlap
     ethr =  9.48E-06,  avg # of iterations =  7.2

     total cpu time spent up to now is     9100.1 secs

     total energy              =   -1282.04293599 Ry
     Harris-Foulkes estimate   =   -1282.04472958 Ry
     estimated scf accuracy    <       0.00403270 Ry

     iteration #  7     ecut=   100.00 Ry     beta=0.70
     Davidson diagonalization with overlap
     ethr =  1.80E-06,  avg # of iterations =  4.4

     total cpu time spent up to now is    10514.6 secs

     total energy              =   -1282.04449025 Ry
     Harris-Foulkes estimate   =   -1282.04469679 Ry
     estimated scf accuracy    <       0.00043401 Ry

     iteration #  8     ecut=   100.00 Ry     beta=0.70
     Davidson diagonalization with overlap
     ethr =  1.94E-07,  avg # of iterations =  5.0

     total cpu time spent up to now is    11925.9 secs

     total energy              =   -1282.04458372 Ry
     Harris-Foulkes estimate   =   -1282.04468445 Ry
     estimated scf accuracy    <       0.00026125 Ry

     iteration #  9     ecut=   100.00 Ry     beta=0.70
     Davidson diagonalization with overlap
     ethr =  1.17E-07,  avg # of iterations =  3.0

     total cpu time spent up to now is    12851.3 secs

     total energy              =   -1282.04455712 Ry
     Harris-Foulkes estimate   =   -1282.04459797 Ry
     estimated scf accuracy    <       0.00007795 Ry

     iteration # 10     ecut=   100.00 Ry     beta=0.70
     Davidson diagonalization with overlap
     ethr =  3.48E-08,  avg # of iterations =  5.0

     total cpu time spent up to now is    14574.8 secs

     total energy              =   -1282.04464993 Ry
     Harris-Foulkes estimate   =   -1282.04469828 Ry
     estimated scf accuracy    <       0.00031953 Ry

     iteration # 11     ecut=   100.00 Ry     beta=0.70
     Davidson diagonalization with overlap
     ethr =  3.48E-08,  avg # of iterations =  1.0

     total cpu time spent up to now is    15445.6 secs

     total energy              =   -1282.04456150 Ry
     Harris-Foulkes estimate   =   -1282.04465118 Ry
     estimated scf accuracy    <       0.00023983 Ry

     iteration # 12     ecut=   100.00 Ry     beta=0.70
     Davidson diagonalization with overlap
     ethr =  3.48E-08,  avg # of iterations =  5.0

     total cpu time spent up to now is    17029.6 secs

     total energy              =   -1282.04463291 Ry
     Harris-Foulkes estimate   =   -1282.04464543 Ry
     estimated scf accuracy    <       0.00004490 Ry

     iteration # 13     ecut=   100.00 Ry     beta=0.70
     Davidson diagonalization with overlap
     ethr =  2.00E-08,  avg # of iterations =  1.0

     total cpu time spent up to now is    17902.7 secs

     total energy              =   -1282.04462604 Ry
     Harris-Foulkes estimate   =   -1282.04463355 Ry
     estimated scf accuracy    <       0.00002498 Ry

     iteration # 14     ecut=   100.00 Ry     beta=0.70
     Davidson diagonalization with overlap
     ethr =  1.12E-08,  avg # of iterations =  5.0

     total cpu time spent up to now is    19215.1 secs

     total energy              =   -1282.04463616 Ry
     Harris-Foulkes estimate   =   -1282.04463858 Ry
     estimated scf accuracy    <       0.00000906 Ry

     iteration # 15     ecut=   100.00 Ry     beta=0.70
     Davidson diagonalization with overlap
     ethr =  4.05E-09,  avg # of iterations =  1.0

     total cpu time spent up to now is    20105.7 secs

     total energy              =   -1282.04463397 Ry
     Harris-Foulkes estimate   =   -1282.04463629 Ry
     estimated scf accuracy    <       0.00000520 Ry

     iteration # 16     ecut=   100.00 Ry     beta=0.70
     Davidson diagonalization with overlap
     ethr =  2.32E-09,  avg # of iterations =  5.0

     total cpu time spent up to now is    21518.9 secs

     total energy              =   -1282.04463669 Ry
     Harris-Foulkes estimate   =   -1282.04463796 Ry
     estimated scf accuracy    <       0.00000568 Ry

     iteration # 17     ecut=   100.00 Ry     beta=0.70
     Davidson diagonalization with overlap
     ethr =  2.32E-09,  avg # of iterations =  1.0

     total cpu time spent up to now is    22394.8 secs

     total energy              =   -1282.04463557 Ry
     Harris-Foulkes estimate   =   -1282.04463673 Ry
     estimated scf accuracy    <       0.00000365 Ry

     iteration # 18     ecut=   100.00 Ry     beta=0.70
     Davidson diagonalization with overlap
     ethr =  1.63E-09,  avg # of iterations =  5.0

     total cpu time spent up to now is    23665.9 secs

     End of self-consistent calculation

          k = 0.0192 0.0115 0.0216 ( 57668 PWs)   bands (ev):

   -23.7603 -23.7356 -23.7246 -23.7146 -23.4326 -23.4211 -23.4202 -23.4179
   -18.9880 -18.9824 -18.9750 -18.9619 -18.6479 -18.6472 -18.6432 -18.6420
   -18.0828 -18.0535 -17.0510 -16.9947 -16.9105 -16.9066 -15.8950 -15.8818
   -11.9539 -11.9251 -11.9154 -11.8230 -11.7582 -11.6773 -11.6035 -11.5816
    -8.7481  -8.7063  -8.1150  -8.0741  -7.4133  -7.3628  -7.2822  -7.2788
    -6.7192  -6.6093  -6.4702  -6.3664  -6.3430  -6.2709  -6.2157  -6.1199
    -5.9841  -5.9483  -5.9254  -5.7883  -5.7484  -5.6653  -5.5905  -5.5543
    -5.4946  -5.4718  -5.4065  -5.3575  -5.0112  -4.8930  -4.7906  -4.7764
    -4.3048  -4.2924  -4.2625  -4.2148  -4.0654  -3.9590  -3.7292  -3.7188
    -3.5518  -3.4127  -3.3512  -3.3054  -3.0291  -2.9900  -2.8985  -2.8770
    -0.6670  -0.6625  -0.1902  -0.1796  -0.0784  -0.0329   0.0292   0.0528
     0.1132   0.1464   0.2969   0.3359   0.3541   0.3867   0.5103   0.5203
     0.5557   0.5894   0.7563   0.8187   0.9055   0.9518   1.0084   1.0199
     1.0646   1.1620   1.1964   1.2590   1.3294   1.4741   1.4912   1.5157

     occupation numbers 
     1.0000   1.0000   1.0000   1.0000   1.0000   1.0000   1.0000   1.0000
     1.0000   1.0000   1.0000   1.0000   1.0000   1.0000   1.0000   1.0000
     1.0000   1.0000   1.0000   1.0000   1.0000   1.0000   1.0000   1.0000
     1.0000   1.0000   1.0000   1.0000   1.0000   1.0000   1.0000   1.0000
     1.0000   1.0000   1.0000   1.0000   1.0000   1.0000   1.0000   1.0000
     1.0000   1.0000   1.0000   1.0000   1.0000   1.0000   1.0000   1.0000
     1.0000   1.0000   1.0000   1.0000   1.0000   1.0000   1.0000   1.0000
     1.0000   1.0000   1.0000   1.0000   1.0000   1.0000   1.0000   1.0000
     1.0000   1.0000   1.0000   1.0000   1.0000   1.0000   1.0000   1.0000
     1.0000   1.0000   1.0000   1.0000   1.0000   1.0000   1.0000   1.0000
     1.0000   1.0000   1.0000   1.0000   1.0000   1.0000   1.0000   1.0000
     1.0000   1.0000   1.0000   1.0000   1.0000   1.0000   1.0000   1.0000
     1.0000   1.0000   1.0000   1.0000   1.0000   1.0000   1.0000   1.0000
     1.0000   1.0000   1.0000   1.0000   1.0000   1.0000   1.0000   1.0000

          k = 0.0192 0.0115 0.0566 ( 57691 PWs)   bands (ev):

   -23.7516 -23.7417 -23.7209 -23.7197 -23.4329 -23.4289 -23.4178 -23.4136
   -18.9864 -18.9812 -18.9760 -18.9654 -18.6546 -18.6536 -18.6376 -18.6356
   -18.0696 -18.0688 -17.0239 -17.0211 -16.9060 -16.9027 -15.8906 -15.8878
   -11.9344 -11.9254 -11.8961 -11.8716 -11.7151 -11.6989 -11.6128 -11.6008
    -8.7285  -8.6894  -8.0972  -8.0691  -7.4233  -7.3661  -7.2614  -7.1729
    -6.7694  -6.6372  -6.4590  -6.4012  -6.3934  -6.2908  -6.2439  -6.2006
    -6.0383  -6.0070  -5.8042  -5.7528  -5.7238  -5.6811  -5.6505  -5.6007
    -5.5473  -5.4898  -5.3247  -5.2727  -5.0154  -4.9344  -4.7833  -4.7451
    -4.2636  -4.2554  -4.1977  -4.1256  -3.9898  -3.9552  -3.8428  -3.8414
    -3.5270  -3.4642  -3.2894  -3.2773  -3.0575  -3.0528  -2.8780  -2.8505
    -0.6292  -0.5972  -0.2025  -0.1875  -0.0909  -0.0637  -0.0022   0.0178
     0.0504   0.0918   0.2070   0.2709   0.3666   0.4273   0.4780   0.4918
     0.6714   0.7337   0.7860   0.8248   0.9110   0.9278   0.9648   1.0225
     1.1145   1.1593   1.2396   1.2606   1.3448   1.4266   1.4917   1.5181

     occupation numbers 
     1.0000   1.0000   1.0000   1.0000   1.0000   1.0000   1.0000   1.0000
     1.0000   1.0000   1.0000   1.0000   1.0000   1.0000   1.0000   1.0000
     1.0000   1.0000   1.0000   1.0000   1.0000   1.0000   1.0000   1.0000
     1.0000   1.0000   1.0000   1.0000   1.0000   1.0000   1.0000   1.0000
     1.0000   1.0000   1.0000   1.0000   1.0000   1.0000   1.0000   1.0000
     1.0000   1.0000   1.0000   1.0000   1.0000   1.0000   1.0000   1.0000
     1.0000   1.0000   1.0000   1.0000   1.0000   1.0000   1.0000   1.0000
     1.0000   1.0000   1.0000   1.0000   1.0000   1.0000   1.0000   1.0000
     1.0000   1.0000   1.0000   1.0000   1.0000   1.0000   1.0000   1.0000
     1.0000   1.0000   1.0000   1.0000   1.0000   1.0000   1.0000   1.0000
     1.0000   1.0000   1.0000   1.0000   1.0000   1.0000   1.0000   1.0000
     1.0000   1.0000   1.0000   1.0000   1.0000   1.0000   1.0000   1.0000
     1.0000   1.0000   1.0000   1.0000   1.0000   1.0000   1.0000   1.0000
     1.0000   1.0000   1.0000   1.0000   1.0000   1.0000   1.0000   1.0000

          k = 0.0192 0.0115-0.0483 ( 57670 PWs)   bands (ev):

   -23.7527 -23.7410 -23.7248 -23.7153 -23.4343 -23.4309 -23.4147 -23.4133
   -18.9834 -18.9822 -18.9721 -18.9716 -18.6558 -18.6551 -18.6360 -18.6343
   -18.0824 -18.0544 -17.0482 -16.9961 -16.9085 -16.9074 -15.8940 -15.8768
   -11.9624 -11.9250 -11.9138 -11.8385 -11.7390 -11.6682 -11.6121 -11.6039
    -8.7373  -8.6473  -8.0833  -8.0786  -7.4178  -7.4003  -7.2709  -7.1462
    -6.7831  -6.6625  -6.4495  -6.4089  -6.3643  -6.3366  -6.2488  -6.2154
    -6.0642  -6.0316  -5.8000  -5.7650  -5.6833  -5.6467  -5.6247  -5.6066
    -5.5434  -5.4727  -5.3306  -5.2687  -5.0121  -4.9316  -4.7714  -4.7366
    -4.2946  -4.2211  -4.1891  -4.1189  -4.0189  -3.9892  -3.8545  -3.7875
    -3.5254  -3.4738  -3.3451  -3.2548  -3.0666  -3.0369  -2.8740  -2.8575
    -0.5568  -0.4965  -0.1899  -0.1789  -0.1646  -0.1264  -0.0426  -0.0260
     0.0400   0.0457   0.1767   0.2647   0.3857   0.4281   0.4323   0.4841
     0.7112   0.7967   0.8250   0.8361   0.8884   0.9763   0.9792   1.0039
     1.1104   1.1660   1.2426   1.3051   1.3536   1.3843   1.4813   1.5043

     occupation numbers 
     1.0000   1.0000   1.0000   1.0000   1.0000   1.0000   1.0000   1.0000
     1.0000   1.0000   1.0000   1.0000   1.0000   1.0000   1.0000   1.0000
     1.0000   1.0000   1.0000   1.0000   1.0000   1.0000   1.0000   1.0000
     1.0000   1.0000   1.0000   1.0000   1.0000   1.0000   1.0000   1.0000
     1.0000   1.0000   1.0000   1.0000   1.0000   1.0000   1.0000   1.0000
     1.0000   1.0000   1.0000   1.0000   1.0000   1.0000   1.0000   1.0000
     1.0000   1.0000   1.0000   1.0000   1.0000   1.0000   1.0000   1.0000
     1.0000   1.0000   1.0000   1.0000   1.0000   1.0000   1.0000   1.0000
     1.0000   1.0000   1.0000   1.0000   1.0000   1.0000   1.0000   1.0000
     1.0000   1.0000   1.0000   1.0000   1.0000   1.0000   1.0000   1.0000
     1.0000   1.0000   1.0000   1.0000   1.0000   1.0000   1.0000   1.0000
     1.0000   1.0000   1.0000   1.0000   1.0000   1.0000   1.0000   1.0000
     1.0000   1.0000   1.0000   1.0000   1.0000   1.0000   1.0000   1.0000
     1.0000   1.0000   1.0000   1.0000   1.0000   1.0000   1.0000   1.0000

          k = 0.0192 0.0115-0.0133 ( 57663 PWs)   bands (ev):

   -23.7608 -23.7359 -23.7258 -23.7126 -23.4347 -23.4249 -23.4168 -23.4155
   -18.9866 -18.9809 -18.9753 -18.9647 -18.6510 -18.6508 -18.6393 -18.6391
   -18.0877 -18.0470 -17.0609 -16.9841 -16.9133 -16.9110 -15.8954 -15.8738
   -11.9776 -11.9315 -11.9111 -11.8154 -11.7589 -11.6652 -11.6022 -11.5839
    -8.7594  -8.6619  -8.1073  -8.0777  -7.4191  -7.3901  -7.3175  -7.2248
    -6.6874  -6.6716  -6.4606  -6.3617  -6.3562  -6.3065  -6.2168  -6.1422
    -6.0377  -5.9822  -5.8457  -5.7906  -5.7108  -5.6684  -5.5779  -5.5405
    -5.5072  -5.4586  -5.3745  -5.3665  -4.9768  -4.9298  -4.7794  -4.7540
    -4.3069  -4.2872  -4.2544  -4.2334  -4.0787  -3.9659  -3.7405  -3.6752
    -3.5780  -3.4262  -3.3623  -3.3019  -3.0389  -2.9824  -2.8894  -2.8865
    -0.6141  -0.5943  -0.1777  -0.1679  -0.0830  -0.0517   0.0124   0.0377
     0.0515   0.0917   0.1990   0.2645   0.3186   0.4064   0.4494   0.5207
     0.6813   0.7205   0.7604   0.8392   0.9008   0.9576   1.0181   1.0347
     1.0671   1.1384   1.2225   1.2852   1.3204   1.4536   1.4748   1.5095

     occupation numbers 
     1.0000   1.0000   1.0000   1.0000   1.0000   1.0000   1.0000   1.0000
     1.0000   1.0000   1.0000   1.0000   1.0000   1.0000   1.0000   1.0000
     1.0000   1.0000   1.0000   1.0000   1.0000   1.0000   1.0000   1.0000
     1.0000   1.0000   1.0000   1.0000   1.0000   1.0000   1.0000   1.0000
     1.0000   1.0000   1.0000   1.0000   1.0000   1.0000   1.0000   1.0000
     1.0000   1.0000   1.0000   1.0000   1.0000   1.0000   1.0000   1.0000
     1.0000   1.0000   1.0000   1.0000   1.0000   1.0000   1.0000   1.0000
     1.0000   1.0000   1.0000   1.0000   1.0000   1.0000   1.0000   1.0000
     1.0000   1.0000   1.0000   1.0000   1.0000   1.0000   1.0000   1.0000
     1.0000   1.0000   1.0000   1.0000   1.0000   1.0000   1.0000   1.0000
     1.0000   1.0000   1.0000   1.0000   1.0000   1.0000   1.0000   1.0000
     1.0000   1.0000   1.0000   1.0000   1.0000   1.0000   1.0000   1.0000
     1.0000   1.0000   1.0000   1.0000   1.0000   1.0000   1.0000   1.0000
     1.0000   1.0000   1.0000   1.0000   1.0000   1.0000   1.0000   1.0000

          k = 0.0192 0.0346 0.0216 ( 57654 PWs)   bands (ev):

   -23.7545 -23.7450 -23.7196 -23.7162 -23.4285 -23.4233 -23.4201 -23.4196
   -18.9877 -18.9861 -18.9691 -18.9644 -18.6477 -18.6475 -18.6428 -18.6423
   -18.0745 -18.0624 -17.0345 -17.0112 -16.9092 -16.9075 -15.8910 -15.8856
   -11.9383 -11.9281 -11.9059 -11.8715 -11.7186 -11.6905 -11.5969 -11.5878
    -8.7371  -8.7197  -8.1038  -8.0868  -7.4031  -7.3819  -7.2722  -7.2706
    -6.6969  -6.6481  -6.4112  -6.3626  -6.3519  -6.3190  -6.1885  -6.1582
    -5.9992  -5.9771  -5.8391  -5.8039  -5.7469  -5.6959  -5.6122  -5.5944
    -5.4544  -5.4388  -5.3825  -5.3570  -4.9626  -4.8897  -4.8443  -4.8135
    -4.3159  -4.3050  -4.2258  -4.2063  -4.0432  -3.9916  -3.7236  -3.7159
    -3.5110  -3.4502  -3.3388  -3.3173  -3.0220  -3.0063  -2.8886  -2.8806
    -0.6618  -0.6594  -0.1799  -0.1674  -0.0981  -0.0635   0.0081   0.0142
     0.1507   0.1610   0.3290   0.3400   0.3766   0.3844   0.5191   0.5312
     0.5402   0.5797   0.7646   0.7973   0.8861   0.9096   1.0270   1.0495
     1.0815   1.1295   1.2245   1.2474   1.3744   1.4349   1.4982   1.5051

     occupation numbers 
     1.0000   1.0000   1.0000   1.0000   1.0000   1.0000   1.0000   1.0000
     1.0000   1.0000   1.0000   1.0000   1.0000   1.0000   1.0000   1.0000
     1.0000   1.0000   1.0000   1.0000   1.0000   1.0000   1.0000   1.0000
     1.0000   1.0000   1.0000   1.0000   1.0000   1.0000   1.0000   1.0000
     1.0000   1.0000   1.0000   1.0000   1.0000   1.0000   1.0000   1.0000
     1.0000   1.0000   1.0000   1.0000   1.0000   1.0000   1.0000   1.0000
     1.0000   1.0000   1.0000   1.0000   1.0000   1.0000   1.0000   1.0000
     1.0000   1.0000   1.0000   1.0000   1.0000   1.0000   1.0000   1.0000
     1.0000   1.0000   1.0000   1.0000   1.0000   1.0000   1.0000   1.0000
     1.0000   1.0000   1.0000   1.0000   1.0000   1.0000   1.0000   1.0000
     1.0000   1.0000   1.0000   1.0000   1.0000   1.0000   1.0000   1.0000
     1.0000   1.0000   1.0000   1.0000   1.0000   1.0000   1.0000   1.0000
     1.0000   1.0000   1.0000   1.0000   1.0000   1.0000   1.0000   1.0000
     1.0000   1.0000   1.0000   1.0000   1.0000   1.0000   1.0000   1.0000

          k = 0.0192 0.0346 0.0566 ( 57674 PWs)   bands (ev):

   -23.7483 -23.7441 -23.7212 -23.7205 -23.4310 -23.4293 -23.4172 -23.4154
   -18.9863 -18.9848 -18.9708 -18.9671 -18.6543 -18.6538 -18.6370 -18.6362
   -18.0693 -18.0690 -17.0236 -17.0224 -16.9045 -16.9031 -15.8898 -15.8886
   -11.9307 -11.9258 -11.8935 -11.8820 -11.7070 -11.6998 -11.6106 -11.6055
    -8.7173  -8.7011  -8.0896  -8.0779  -7.4054  -7.3825  -7.2341  -7.1987
    -6.7495  -6.7015  -6.4321  -6.4143  -6.3496  -6.3035  -6.2500  -6.2265
    -5.9959  -5.9585  -5.8229  -5.7624  -5.7161  -5.6819  -5.6515  -5.6309
    -5.5374  -5.4979  -5.3345  -5.3081  -4.9459  -4.8920  -4.8382  -4.7961
    -4.2356  -4.2189  -4.1931  -4.1585  -3.9865  -3.9727  -3.8434  -3.8417
    -3.5020  -3.4757  -3.2873  -3.2820  -3.0521  -3.0469  -2.8790  -2.8652
    -0.6185  -0.6053  -0.1926  -0.1809  -0.1075  -0.0805  -0.0205  -0.0054
     0.0788   0.0963   0.2603   0.2815   0.3737   0.4037   0.4677   0.4822
     0.6912   0.7178   0.7969   0.8158   0.9158   0.9313   0.9693   1.0053
     1.1141   1.1382   1.2506   1.2586   1.3748   1.4074   1.4976   1.5084

     occupation numbers 
     1.0000   1.0000   1.0000   1.0000   1.0000   1.0000   1.0000   1.0000
     1.0000   1.0000   1.0000   1.0000   1.0000   1.0000   1.0000   1.0000
     1.0000   1.0000   1.0000   1.0000   1.0000   1.0000   1.0000   1.0000
     1.0000   1.0000   1.0000   1.0000   1.0000   1.0000   1.0000   1.0000
     1.0000   1.0000   1.0000   1.0000   1.0000   1.0000   1.0000   1.0000
     1.0000   1.0000   1.0000   1.0000   1.0000   1.0000   1.0000   1.0000
     1.0000   1.0000   1.0000   1.0000   1.0000   1.0000   1.0000   1.0000
     1.0000   1.0000   1.0000   1.0000   1.0000   1.0000   1.0000   1.0000
     1.0000   1.0000   1.0000   1.0000   1.0000   1.0000   1.0000   1.0000
     1.0000   1.0000   1.0000   1.0000   1.0000   1.0000   1.0000   1.0000
     1.0000   1.0000   1.0000   1.0000   1.0000   1.0000   1.0000   1.0000
     1.0000   1.0000   1.0000   1.0000   1.0000   1.0000   1.0000   1.0000
     1.0000   1.0000   1.0000   1.0000   1.0000   1.0000   1.0000   1.0000
     1.0000   1.0000   1.0000   1.0000   1.0000   1.0000   1.0000   1.0000

          k = 0.0192 0.0346-0.0483 ( 57650 PWs)   bands (ev):

   -23.7494 -23.7446 -23.7220 -23.7181 -23.4328 -23.4313 -23.4147 -23.4141
   -18.9842 -18.9837 -18.9707 -18.9705 -18.6556 -18.6553 -18.6355 -18.6348
   -18.0744 -18.0628 -17.0331 -17.0116 -16.9079 -16.9073 -15.8888 -15.8817
   -11.9517 -11.9373 -11.8972 -11.8695 -11.7089 -11.6818 -11.6101 -11.6062
    -8.7121  -8.6749  -8.0837  -8.0813  -7.4086  -7.4026  -7.2379  -7.1850
    -6.7455  -6.6943  -6.4582  -6.4253  -6.3461  -6.3278  -6.2824  -6.2631
    -5.9719  -5.9528  -5.8400  -5.8040  -5.6753  -5.6544  -5.6265  -5.5979
    -5.5387  -5.4981  -5.3215  -5.2887  -4.9806  -4.9250  -4.7981  -4.7627
    -4.2805  -4.2488  -4.1438  -4.1168  -4.0200  -4.0077  -3.8355  -3.8081
    -3.5016  -3.4802  -3.3187  -3.2811  -3.0507  -3.0369  -2.8805  -2.8743
    -0.5401  -0.5155  -0.1913  -0.1854  -0.1318  -0.1123  -0.0676  -0.0470
     0.0224   0.0356   0.2306   0.2657   0.3914   0.4098   0.4431   0.4731
     0.7349   0.7706   0.8456   0.8599   0.8794   0.9259   0.9931   1.0036
     1.1232   1.1405   1.2710   1.2942   1.3599   1.3738   1.4868   1.4969

     occupation numbers 
     1.0000   1.0000   1.0000   1.0000   1.0000   1.0000   1.0000   1.0000
     1.0000   1.0000   1.0000   1.0000   1.0000   1.0000   1.0000   1.0000
     1.0000   1.0000   1.0000   1.0000   1.0000   1.0000   1.0000   1.0000
     1.0000   1.0000   1.0000   1.0000   1.0000   1.0000   1.0000   1.0000
     1.0000   1.0000   1.0000   1.0000   1.0000   1.0000   1.0000   1.0000
     1.0000   1.0000   1.0000   1.0000   1.0000   1.0000   1.0000   1.0000
     1.0000   1.0000   1.0000   1.0000   1.0000   1.0000   1.0000   1.0000
     1.0000   1.0000   1.0000   1.0000   1.0000   1.0000   1.0000   1.0000
     1.0000   1.0000   1.0000   1.0000   1.0000   1.0000   1.0000   1.0000
     1.0000   1.0000   1.0000   1.0000   1.0000   1.0000   1.0000   1.0000
     1.0000   1.0000   1.0000   1.0000   1.0000   1.0000   1.0000   1.0000
     1.0000   1.0000   1.0000   1.0000   1.0000   1.0000   1.0000   1.0000
     1.0000   1.0000   1.0000   1.0000   1.0000   1.0000   1.0000   1.0000
     1.0000   1.0000   1.0000   1.0000   1.0000   1.0000   1.0000   1.0000

          k = 0.0192 0.0346-0.0133 ( 57667 PWs)   bands (ev):

   -23.7551 -23.7457 -23.7195 -23.7150 -23.4313 -23.4271 -23.4168 -23.4164
   -18.9864 -18.9848 -18.9700 -18.9663 -18.6510 -18.6508 -18.6392 -18.6391
   -18.0763 -18.0595 -17.0380 -17.0063 -16.9127 -16.9117 -15.8888 -15.8799
   -11.9602 -11.9411 -11.8988 -11.8665 -11.7132 -11.6813 -11.5960 -11.5884
    -8.7328  -8.6924  -8.1005  -8.0883  -7.4118  -7.3983  -7.2860  -7.2493
    -6.6603  -6.6417  -6.4569  -6.4012  -6.3475  -6.3235  -6.2425  -6.2068
    -5.9725  -5.9463  -5.8529  -5.8234  -5.7005  -5.6770  -5.5855  -5.5821
    -5.4547  -5.4399  -5.3646  -5.3541  -4.9736  -4.9385  -4.7979  -4.7762
    -4.3210  -4.3143  -4.2270  -4.2050  -4.0575  -4.0022  -3.7188  -3.6920
    -3.5213  -3.4570  -3.3487  -3.3226  -3.0257  -3.0026  -2.8880  -2.8869
    -0.6045  -0.5963  -0.1699  -0.1569  -0.0995  -0.0655   0.0031   0.0135
     0.0519   0.0734   0.2333   0.2640   0.3471   0.3869   0.4890   0.5201
     0.6969   0.7302   0.7548   0.8137   0.8729   0.9127   1.0396   1.0444
     1.0936   1.1219   1.2530   1.2772   1.3535   1.4126   1.4854   1.4954

     occupation numbers 
     1.0000   1.0000   1.0000   1.0000   1.0000   1.0000   1.0000   1.0000
     1.0000   1.0000   1.0000   1.0000   1.0000   1.0000   1.0000   1.0000
     1.0000   1.0000   1.0000   1.0000   1.0000   1.0000   1.0000   1.0000
     1.0000   1.0000   1.0000   1.0000   1.0000   1.0000   1.0000   1.0000
     1.0000   1.0000   1.0000   1.0000   1.0000   1.0000   1.0000   1.0000
     1.0000   1.0000   1.0000   1.0000   1.0000   1.0000   1.0000   1.0000
     1.0000   1.0000   1.0000   1.0000   1.0000   1.0000   1.0000   1.0000
     1.0000   1.0000   1.0000   1.0000   1.0000   1.0000   1.0000   1.0000
     1.0000   1.0000   1.0000   1.0000   1.0000   1.0000   1.0000   1.0000
     1.0000   1.0000   1.0000   1.0000   1.0000   1.0000   1.0000   1.0000
     1.0000   1.0000   1.0000   1.0000   1.0000   1.0000   1.0000   1.0000
     1.0000   1.0000   1.0000   1.0000   1.0000   1.0000   1.0000   1.0000
     1.0000   1.0000   1.0000   1.0000   1.0000   1.0000   1.0000   1.0000
     1.0000   1.0000   1.0000   1.0000   1.0000   1.0000   1.0000   1.0000

          k = 0.0575 0.0115 0.0300 ( 57662 PWs)   bands (ev):

   -23.7490 -23.7384 -23.7215 -23.7209 -23.4305 -23.4263 -23.4217 -23.4176
   -18.9859 -18.9815 -18.9766 -18.9663 -18.6516 -18.6502 -18.6409 -18.6393
   -18.0753 -18.0747 -17.0228 -17.0206 -16.9092 -16.9068 -15.8916 -15.8884
   -11.9199 -11.9156 -11.8621 -11.8422 -11.6865 -11.6621 -11.6175 -11.5967
    -8.7491  -8.7132  -8.1148  -8.0896  -7.4120  -7.3728  -7.3507  -7.2914
    -6.8419  -6.7708  -6.5487  -6.4167  -6.3109  -6.2641  -6.1112  -6.0767
    -6.0555  -6.0024  -5.8586  -5.7950  -5.7400  -5.6957  -5.6019  -5.5746
    -5.4863  -5.4464  -5.4012  -5.3794  -5.0161  -4.8979  -4.7750  -4.7718
    -4.2910  -4.2691  -4.2235  -4.1716  -3.8737  -3.8169  -3.6725  -3.6267
    -3.5883  -3.4600  -3.4208  -3.4113  -3.0254  -3.0225  -2.9006  -2.8650
    -0.6152  -0.6058  -0.1694  -0.1601  -0.0766  -0.0555   0.0075   0.0332
     0.0706   0.0995   0.2430   0.2649   0.3329   0.3508   0.4937   0.5131
     0.7008   0.7151   0.7913   0.8353   0.9108   0.9159   1.0116   1.0253
     1.0815   1.1271   1.1533   1.2017   1.4095   1.4451   1.4633   1.5045

     occupation numbers 
     1.0000   1.0000   1.0000   1.0000   1.0000   1.0000   1.0000   1.0000
     1.0000   1.0000   1.0000   1.0000   1.0000   1.0000   1.0000   1.0000
     1.0000   1.0000   1.0000   1.0000   1.0000   1.0000   1.0000   1.0000
     1.0000   1.0000   1.0000   1.0000   1.0000   1.0000   1.0000   1.0000
     1.0000   1.0000   1.0000   1.0000   1.0000   1.0000   1.0000   1.0000
     1.0000   1.0000   1.0000   1.0000   1.0000   1.0000   1.0000   1.0000
     1.0000   1.0000   1.0000   1.0000   1.0000   1.0000   1.0000   1.0000
     1.0000   1.0000   1.0000   1.0000   1.0000   1.0000   1.0000   1.0000
     1.0000   1.0000   1.0000   1.0000   1.0000   1.0000   1.0000   1.0000
     1.0000   1.0000   1.0000   1.0000   1.0000   1.0000   1.0000   1.0000
     1.0000   1.0000   1.0000   1.0000   1.0000   1.0000   1.0000   1.0000
     1.0000   1.0000   1.0000   1.0000   1.0000   1.0000   1.0000   1.0000
     1.0000   1.0000   1.0000   1.0000   1.0000   1.0000   1.0000   1.0000
     1.0000   1.0000   1.0000   1.0000   1.0000   1.0000   1.0000   1.0000

          k = 0.0575 0.0115 0.0649 ( 57673 PWs)   bands (ev):

   -23.7447 -23.7414 -23.7257 -23.7169 -23.4279 -23.4278 -23.4255 -23.4159
   -18.9869 -18.9837 -18.9768 -18.9647 -18.6622 -18.6596 -18.6329 -18.6288
   -18.0914 -18.0646 -17.0448 -16.9955 -16.8990 -16.8953 -15.9087 -15.8868
   -11.9391 -11.9219 -11.8906 -11.8136 -11.6787 -11.6411 -11.6216 -11.5978
    -8.7982  -8.6674  -8.1119  -8.0691  -7.4029  -7.3865  -7.3024  -7.1640
    -6.9518  -6.7166  -6.5527  -6.3536  -6.3327  -6.2985  -6.2800  -6.1663
    -6.1140  -6.0216  -5.8515  -5.8090  -5.7641  -5.6892  -5.6263  -5.5591
    -5.4604  -5.4136  -5.3624  -5.2751  -5.0312  -4.8643  -4.8497  -4.7760
    -4.2336  -4.2197  -4.1542  -4.1147  -3.8308  -3.8144  -3.7585  -3.7350
    -3.6069  -3.4895  -3.4263  -3.3209  -3.0786  -3.0390  -2.8994  -2.8300
    -0.6930  -0.6577  -0.1769  -0.1346  -0.0742  -0.0438   0.0149   0.0541
     0.1077   0.1461   0.3032   0.3327   0.3623   0.3780   0.4568   0.5614
     0.6208   0.6291   0.6858   0.7858   0.9155   0.9433   0.9956   1.0179
     1.1152   1.1514   1.1612   1.1897   1.4221   1.4634   1.4731   1.5212

     occupation numbers 
     1.0000   1.0000   1.0000   1.0000   1.0000   1.0000   1.0000   1.0000
     1.0000   1.0000   1.0000   1.0000   1.0000   1.0000   1.0000   1.0000
     1.0000   1.0000   1.0000   1.0000   1.0000   1.0000   1.0000   1.0000
     1.0000   1.0000   1.0000   1.0000   1.0000   1.0000   1.0000   1.0000
     1.0000   1.0000   1.0000   1.0000   1.0000   1.0000   1.0000   1.0000
     1.0000   1.0000   1.0000   1.0000   1.0000   1.0000   1.0000   1.0000
     1.0000   1.0000   1.0000   1.0000   1.0000   1.0000   1.0000   1.0000
     1.0000   1.0000   1.0000   1.0000   1.0000   1.0000   1.0000   1.0000
     1.0000   1.0000   1.0000   1.0000   1.0000   1.0000   1.0000   1.0000
     1.0000   1.0000   1.0000   1.0000   1.0000   1.0000   1.0000   1.0000
     1.0000   1.0000   1.0000   1.0000   1.0000   1.0000   1.0000   1.0000
     1.0000   1.0000   1.0000   1.0000   1.0000   1.0000   1.0000   1.0000
     1.0000   1.0000   1.0000   1.0000   1.0000   1.0000   1.0000   1.0000
     1.0000   1.0000   1.0000   1.0000   1.0000   1.0000   1.0000   1.0000

          k = 0.0575 0.0115-0.0399 ( 57658 PWs)   bands (ev):

   -23.7464 -23.7403 -23.7273 -23.7146 -23.4315 -23.4305 -23.4207 -23.4143
   -18.9847 -18.9823 -18.9775 -18.9676 -18.6629 -18.6605 -18.6319 -18.6279
   -18.0966 -18.0579 -17.0558 -16.9836 -16.9022 -16.8995 -15.9079 -15.8800
   -11.9504 -11.9287 -11.9059 -11.7909 -11.6957 -11.6234 -11.6149 -11.6025
    -8.7921  -8.6405  -8.1054  -8.0703  -7.4067  -7.3857  -7.3288  -7.1511
    -6.9733  -6.7159  -6.5410  -6.3908  -6.3368  -6.3207  -6.2673  -6.1998
    -6.1158  -6.0385  -5.8360  -5.7833  -5.7082  -5.6982  -5.6271  -5.5782
    -5.4349  -5.4090  -5.3689  -5.2752  -5.0223  -4.8875  -4.8216  -4.7628
    -4.2368  -4.1934  -4.1560  -4.1269  -3.8731  -3.8614  -3.7105  -3.6934
    -3.5580  -3.5230  -3.4794  -3.3238  -3.0831  -3.0359  -2.8948  -2.8361
    -0.6477  -0.5891  -0.1680  -0.1072  -0.0924  -0.0658   0.0072   0.0299
     0.0421   0.0873   0.2393   0.3332   0.3529   0.4034   0.4170   0.4443
     0.6644   0.7299   0.7732   0.7946   0.9162   0.9430   1.0130   1.0302
     1.1043   1.1317   1.1768   1.2469   1.4336   1.4527   1.4586   1.4871

     occupation numbers 
     1.0000   1.0000   1.0000   1.0000   1.0000   1.0000   1.0000   1.0000
     1.0000   1.0000   1.0000   1.0000   1.0000   1.0000   1.0000   1.0000
     1.0000   1.0000   1.0000   1.0000   1.0000   1.0000   1.0000   1.0000
     1.0000   1.0000   1.0000   1.0000   1.0000   1.0000   1.0000   1.0000
     1.0000   1.0000   1.0000   1.0000   1.0000   1.0000   1.0000   1.0000
     1.0000   1.0000   1.0000   1.0000   1.0000   1.0000   1.0000   1.0000
     1.0000   1.0000   1.0000   1.0000   1.0000   1.0000   1.0000   1.0000
     1.0000   1.0000   1.0000   1.0000   1.0000   1.0000   1.0000   1.0000
     1.0000   1.0000   1.0000   1.0000   1.0000   1.0000   1.0000   1.0000
     1.0000   1.0000   1.0000   1.0000   1.0000   1.0000   1.0000   1.0000
     1.0000   1.0000   1.0000   1.0000   1.0000   1.0000   1.0000   1.0000
     1.0000   1.0000   1.0000   1.0000   1.0000   1.0000   1.0000   1.0000
     1.0000   1.0000   1.0000   1.0000   1.0000   1.0000   1.0000   1.0000
     1.0000   1.0000   1.0000   1.0000   1.0000   1.0000   1.0000   1.0000

          k = 0.0575 0.0115-0.0050 ( 57640 PWs)   bands (ev):

   -23.7499 -23.7381 -23.7255 -23.7162 -23.4328 -23.4290 -23.4179 -23.4162
   -18.9831 -18.9818 -18.9730 -18.9726 -18.6536 -18.6526 -18.6385 -18.6371
   -18.0883 -18.0601 -17.0476 -16.9949 -16.9117 -16.9116 -15.8949 -15.8775
   -11.9348 -11.9165 -11.8982 -11.8009 -11.7073 -11.6379 -11.6106 -11.6043
    -8.7583  -8.6703  -8.1018  -8.0979  -7.4030  -7.3958  -7.3824  -7.2657
    -6.8626  -6.7633  -6.5051  -6.4778  -6.3025  -6.2966  -6.1527  -6.1258
    -6.0325  -6.0234  -5.7984  -5.7508  -5.7101  -5.6828  -5.6138  -5.6068
    -5.4663  -5.4466  -5.3934  -5.3825  -4.9751  -4.9517  -4.7530  -4.7491
    -4.2922  -4.2643  -4.2178  -4.1809  -3.8879  -3.8462  -3.6317  -3.6201
    -3.5438  -3.5142  -3.4625  -3.4002  -3.0456  -3.0059  -2.8939  -2.8719
    -0.5557  -0.5081  -0.1757  -0.1615  -0.0897  -0.0789  -0.0520  -0.0490
     0.0545   0.0876   0.2003   0.2734   0.3122   0.3600   0.4621   0.5023
     0.6811   0.7510   0.8558   0.8775   0.9140   0.9442   1.0244   1.0472
     1.0785   1.0947   1.1633   1.2513   1.4266   1.4336   1.4431   1.4651

     occupation numbers 
     1.0000   1.0000   1.0000   1.0000   1.0000   1.0000   1.0000   1.0000
     1.0000   1.0000   1.0000   1.0000   1.0000   1.0000   1.0000   1.0000
     1.0000   1.0000   1.0000   1.0000   1.0000   1.0000   1.0000   1.0000
     1.0000   1.0000   1.0000   1.0000   1.0000   1.0000   1.0000   1.0000
     1.0000   1.0000   1.0000   1.0000   1.0000   1.0000   1.0000   1.0000
     1.0000   1.0000   1.0000   1.0000   1.0000   1.0000   1.0000   1.0000
     1.0000   1.0000   1.0000   1.0000   1.0000   1.0000   1.0000   1.0000
     1.0000   1.0000   1.0000   1.0000   1.0000   1.0000   1.0000   1.0000
     1.0000   1.0000   1.0000   1.0000   1.0000   1.0000   1.0000   1.0000
     1.0000   1.0000   1.0000   1.0000   1.0000   1.0000   1.0000   1.0000
     1.0000   1.0000   1.0000   1.0000   1.0000   1.0000   1.0000   1.0000
     1.0000   1.0000   1.0000   1.0000   1.0000   1.0000   1.0000   1.0000
     1.0000   1.0000   1.0000   1.0000   1.0000   1.0000   1.0000   1.0000
     1.0000   1.0000   1.0000   1.0000   1.0000   1.0000   1.0000   1.0000

          k = 0.0575 0.0346 0.0300 ( 57617 PWs)   bands (ev):

   -23.7456 -23.7411 -23.7219 -23.7214 -23.4282 -23.4265 -23.4214 -23.4197
   -18.9859 -18.9848 -18.9716 -18.9680 -18.6512 -18.6506 -18.6404 -18.6397
   -18.0752 -18.0749 -17.0224 -17.0215 -16.9083 -16.9073 -15.8907 -15.8893
   -11.9190 -11.9172 -11.8544 -11.8460 -11.6815 -11.6712 -11.6112 -11.6025
    -8.7386  -8.7237  -8.1035  -8.0928  -7.3998  -7.3845  -7.3381  -7.3130
    -6.8472  -6.8242  -6.4668  -6.4195  -6.2891  -6.2606  -6.1439  -6.1113
    -6.0402  -6.0111  -5.8295  -5.8037  -5.7309  -5.7083  -5.6065  -5.5786
    -5.4673  -5.4577  -5.3915  -5.3805  -4.9852  -4.9362  -4.7815  -4.7783
    -4.2828  -4.2686  -4.2126  -4.1927  -3.8483  -3.8236  -3.6591  -3.6374
    -3.5545  -3.5006  -3.4189  -3.4112  -3.0244  -3.0213  -2.8957  -2.8798
    -0.6081  -0.6042  -0.1604  -0.1512  -0.1161  -0.0936   0.0303   0.0544
     0.0763   0.0926   0.2525   0.2741   0.3426   0.3589   0.4919   0.5021
     0.7341   0.7369   0.7649   0.7984   0.9036   0.9135   1.0157   1.0371
     1.0885   1.1199   1.1595   1.1817   1.4210   1.4347   1.4772   1.4932

     occupation numbers 
     1.0000   1.0000   1.0000   1.0000   1.0000   1.0000   1.0000   1.0000
     1.0000   1.0000   1.0000   1.0000   1.0000   1.0000   1.0000   1.0000
     1.0000   1.0000   1.0000   1.0000   1.0000   1.0000   1.0000   1.0000
     1.0000   1.0000   1.0000   1.0000   1.0000   1.0000   1.0000   1.0000
     1.0000   1.0000   1.0000   1.0000   1.0000   1.0000   1.0000   1.0000
     1.0000   1.0000   1.0000   1.0000   1.0000   1.0000   1.0000   1.0000
     1.0000   1.0000   1.0000   1.0000   1.0000   1.0000   1.0000   1.0000
     1.0000   1.0000   1.0000   1.0000   1.0000   1.0000   1.0000   1.0000
     1.0000   1.0000   1.0000   1.0000   1.0000   1.0000   1.0000   1.0000
     1.0000   1.0000   1.0000   1.0000   1.0000   1.0000   1.0000   1.0000
     1.0000   1.0000   1.0000   1.0000   1.0000   1.0000   1.0000   1.0000
     1.0000   1.0000   1.0000   1.0000   1.0000   1.0000   1.0000   1.0000
     1.0000   1.0000   1.0000   1.0000   1.0000   1.0000   1.0000   1.0000
     1.0000   1.0000   1.0000   1.0000   1.0000   1.0000   1.0000   1.0000

          k = 0.0575 0.0346 0.0649 ( 57678 PWs)   bands (ev):

   -23.7432 -23.7419 -23.7237 -23.7201 -23.4276 -23.4274 -23.4231 -23.4189
   -18.9873 -18.9864 -18.9714 -18.9669 -18.6614 -18.6603 -18.6317 -18.6300
   -18.0838 -18.0727 -17.0304 -17.0100 -16.8978 -16.8963 -15.9021 -15.8930
   -11.9391 -11.9338 -11.8610 -11.8314 -11.6678 -11.6523 -11.6147 -11.6049
    -8.7612  -8.7072  -8.0976  -8.0797  -7.3774  -7.3682  -7.2965  -7.2331
    -6.9083  -6.8270  -6.4506  -6.3893  -6.3183  -6.3051  -6.2340  -6.1741
    -6.0933  -6.0385  -5.8293  -5.8056  -5.7473  -5.7163  -5.6458  -5.6021
    -5.4554  -5.4365  -5.3246  -5.2896  -4.9910  -4.9187  -4.8293  -4.7970
    -4.2171  -4.1954  -4.1539  -4.1163  -3.8201  -3.8133  -3.7592  -3.7486
    -3.5814  -3.5398  -3.3860  -3.3464  -3.0685  -3.0524  -2.8794  -2.8505
    -0.6784  -0.6642  -0.1630  -0.1435  -0.1063  -0.0954   0.0426   0.0554
     0.1379   0.1525   0.3216   0.3307   0.3777   0.3911   0.4800   0.5301
     0.6002   0.6097   0.7407   0.7976   0.8806   0.9177   1.0059   1.0195
     1.1016   1.1241   1.1857   1.1993   1.4337   1.4502   1.4872   1.5065

     occupation numbers 
     1.0000   1.0000   1.0000   1.0000   1.0000   1.0000   1.0000   1.0000
     1.0000   1.0000   1.0000   1.0000   1.0000   1.0000   1.0000   1.0000
     1.0000   1.0000   1.0000   1.0000   1.0000   1.0000   1.0000   1.0000
     1.0000   1.0000   1.0000   1.0000   1.0000   1.0000   1.0000   1.0000
     1.0000   1.0000   1.0000   1.0000   1.0000   1.0000   1.0000   1.0000
     1.0000   1.0000   1.0000   1.0000   1.0000   1.0000   1.0000   1.0000
     1.0000   1.0000   1.0000   1.0000   1.0000   1.0000   1.0000   1.0000
     1.0000   1.0000   1.0000   1.0000   1.0000   1.0000   1.0000   1.0000
     1.0000   1.0000   1.0000   1.0000   1.0000   1.0000   1.0000   1.0000
     1.0000   1.0000   1.0000   1.0000   1.0000   1.0000   1.0000   1.0000
     1.0000   1.0000   1.0000   1.0000   1.0000   1.0000   1.0000   1.0000
     1.0000   1.0000   1.0000   1.0000   1.0000   1.0000   1.0000   1.0000
     1.0000   1.0000   1.0000   1.0000   1.0000   1.0000   1.0000   1.0000
     1.0000   1.0000   1.0000   1.0000   1.0000   1.0000   1.0000   1.0000

          k = 0.0575 0.0346-0.0399 ( 57635 PWs)   bands (ev):

   -23.7447 -23.7422 -23.7235 -23.7183 -23.4309 -23.4304 -23.4191 -23.4164
   -18.9856 -18.9852 -18.9724 -18.9690 -18.6622 -18.6612 -18.6308 -18.6291
   -18.0857 -18.0697 -17.0345 -17.0046 -16.9015 -16.9003 -15.8994 -15.8879
   -11.9488 -11.9417 -11.8705 -11.8276 -11.6681 -11.6410 -11.6099 -11.6054
    -8.7499  -8.6873  -8.0949  -8.0801  -7.3842  -7.3638  -7.3140  -7.2276
    -6.9155  -6.8246  -6.4494  -6.4049  -6.3382  -6.3132  -6.2813  -6.2253
    -6.0566  -6.0117  -5.8236  -5.7917  -5.7278  -5.7183  -5.6375  -5.6030
    -5.4348  -5.4237  -5.3241  -5.2858  -5.0077  -4.9518  -4.7931  -4.7682
    -4.2373  -4.2201  -4.1205  -4.1027  -3.8656  -3.8609  -3.7081  -3.7017
    -3.5625  -3.5489  -3.4237  -3.3633  -3.0668  -3.0461  -2.8826  -2.8573
    -0.6272  -0.6024  -0.1589  -0.1358  -0.1157  -0.0971   0.0288   0.0388
     0.0703   0.0978   0.2714   0.3082   0.3604   0.3815   0.4245   0.4510
     0.6878   0.7180   0.8038   0.8096   0.9020   0.9137   1.0002   1.0051
     1.1121   1.1329   1.2051   1.2313   1.4373   1.4465   1.4646   1.4778

     occupation numbers 
     1.0000   1.0000   1.0000   1.0000   1.0000   1.0000   1.0000   1.0000
     1.0000   1.0000   1.0000   1.0000   1.0000   1.0000   1.0000   1.0000
     1.0000   1.0000   1.0000   1.0000   1.0000   1.0000   1.0000   1.0000
     1.0000   1.0000   1.0000   1.0000   1.0000   1.0000   1.0000   1.0000
     1.0000   1.0000   1.0000   1.0000   1.0000   1.0000   1.0000   1.0000
     1.0000   1.0000   1.0000   1.0000   1.0000   1.0000   1.0000   1.0000
     1.0000   1.0000   1.0000   1.0000   1.0000   1.0000   1.0000   1.0000
     1.0000   1.0000   1.0000   1.0000   1.0000   1.0000   1.0000   1.0000
     1.0000   1.0000   1.0000   1.0000   1.0000   1.0000   1.0000   1.0000
     1.0000   1.0000   1.0000   1.0000   1.0000   1.0000   1.0000   1.0000
     1.0000   1.0000   1.0000   1.0000   1.0000   1.0000   1.0000   1.0000
     1.0000   1.0000   1.0000   1.0000   1.0000   1.0000   1.0000   1.0000
     1.0000   1.0000   1.0000   1.0000   1.0000   1.0000   1.0000   1.0000
     1.0000   1.0000   1.0000   1.0000   1.0000   1.0000   1.0000   1.0000

          k = 0.0575 0.0346-0.0050 ( 57624 PWs)   bands (ev):

   -23.7467 -23.7419 -23.7226 -23.7188 -23.4312 -23.4296 -23.4179 -23.4171
   -18.9839 -18.9834 -18.9717 -18.9716 -18.6533 -18.6529 -18.6381 -18.6375
   -18.0803 -18.0687 -17.0321 -17.0103 -16.9117 -16.9116 -15.8897 -15.8825
   -11.9315 -11.9256 -11.8706 -11.8336 -11.6818 -11.6554 -11.6078 -11.6047
    -8.7331  -8.6968  -8.0993  -8.0955  -7.3994  -7.3974  -7.3534  -7.3048
    -6.8501  -6.8109  -6.4591  -6.4467  -6.2931  -6.2807  -6.2104  -6.2010
    -5.9827  -5.9754  -5.8057  -5.7811  -5.7072  -5.6963  -5.5916  -5.5874
    -5.4698  -5.4514  -5.3895  -5.3850  -4.9810  -4.9680  -4.7510  -4.7495
    -4.2938  -4.2762  -4.2115  -4.1858  -3.8614  -3.8438  -3.6338  -3.6302
    -3.5181  -3.4939  -3.4691  -3.4297  -3.0314  -3.0136  -2.8959  -2.8877
    -0.5398  -0.5199  -0.1634  -0.1523  -0.1040  -0.0818  -0.0707  -0.0518
     0.0566   0.0791   0.2225   0.2535   0.3387   0.3618   0.4741   0.4965
     0.7124   0.7508   0.8360   0.8621   0.9007   0.9309   1.0334   1.0386
     1.0967   1.1079   1.1797   1.2203   1.4287   1.4300   1.4498   1.4594

     occupation numbers 
     1.0000   1.0000   1.0000   1.0000   1.0000   1.0000   1.0000   1.0000
     1.0000   1.0000   1.0000   1.0000   1.0000   1.0000   1.0000   1.0000
     1.0000   1.0000   1.0000   1.0000   1.0000   1.0000   1.0000   1.0000
     1.0000   1.0000   1.0000   1.0000   1.0000   1.0000   1.0000   1.0000
     1.0000   1.0000   1.0000   1.0000   1.0000   1.0000   1.0000   1.0000
     1.0000   1.0000   1.0000   1.0000   1.0000   1.0000   1.0000   1.0000
     1.0000   1.0000   1.0000   1.0000   1.0000   1.0000   1.0000   1.0000
     1.0000   1.0000   1.0000   1.0000   1.0000   1.0000   1.0000   1.0000
     1.0000   1.0000   1.0000   1.0000   1.0000   1.0000   1.0000   1.0000
     1.0000   1.0000   1.0000   1.0000   1.0000   1.0000   1.0000   1.0000
     1.0000   1.0000   1.0000   1.0000   1.0000   1.0000   1.0000   1.0000
     1.0000   1.0000   1.0000   1.0000   1.0000   1.0000   1.0000   1.0000
     1.0000   1.0000   1.0000   1.0000   1.0000   1.0000   1.0000   1.0000
     1.0000   1.0000   1.0000   1.0000   1.0000   1.0000   1.0000   1.0000

          k =-0.0192 0.0115-0.0216 ( 57668 PWs)   bands (ev):

   -23.7603 -23.7356 -23.7246 -23.7146 -23.4326 -23.4211 -23.4202 -23.4179
   -18.9880 -18.9824 -18.9750 -18.9619 -18.6479 -18.6472 -18.6433 -18.6420
   -18.0828 -18.0535 -17.0510 -16.9947 -16.9105 -16.9066 -15.8950 -15.8818
   -11.9539 -11.9251 -11.9154 -11.8230 -11.7582 -11.6773 -11.6035 -11.5816
    -8.7481  -8.7063  -8.1150  -8.0741  -7.4133  -7.3628  -7.2822  -7.2788
    -6.7192  -6.6093  -6.4702  -6.3664  -6.3429  -6.2709  -6.2156  -6.1199
    -5.9841  -5.9483  -5.9255  -5.7883  -5.7484  -5.6653  -5.5905  -5.5543
    -5.4946  -5.4718  -5.4066  -5.3575  -5.0112  -4.8929  -4.7906  -4.7764
    -4.3047  -4.2924  -4.2626  -4.2149  -4.0654  -3.9590  -3.7293  -3.7187
    -3.5518  -3.4127  -3.3513  -3.3054  -3.0291  -2.9900  -2.8985  -2.8771
    -0.6671  -0.6624  -0.1902  -0.1796  -0.0784  -0.0329   0.0291   0.0527
     0.1133   0.1464   0.2969   0.3359   0.3541   0.3867   0.5102   0.5203
     0.5558   0.5894   0.7564   0.8187   0.9055   0.9518   1.0084   1.0199
     1.0646   1.1620   1.1964   1.2590   1.3294   1.4741   1.4911   1.5158

     occupation numbers 
     1.0000   1.0000   1.0000   1.0000   1.0000   1.0000   1.0000   1.0000
     1.0000   1.0000   1.0000   1.0000   1.0000   1.0000   1.0000   1.0000
     1.0000   1.0000   1.0000   1.0000   1.0000   1.0000   1.0000   1.0000
     1.0000   1.0000   1.0000   1.0000   1.0000   1.0000   1.0000   1.0000
     1.0000   1.0000   1.0000   1.0000   1.0000   1.0000   1.0000   1.0000
     1.0000   1.0000   1.0000   1.0000   1.0000   1.0000   1.0000   1.0000
     1.0000   1.0000   1.0000   1.0000   1.0000   1.0000   1.0000   1.0000
     1.0000   1.0000   1.0000   1.0000   1.0000   1.0000   1.0000   1.0000
     1.0000   1.0000   1.0000   1.0000   1.0000   1.0000   1.0000   1.0000
     1.0000   1.0000   1.0000   1.0000   1.0000   1.0000   1.0000   1.0000
     1.0000   1.0000   1.0000   1.0000   1.0000   1.0000   1.0000   1.0000
     1.0000   1.0000   1.0000   1.0000   1.0000   1.0000   1.0000   1.0000
     1.0000   1.0000   1.0000   1.0000   1.0000   1.0000   1.0000   1.0000
     1.0000   1.0000   1.0000   1.0000   1.0000   1.0000   1.0000   1.0000

          k =-0.0192 0.0115-0.0566 ( 57691 PWs)   bands (ev):

   -23.7516 -23.7417 -23.7209 -23.7197 -23.4329 -23.4289 -23.4178 -23.4136
   -18.9864 -18.9812 -18.9760 -18.9654 -18.6546 -18.6536 -18.6376 -18.6356
   -18.0696 -18.0688 -17.0239 -17.0211 -16.9060 -16.9027 -15.8906 -15.8878
   -11.9344 -11.9254 -11.8961 -11.8716 -11.7151 -11.6989 -11.6128 -11.6008
    -8.7285  -8.6894  -8.0972  -8.0691  -7.4233  -7.3661  -7.2614  -7.1729
    -6.7694  -6.6373  -6.4590  -6.4011  -6.3934  -6.2909  -6.2439  -6.2006
    -6.0383  -6.0071  -5.8042  -5.7528  -5.7238  -5.6810  -5.6505  -5.6008
    -5.5473  -5.4897  -5.3247  -5.2727  -5.0154  -4.9344  -4.7833  -4.7450
    -4.2635  -4.2555  -4.1977  -4.1256  -3.9898  -3.9552  -3.8428  -3.8414
    -3.5270  -3.4642  -3.2894  -3.2773  -3.0574  -3.0528  -2.8780  -2.8505
    -0.6292  -0.5972  -0.2025  -0.1875  -0.0910  -0.0637  -0.0023   0.0178
     0.0504   0.0919   0.2070   0.2709   0.3666   0.4273   0.4780   0.4917
     0.6714   0.7338   0.7860   0.8248   0.9110   0.9278   0.9648   1.0225
     1.1144   1.1593   1.2396   1.2606   1.3448   1.4266   1.4917   1.5181

     occupation numbers 
     1.0000   1.0000   1.0000   1.0000   1.0000   1.0000   1.0000   1.0000
     1.0000   1.0000   1.0000   1.0000   1.0000   1.0000   1.0000   1.0000
     1.0000   1.0000   1.0000   1.0000   1.0000   1.0000   1.0000   1.0000
     1.0000   1.0000   1.0000   1.0000   1.0000   1.0000   1.0000   1.0000
     1.0000   1.0000   1.0000   1.0000   1.0000   1.0000   1.0000   1.0000
     1.0000   1.0000   1.0000   1.0000   1.0000   1.0000   1.0000   1.0000
     1.0000   1.0000   1.0000   1.0000   1.0000   1.0000   1.0000   1.0000
     1.0000   1.0000   1.0000   1.0000   1.0000   1.0000   1.0000   1.0000
     1.0000   1.0000   1.0000   1.0000   1.0000   1.0000   1.0000   1.0000
     1.0000   1.0000   1.0000   1.0000   1.0000   1.0000   1.0000   1.0000
     1.0000   1.0000   1.0000   1.0000   1.0000   1.0000   1.0000   1.0000
     1.0000   1.0000   1.0000   1.0000   1.0000   1.0000   1.0000   1.0000
     1.0000   1.0000   1.0000   1.0000   1.0000   1.0000   1.0000   1.0000
     1.0000   1.0000   1.0000   1.0000   1.0000   1.0000   1.0000   1.0000

          k =-0.0192 0.0115 0.0483 ( 57670 PWs)   bands (ev):

   -23.7527 -23.7410 -23.7248 -23.7153 -23.4343 -23.4309 -23.4147 -23.4133
   -18.9834 -18.9822 -18.9721 -18.9716 -18.6558 -18.6551 -18.6360 -18.6343
   -18.0824 -18.0544 -17.0482 -16.9961 -16.9085 -16.9074 -15.8940 -15.8768
   -11.9624 -11.9251 -11.9137 -11.8385 -11.7390 -11.6682 -11.6121 -11.6039
    -8.7373  -8.6473  -8.0833  -8.0786  -7.4178  -7.4003  -7.2709  -7.1461
    -6.7831  -6.6625  -6.4496  -6.4088  -6.3642  -6.3368  -6.2488  -6.2154
    -6.0642  -6.0317  -5.8000  -5.7649  -5.6833  -5.6467  -5.6247  -5.6066
    -5.5434  -5.4728  -5.3305  -5.2687  -5.0121  -4.9315  -4.7714  -4.7366
    -4.2946  -4.2211  -4.1891  -4.1189  -4.0188  -3.9893  -3.8545  -3.7875
    -3.5254  -3.4738  -3.3451  -3.2548  -3.0666  -3.0368  -2.8740  -2.8575
    -0.5568  -0.4965  -0.1899  -0.1789  -0.1645  -0.1264  -0.0426  -0.0261
     0.0400   0.0457   0.1767   0.2647   0.3857   0.4282   0.4323   0.4841
     0.7112   0.7968   0.8250   0.8361   0.8884   0.9763   0.9791   1.0040
     1.1105   1.1660   1.2426   1.3051   1.3536   1.3843   1.4812   1.5043

     occupation numbers 
     1.0000   1.0000   1.0000   1.0000   1.0000   1.0000   1.0000   1.0000
     1.0000   1.0000   1.0000   1.0000   1.0000   1.0000   1.0000   1.0000
     1.0000   1.0000   1.0000   1.0000   1.0000   1.0000   1.0000   1.0000
     1.0000   1.0000   1.0000   1.0000   1.0000   1.0000   1.0000   1.0000
     1.0000   1.0000   1.0000   1.0000   1.0000   1.0000   1.0000   1.0000
     1.0000   1.0000   1.0000   1.0000   1.0000   1.0000   1.0000   1.0000
     1.0000   1.0000   1.0000   1.0000   1.0000   1.0000   1.0000   1.0000
     1.0000   1.0000   1.0000   1.0000   1.0000   1.0000   1.0000   1.0000
     1.0000   1.0000   1.0000   1.0000   1.0000   1.0000   1.0000   1.0000
     1.0000   1.0000   1.0000   1.0000   1.0000   1.0000   1.0000   1.0000
     1.0000   1.0000   1.0000   1.0000   1.0000   1.0000   1.0000   1.0000
     1.0000   1.0000   1.0000   1.0000   1.0000   1.0000   1.0000   1.0000
     1.0000   1.0000   1.0000   1.0000   1.0000   1.0000   1.0000   1.0000
     1.0000   1.0000   1.0000   1.0000   1.0000   1.0000   1.0000   1.0000

          k =-0.0192 0.0115 0.0133 ( 57663 PWs)   bands (ev):

   -23.7608 -23.7359 -23.7258 -23.7126 -23.4347 -23.4249 -23.4168 -23.4154
   -18.9866 -18.9809 -18.9753 -18.9647 -18.6510 -18.6508 -18.6392 -18.6391
   -18.0877 -18.0470 -17.0609 -16.9841 -16.9133 -16.9110 -15.8954 -15.8738
   -11.9776 -11.9315 -11.9111 -11.8154 -11.7589 -11.6652 -11.6022 -11.5839
    -8.7594  -8.6619  -8.1073  -8.0777  -7.4191  -7.3901  -7.3175  -7.2248
    -6.6875  -6.6716  -6.4606  -6.3618  -6.3561  -6.3065  -6.2168  -6.1422
    -6.0377  -5.9822  -5.8457  -5.7906  -5.7108  -5.6684  -5.5779  -5.5405
    -5.5073  -5.4586  -5.3745  -5.3664  -4.9769  -4.9298  -4.7794  -4.7540
    -4.3069  -4.2872  -4.2544  -4.2333  -4.0788  -3.9659  -3.7405  -3.6752
    -3.5780  -3.4262  -3.3623  -3.3019  -3.0389  -2.9823  -2.8894  -2.8865
    -0.6141  -0.5943  -0.1777  -0.1679  -0.0830  -0.0517   0.0124   0.0377
     0.0515   0.0917   0.1991   0.2645   0.3186   0.4064   0.4494   0.5207
     0.6813   0.7204   0.7604   0.8392   0.9008   0.9575   1.0181   1.0347
     1.0671   1.1384   1.2225   1.2852   1.3204   1.4535   1.4749   1.5095

     occupation numbers 
     1.0000   1.0000   1.0000   1.0000   1.0000   1.0000   1.0000   1.0000
     1.0000   1.0000   1.0000   1.0000   1.0000   1.0000   1.0000   1.0000
     1.0000   1.0000   1.0000   1.0000   1.0000   1.0000   1.0000   1.0000
     1.0000   1.0000   1.0000   1.0000   1.0000   1.0000   1.0000   1.0000
     1.0000   1.0000   1.0000   1.0000   1.0000   1.0000   1.0000   1.0000
     1.0000   1.0000   1.0000   1.0000   1.0000   1.0000   1.0000   1.0000
     1.0000   1.0000   1.0000   1.0000   1.0000   1.0000   1.0000   1.0000
     1.0000   1.0000   1.0000   1.0000   1.0000   1.0000   1.0000   1.0000
     1.0000   1.0000   1.0000   1.0000   1.0000   1.0000   1.0000   1.0000
     1.0000   1.0000   1.0000   1.0000   1.0000   1.0000   1.0000   1.0000
     1.0000   1.0000   1.0000   1.0000   1.0000   1.0000   1.0000   1.0000
     1.0000   1.0000   1.0000   1.0000   1.0000   1.0000   1.0000   1.0000
     1.0000   1.0000   1.0000   1.0000   1.0000   1.0000   1.0000   1.0000
     1.0000   1.0000   1.0000   1.0000   1.0000   1.0000   1.0000   1.0000

          k =-0.0192 0.0346-0.0216 ( 57654 PWs)   bands (ev):

   -23.7545 -23.7450 -23.7196 -23.7162 -23.4285 -23.4233 -23.4201 -23.4197
   -18.9877 -18.9860 -18.9691 -18.9643 -18.6477 -18.6475 -18.6428 -18.6423
   -18.0745 -18.0624 -17.0345 -17.0112 -16.9092 -16.9075 -15.8910 -15.8856
   -11.9383 -11.9281 -11.9058 -11.8715 -11.7186 -11.6905 -11.5969 -11.5878
    -8.7371  -8.7197  -8.1038  -8.0868  -7.4032  -7.3819  -7.2722  -7.2706
    -6.6970  -6.6481  -6.4112  -6.3626  -6.3519  -6.3190  -6.1885  -6.1581
    -5.9992  -5.9772  -5.8392  -5.8039  -5.7469  -5.6959  -5.6122  -5.5944
    -5.4544  -5.4387  -5.3826  -5.3570  -4.9626  -4.8897  -4.8443  -4.8135
    -4.3158  -4.3050  -4.2259  -4.2063  -4.0432  -3.9916  -3.7236  -3.7158
    -3.5111  -3.4502  -3.3388  -3.3173  -3.0220  -3.0063  -2.8886  -2.8806
    -0.6619  -0.6594  -0.1799  -0.1674  -0.0981  -0.0635   0.0082   0.0142
     0.1508   0.1610   0.3290   0.3400   0.3765   0.3844   0.5191   0.5313
     0.5402   0.5797   0.7646   0.7973   0.8861   0.9096   1.0270   1.0494
     1.0814   1.1295   1.2245   1.2473   1.3744   1.4349   1.4981   1.5052

     occupation numbers 
     1.0000   1.0000   1.0000   1.0000   1.0000   1.0000   1.0000   1.0000
     1.0000   1.0000   1.0000   1.0000   1.0000   1.0000   1.0000   1.0000
     1.0000   1.0000   1.0000   1.0000   1.0000   1.0000   1.0000   1.0000
     1.0000   1.0000   1.0000   1.0000   1.0000   1.0000   1.0000   1.0000
     1.0000   1.0000   1.0000   1.0000   1.0000   1.0000   1.0000   1.0000
     1.0000   1.0000   1.0000   1.0000   1.0000   1.0000   1.0000   1.0000
     1.0000   1.0000   1.0000   1.0000   1.0000   1.0000   1.0000   1.0000
     1.0000   1.0000   1.0000   1.0000   1.0000   1.0000   1.0000   1.0000
     1.0000   1.0000   1.0000   1.0000   1.0000   1.0000   1.0000   1.0000
     1.0000   1.0000   1.0000   1.0000   1.0000   1.0000   1.0000   1.0000
     1.0000   1.0000   1.0000   1.0000   1.0000   1.0000   1.0000   1.0000
     1.0000   1.0000   1.0000   1.0000   1.0000   1.0000   1.0000   1.0000
     1.0000   1.0000   1.0000   1.0000   1.0000   1.0000   1.0000   1.0000
     1.0000   1.0000   1.0000   1.0000   1.0000   1.0000   1.0000   1.0000

          k =-0.0192 0.0346-0.0566 ( 57674 PWs)   bands (ev):

   -23.7483 -23.7441 -23.7211 -23.7205 -23.4310 -23.4294 -23.4172 -23.4154
   -18.9863 -18.9848 -18.9708 -18.9671 -18.6543 -18.6538 -18.6370 -18.6362
   -18.0693 -18.0690 -17.0236 -17.0224 -16.9045 -16.9032 -15.8898 -15.8886
   -11.9307 -11.9258 -11.8935 -11.8820 -11.7070 -11.6998 -11.6106 -11.6055
    -8.7174  -8.7011  -8.0896  -8.0779  -7.4055  -7.3824  -7.2341  -7.1987
    -6.7495  -6.7015  -6.4321  -6.4142  -6.3495  -6.3036  -6.2499  -6.2265
    -5.9959  -5.9586  -5.8229  -5.7624  -5.7161  -5.6819  -5.6515  -5.6309
    -5.5374  -5.4978  -5.3345  -5.3081  -4.9459  -4.8920  -4.8383  -4.7961
    -4.2355  -4.2190  -4.1931  -4.1584  -3.9864  -3.9727  -3.8435  -3.8417
    -3.5020  -3.4757  -3.2873  -3.2820  -3.0520  -3.0470  -2.8790  -2.8652
    -0.6185  -0.6053  -0.1926  -0.1809  -0.1075  -0.0805  -0.0206  -0.0054
     0.0789   0.0963   0.2603   0.2814   0.3737   0.4037   0.4678   0.4821
     0.6911   0.7178   0.7969   0.8157   0.9158   0.9313   0.9693   1.0053
     1.1140   1.1383   1.2506   1.2586   1.3748   1.4074   1.4976   1.5084

     occupation numbers 
     1.0000   1.0000   1.0000   1.0000   1.0000   1.0000   1.0000   1.0000
     1.0000   1.0000   1.0000   1.0000   1.0000   1.0000   1.0000   1.0000
     1.0000   1.0000   1.0000   1.0000   1.0000   1.0000   1.0000   1.0000
     1.0000   1.0000   1.0000   1.0000   1.0000   1.0000   1.0000   1.0000
     1.0000   1.0000   1.0000   1.0000   1.0000   1.0000   1.0000   1.0000
     1.0000   1.0000   1.0000   1.0000   1.0000   1.0000   1.0000   1.0000
     1.0000   1.0000   1.0000   1.0000   1.0000   1.0000   1.0000   1.0000
     1.0000   1.0000   1.0000   1.0000   1.0000   1.0000   1.0000   1.0000
     1.0000   1.0000   1.0000   1.0000   1.0000   1.0000   1.0000   1.0000
     1.0000   1.0000   1.0000   1.0000   1.0000   1.0000   1.0000   1.0000
     1.0000   1.0000   1.0000   1.0000   1.0000   1.0000   1.0000   1.0000
     1.0000   1.0000   1.0000   1.0000   1.0000   1.0000   1.0000   1.0000
     1.0000   1.0000   1.0000   1.0000   1.0000   1.0000   1.0000   1.0000
     1.0000   1.0000   1.0000   1.0000   1.0000   1.0000   1.0000   1.0000

          k =-0.0192 0.0346 0.0483 ( 57650 PWs)   bands (ev):

   -23.7494 -23.7446 -23.7220 -23.7181 -23.4328 -23.4313 -23.4148 -23.4141
   -18.9842 -18.9837 -18.9707 -18.9705 -18.6556 -18.6553 -18.6355 -18.6348
   -18.0744 -18.0628 -17.0331 -17.0116 -16.9078 -16.9074 -15.8888 -15.8817
   -11.9517 -11.9373 -11.8972 -11.8695 -11.7089 -11.6818 -11.6100 -11.6063
    -8.7121  -8.6749  -8.0837  -8.0813  -7.4086  -7.4026  -7.2379  -7.1850
    -6.7455  -6.6943  -6.4583  -6.4252  -6.3460  -6.3279  -6.2824  -6.2630
    -5.9719  -5.9528  -5.8399  -5.8040  -5.6753  -5.6544  -5.6265  -5.5979
    -5.5387  -5.4981  -5.3215  -5.2888  -4.9806  -4.9249  -4.7982  -4.7627
    -4.2805  -4.2488  -4.1437  -4.1168  -4.0199  -4.0077  -3.8355  -3.8081
    -3.5016  -3.4802  -3.3187  -3.2811  -3.0507  -3.0369  -2.8805  -2.8743
    -0.5401  -0.5155  -0.1912  -0.1855  -0.1318  -0.1123  -0.0676  -0.0470
     0.0224   0.0356   0.2306   0.2657   0.3914   0.4098   0.4431   0.4730
     0.7348   0.7706   0.8456   0.8599   0.8794   0.9258   0.9930   1.0037
     1.1233   1.1405   1.2711   1.2942   1.3598   1.3737   1.4867   1.4970

     occupation numbers 
     1.0000   1.0000   1.0000   1.0000   1.0000   1.0000   1.0000   1.0000
     1.0000   1.0000   1.0000   1.0000   1.0000   1.0000   1.0000   1.0000
     1.0000   1.0000   1.0000   1.0000   1.0000   1.0000   1.0000   1.0000
     1.0000   1.0000   1.0000   1.0000   1.0000   1.0000   1.0000   1.0000
     1.0000   1.0000   1.0000   1.0000   1.0000   1.0000   1.0000   1.0000
     1.0000   1.0000   1.0000   1.0000   1.0000   1.0000   1.0000   1.0000
     1.0000   1.0000   1.0000   1.0000   1.0000   1.0000   1.0000   1.0000
     1.0000   1.0000   1.0000   1.0000   1.0000   1.0000   1.0000   1.0000
     1.0000   1.0000   1.0000   1.0000   1.0000   1.0000   1.0000   1.0000
     1.0000   1.0000   1.0000   1.0000   1.0000   1.0000   1.0000   1.0000
     1.0000   1.0000   1.0000   1.0000   1.0000   1.0000   1.0000   1.0000
     1.0000   1.0000   1.0000   1.0000   1.0000   1.0000   1.0000   1.0000
     1.0000   1.0000   1.0000   1.0000   1.0000   1.0000   1.0000   1.0000
     1.0000   1.0000   1.0000   1.0000   1.0000   1.0000   1.0000   1.0000

          k =-0.0192 0.0346 0.0133 ( 57667 PWs)   bands (ev):

   -23.7551 -23.7457 -23.7195 -23.7150 -23.4313 -23.4271 -23.4169 -23.4163
   -18.9864 -18.9848 -18.9700 -18.9663 -18.6510 -18.6508 -18.6392 -18.6391
   -18.0763 -18.0595 -17.0381 -17.0063 -16.9127 -16.9117 -15.8888 -15.8799
   -11.9602 -11.9412 -11.8988 -11.8665 -11.7132 -11.6813 -11.5960 -11.5884
    -8.7328  -8.6924  -8.1005  -8.0883  -7.4118  -7.3983  -7.2860  -7.2493
    -6.6604  -6.6417  -6.4569  -6.4012  -6.3475  -6.3234  -6.2426  -6.2068
    -5.9725  -5.9463  -5.8529  -5.8234  -5.7005  -5.6771  -5.5855  -5.5821
    -5.4548  -5.4398  -5.3646  -5.3541  -4.9736  -4.9384  -4.7980  -4.7762
    -4.3211  -4.3143  -4.2270  -4.2050  -4.0576  -4.0022  -3.7188  -3.6920
    -3.5213  -3.4570  -3.3487  -3.3226  -3.0257  -3.0026  -2.8880  -2.8869
[...]
     atom   38 type  4   force =    -1.05215567   -6.59145424    9.03325943
     atom   39 type  1   force =     2.24198367    2.41541005    1.90336719
     atom   40 type  1   force =    -0.20119178    1.51015697    0.06863180
     atom   41 type  4   force =     9.74276916    3.64155141   -4.38350127
     atom   42 type  1   force =    -2.84653719    0.58947879   -1.87226669
     atom   43 type  3   force =     0.16038090   -1.78029723   -2.29028025
     atom   44 type  3   force =    -2.31388315    0.92565779   -1.42322904
     atom   45 type  2   force =    -2.53236077   -0.78526602   -4.19625604
     atom   46 type  4   force =    -8.71840617   -4.55486784   -1.59506542
     atom   47 type  3   force =    -1.14336894   -2.46616288    0.55575152
     atom   48 type  3   force =    -2.00106458    0.08528647   -1.75055703
     atom   49 type  2   force =    -3.57544882   -2.87358886   -1.08646505
     atom   50 type  4   force =    -1.48658125   -4.99265349    9.73086644
     atom   51 type  1   force =    -0.32583182   -0.12739407    1.06549667
     atom   52 type  4   force =    -1.05220485    6.59150489    9.03315884
     atom   53 type  1   force =     2.24195435   -2.41527085    1.90332808
     atom   54 type  1   force =    -0.20100346   -1.51005494    0.06828557
     atom   55 type  4   force =     9.74292164   -3.64151152   -4.38369719
     atom   56 type  1   force =    -2.84650662   -0.58944559   -1.87238728
     The core correction contribution to forces
     atom    1 type  1   force =    -0.00311566   -0.00639700   -0.00190309
     atom    2 type  4   force =     0.01878387    0.00358300   -0.01195404
     atom    3 type  1   force =     0.00034677    0.00160378   -0.00001925
     atom    4 type  1   force =     0.00934385    0.00657101    0.00177167
     atom    5 type  4   force =    -0.00131760   -0.01430155    0.01746698
     atom    6 type  1   force =    -0.00107068   -0.00158998   -0.00026742
     atom    7 type  4   force =    -0.00405300    0.00892635    0.02029348
     atom    8 type  2   force =    -0.01350272    0.00957911   -0.00484012
     atom    9 type  3   force =     0.00000000    0.00000000    0.00000000
     atom   10 type  3   force =     0.00000000    0.00000000    0.00000000
     atom   11 type  4   force =    -0.01775227    0.01147769   -0.00673941
     atom   12 type  2   force =    -0.00913648    0.00386769   -0.01576433
     atom   13 type  3   force =     0.00000000    0.00000000    0.00000000
     atom   14 type  3   force =     0.00000000    0.00000000    0.00000000
     atom   15 type  3   force =     0.00000000    0.00000000    0.00000000
     atom   16 type  3   force =     0.00000000    0.00000000    0.00000000
     atom   17 type  2   force =    -0.00913467   -0.00386748   -0.01576416
     atom   18 type  4   force =    -0.01775221   -0.01147761   -0.00673935
     atom   19 type  3   force =     0.00000000    0.00000000    0.00000000
     atom   20 type  3   force =     0.00000000    0.00000000    0.00000000
     atom   21 type  2   force =    -0.01349943   -0.00957926   -0.00483934
     atom   22 type  4   force =    -0.00405253   -0.00892623    0.02029265
     atom   23 type  1   force =    -0.00107049    0.00159017   -0.00026713
     atom   24 type  4   force =    -0.00131755    0.01430162    0.01746708
     atom   25 type  1   force =     0.00934379   -0.00657111    0.00177172
     atom   26 type  1   force =     0.00034892   -0.00160343   -0.00002193
     atom   27 type  4   force =     0.01878436   -0.00358280   -0.01195476
     atom   28 type  1   force =    -0.00311552    0.00639696   -0.00190344
     atom   29 type  3   force =     0.00000000    0.00000000    0.00000000
     atom   30 type  3   force =     0.00000000    0.00000000    0.00000000
     atom   31 type  2   force =     0.00913648   -0.00386769    0.01576433
     atom   32 type  4   force =     0.01775227   -0.01147769    0.00673941
     atom   33 type  3   force =     0.00000000    0.00000000    0.00000000
     atom   34 type  3   force =     0.00000000    0.00000000    0.00000000
     atom   35 type  2   force =     0.01350272   -0.00957911    0.00484012
     atom   36 type  4   force =     0.00405300   -0.00892635   -0.02029348
     atom   37 type  1   force =     0.00107068    0.00158998    0.00026742
     atom   38 type  4   force =     0.00131760    0.01430155   -0.01746698
     atom   39 type  1   force =    -0.00934385   -0.00657101   -0.00177167
     atom   40 type  1   force =    -0.00034677   -0.00160378    0.00001925
     atom   41 type  4   force =    -0.01878387   -0.00358300    0.01195404
     atom   42 type  1   force =     0.00311566    0.00639700    0.00190309
     atom   43 type  3   force =     0.00000000    0.00000000    0.00000000
     atom   44 type  3   force =     0.00000000    0.00000000    0.00000000
     atom   45 type  2   force =     0.00913467    0.00386748    0.01576416
     atom   46 type  4   force =     0.01775221    0.01147761    0.00673935
     atom   47 type  3   force =     0.00000000    0.00000000    0.00000000
     atom   48 type  3   force =     0.00000000    0.00000000    0.00000000
     atom   49 type  2   force =     0.01349943    0.00957926    0.00483934
     atom   50 type  4   force =     0.00405253    0.00892623   -0.02029265
     atom   51 type  1   force =     0.00107049   -0.00159017    0.00026713
     atom   52 type  4   force =     0.00131755   -0.01430162   -0.01746708
     atom   53 type  1   force =    -0.00934379    0.00657111   -0.00177172
     atom   54 type  1   force =    -0.00034892    0.00160343    0.00002193
     atom   55 type  4   force =    -0.01878436    0.00358280    0.01195476
     atom   56 type  1   force =     0.00311552   -0.00639696    0.00190344
     The Hubbard contrib.    to forces
     atom    1 type  1   force =     0.00000000    0.00000000    0.00000000
     atom    2 type  4   force =     0.00000000    0.00000000    0.00000000
     atom    3 type  1   force =     0.00000000    0.00000000    0.00000000
     atom    4 type  1   force =     0.00000000    0.00000000    0.00000000
     atom    5 type  4   force =     0.00000000    0.00000000    0.00000000
     atom    6 type  1   force =     0.00000000    0.00000000    0.00000000
     atom    7 type  4   force =     0.00000000    0.00000000    0.00000000
     atom    8 type  2   force =     0.00000000    0.00000000    0.00000000
     atom    9 type  3   force =     0.00000000    0.00000000    0.00000000
     atom   10 type  3   force =     0.00000000    0.00000000    0.00000000
     atom   11 type  4   force =     0.00000000    0.00000000    0.00000000
     atom   12 type  2   force =     0.00000000    0.00000000    0.00000000
     atom   13 type  3   force =     0.00000000    0.00000000    0.00000000
     atom   14 type  3   force =     0.00000000    0.00000000    0.00000000
     atom   15 type  3   force =     0.00000000    0.00000000    0.00000000
     atom   16 type  3   force =     0.00000000    0.00000000    0.00000000
     atom   17 type  2   force =     0.00000000    0.00000000    0.00000000
     atom   18 type  4   force =     0.00000000    0.00000000    0.00000000
     atom   19 type  3   force =     0.00000000    0.00000000    0.00000000
     atom   20 type  3   force =     0.00000000    0.00000000    0.00000000
     atom   21 type  2   force =     0.00000000    0.00000000    0.00000000
     atom   22 type  4   force =     0.00000000    0.00000000    0.00000000
     atom   23 type  1   force =     0.00000000    0.00000000    0.00000000
     atom   24 type  4   force =     0.00000000    0.00000000    0.00000000
     atom   25 type  1   force =     0.00000000    0.00000000    0.00000000
     atom   26 type  1   force =     0.00000000    0.00000000    0.00000000
     atom   27 type  4   force =     0.00000000    0.00000000    0.00000000
     atom   28 type  1   force =     0.00000000    0.00000000    0.00000000
     atom   29 type  3   force =     0.00000000    0.00000000    0.00000000
     atom   30 type  3   force =     0.00000000    0.00000000    0.00000000
     atom   31 type  2   force =     0.00000000    0.00000000    0.00000000
     atom   32 type  4   force =     0.00000000    0.00000000    0.00000000
     atom   33 type  3   force =     0.00000000    0.00000000    0.00000000
     atom   34 type  3   force =     0.00000000    0.00000000    0.00000000
     atom   35 type  2   force =     0.00000000    0.00000000    0.00000000
     atom   36 type  4   force =     0.00000000    0.00000000    0.00000000
     atom   37 type  1   force =     0.00000000    0.00000000    0.00000000
     atom   38 type  4   force =     0.00000000    0.00000000    0.00000000
     atom   39 type  1   force =     0.00000000    0.00000000    0.00000000
     atom   40 type  1   force =     0.00000000    0.00000000    0.00000000
     atom   41 type  4   force =     0.00000000    0.00000000    0.00000000
     atom   42 type  1   force =     0.00000000    0.00000000    0.00000000
     atom   43 type  3   force =     0.00000000    0.00000000    0.00000000
     atom   44 type  3   force =     0.00000000    0.00000000    0.00000000
     atom   45 type  2   force =     0.00000000    0.00000000    0.00000000
     atom   46 type  4   force =     0.00000000    0.00000000    0.00000000
     atom   47 type  3   force =     0.00000000    0.00000000    0.00000000
     atom   48 type  3   force =     0.00000000    0.00000000    0.00000000
     atom   49 type  2   force =     0.00000000    0.00000000    0.00000000
     atom   50 type  4   force =     0.00000000    0.00000000    0.00000000
     atom   51 type  1   force =     0.00000000    0.00000000    0.00000000
     atom   52 type  4   force =     0.00000000    0.00000000    0.00000000
     atom   53 type  1   force =     0.00000000    0.00000000    0.00000000
     atom   54 type  1   force =     0.00000000    0.00000000    0.00000000
     atom   55 type  4   force =     0.00000000    0.00000000    0.00000000
     atom   56 type  1   force =     0.00000000    0.00000000    0.00000000
     The SCF correction term to forces
     atom    1 type  1   force =    -0.00012191   -0.00001605    0.00014792
     atom    2 type  4   force =    -0.00023434   -0.00000279    0.00027529
     atom    3 type  1   force =    -0.00052620    0.00007958    0.00071639
     atom    4 type  1   force =     0.00007527    0.00016120   -0.00009819
     atom    5 type  4   force =    -0.00006304    0.00006427    0.00003503
     atom    6 type  1   force =    -0.00010882    0.00031326   -0.00024437
     atom    7 type  4   force =    -0.00010261    0.00007317    0.00026720
     atom    8 type  2   force =     0.00008034    0.00000435    0.00002654
     atom    9 type  3   force =     0.00002030   -0.00000499    0.00000551
     atom   10 type  3   force =     0.00003199   -0.00001435    0.00000194
     atom   11 type  4   force =    -0.00010260    0.00010013   -0.00004837
     atom   12 type  2   force =    -0.00007657   -0.00007286    0.00007315
     atom   13 type  3   force =    -0.00000656   -0.00000942    0.00002181
     atom   14 type  3   force =    -0.00002774   -0.00000556    0.00000544
     atom   15 type  3   force =    -0.00002337    0.00000342    0.00002768
     atom   16 type  3   force =    -0.00001148   -0.00001111    0.00002566
     atom   17 type  2   force =    -0.00006727    0.00000836    0.00009892
     atom   18 type  4   force =    -0.00010387    0.00006070   -0.00010027
     atom   19 type  3   force =     0.00001566    0.00003267   -0.00003657
     atom   20 type  3   force =     0.00001166    0.00000093   -0.00001376
     atom   21 type  2   force =     0.00004457    0.00005236   -0.00008183
     atom   22 type  4   force =     0.00001516    0.00005423    0.00002813
     atom   23 type  1   force =    -0.00011348   -0.00013308   -0.00024261
     atom   24 type  4   force =    -0.00011595   -0.00001514   -0.00007759
     atom   25 type  1   force =     0.00004492   -0.00001522   -0.00013908
     atom   26 type  1   force =    -0.00023437    0.00005739    0.00020821
     atom   27 type  4   force =    -0.00008713    0.00006202    0.00005775
     atom   28 type  1   force =    -0.00008807    0.00004711    0.00000922
     atom   29 type  3   force =     0.00002774    0.00000556   -0.00000544
     atom   30 type  3   force =     0.00000656    0.00000942   -0.00002181
     atom   31 type  2   force =     0.00007657    0.00007286   -0.00007315
     atom   32 type  4   force =     0.00010260   -0.00010013    0.00004837
     atom   33 type  3   force =    -0.00003199    0.00001435   -0.00000194
     atom   34 type  3   force =    -0.00002030    0.00000499   -0.00000551
     atom   35 type  2   force =    -0.00008034   -0.00000435   -0.00002654
     atom   36 type  4   force =     0.00010261   -0.00007317   -0.00026720
     atom   37 type  1   force =     0.00010882   -0.00031326    0.00024437
     atom   38 type  4   force =     0.00006304   -0.00006427   -0.00003503
     atom   39 type  1   force =    -0.00007527   -0.00016120    0.00009819
     atom   40 type  1   force =     0.00052620   -0.00007958   -0.00071639
     atom   41 type  4   force =     0.00023434    0.00000279   -0.00027529
     atom   42 type  1   force =     0.00012191    0.00001605   -0.00014792
     atom   43 type  3   force =     0.00002337   -0.00000342   -0.00002768
     atom   44 type  3   force =     0.00001148    0.00001111   -0.00002566
     atom   45 type  2   force =     0.00006727   -0.00000836   -0.00009892
     atom   46 type  4   force =     0.00010387   -0.00006070    0.00010027
     atom   47 type  3   force =    -0.00001566   -0.00003267    0.00003657
     atom   48 type  3   force =    -0.00001166   -0.00000093    0.00001376
     atom   49 type  2   force =    -0.00004457   -0.00005236    0.00008183
     atom   50 type  4   force =    -0.00001516   -0.00005423   -0.00002813
     atom   51 type  1   force =     0.00011348    0.00013308    0.00024261
     atom   52 type  4   force =     0.00011595    0.00001514    0.00007759
     atom   53 type  1   force =    -0.00004492    0.00001522    0.00013908
     atom   54 type  1   force =     0.00023437   -0.00005739   -0.00020821
     atom   55 type  4   force =     0.00008713   -0.00006202   -0.00005775
     atom   56 type  1   force =     0.00008807   -0.00004711   -0.00000922

     Total force =     1.056633     Total SCF correction =     0.001810


     entering subroutine stress ...

          total   stress  (Ry/bohr**3)                   (kbar)     P=  132.22
   0.00091210  -0.00000006   0.00011291        134.17     -0.01     16.61
  -0.00000006   0.00092381   0.00000018         -0.01    135.90      0.03
   0.00011291   0.00000018   0.00086055         16.61      0.03    126.59

     kinetic stress (kbar)  15403.57     -0.00    328.36
                               -0.00  15846.21      0.00
                              328.36      0.00  15373.90

     local   stress (kbar) -15691.85     -0.02   7791.83
                               -0.02  -8645.01      0.07
                             7791.83      0.07 -11816.41

     nonloc. stress (kbar)   1048.33     -0.00     10.92
                               -0.00   1058.44      0.01
                               10.92      0.01   1017.78

     hartree stress (kbar)   7058.91      0.01  -2845.11
                                0.01   5012.96     -0.05
                            -2845.11     -0.05   5593.12

     exc-cor stress (kbar)  -2223.31      0.00    -10.80
                                0.00  -2244.35      0.00
                              -10.80      0.00  -2229.32

     corecor stress (kbar)  -1155.97      0.00     -2.75
                                0.00  -1158.07     -0.00
                               -2.75     -0.00  -1155.59

     ewald   stress (kbar)  -4305.52      0.00  -5255.83
                                0.00  -9734.27      0.00
                            -5255.83      0.00  -6656.90

     hubbard stress (kbar)      0.00      0.00      0.00
                                0.00      0.00      0.00
                                0.00      0.00      0.00

     london  stress (kbar)      0.00      0.00      0.00
                                0.00      0.00      0.00
                                0.00      0.00      0.00

     XDM     stress (kbar)      0.00      0.00      0.00
                                0.00      0.00      0.00
                                0.00      0.00      0.00

     dft-nl  stress (kbar)      0.00      0.00      0.00
                                0.00      0.00      0.00
                                0.00      0.00      0.00

     TS-vdW  stress (kbar)      0.00      0.00      0.00
                                0.00      0.00      0.00
                                0.00      0.00      0.00



     Writing output data file scf.pbe.ec-100.kp-444.HMX-792934.np-8.default-conv-thr.save

     init_run     :    573.19s CPU    614.34s WALL (       1 calls)
     electrons    :  21109.65s CPU  23055.93s WALL (       1 calls)
     forces       :    265.07s CPU    284.38s WALL (       1 calls)
     stress       :   1021.42s CPU   1038.96s WALL (       1 calls)

     Called by init_run:
     wfcinit      :    461.65s CPU    498.30s WALL (       1 calls)
     potinit      :     37.31s CPU     37.72s WALL (       1 calls)

     Called by electrons:
     c_bands      :  18340.42s CPU  19980.35s WALL (      18 calls)
     sum_band     :   2573.76s CPU   2841.64s WALL (      18 calls)
     v_of_rho     :     39.51s CPU     41.63s WALL (      19 calls)
     v_h          :      3.75s CPU      4.01s WALL (      19 calls)
     v_xc         :     39.65s CPU     41.62s WALL (      21 calls)
     newd         :    137.67s CPU    169.38s WALL (      19 calls)
     PAW_pot      :     12.96s CPU     13.53s WALL (      19 calls)
     mix_rho      :      8.99s CPU      9.34s WALL (      18 calls)

     Called by c_bands:
     init_us_2    :     98.08s CPU     99.95s WALL (    1248 calls)
     cegterg      :  18180.37s CPU  19792.01s WALL (     576 calls)

     Called by sum_band:
     sum_band:bec :      0.59s CPU      0.58s WALL (     576 calls)
     addusdens    :    239.12s CPU    379.98s WALL (      18 calls)

     Called by *egterg:
     h_psi        :  10296.39s CPU  11064.48s WALL (    2809 calls)
     s_psi        :   2148.63s CPU   2279.13s WALL (    2809 calls)
     g_psi        :     16.21s CPU     21.00s WALL (    2201 calls)
     cdiaghg      :    673.02s CPU    693.53s WALL (    2777 calls)
     cegterg:over :   2151.55s CPU   2434.29s WALL (    2201 calls)
     cegterg:upda :   1326.02s CPU   1366.91s WALL (    2201 calls)
     cegterg:last :    668.89s CPU    729.52s WALL (     576 calls)

     Called by h_psi:
     h_psi:vloc   :   6005.99s CPU   6405.03s WALL (    2809 calls)
     h_psi:vnl    :   4232.76s CPU   4599.79s WALL (    2809 calls)
     add_vuspsi   :   2152.62s CPU   2321.21s WALL (    2809 calls)

     General routines
     calbec       :   2953.27s CPU   3214.27s WALL (    3545 calls)
     fft          :     46.95s CPU     57.88s WALL (     325 calls)
     ffts         :      0.84s CPU      1.01s WALL (      37 calls)
     fftw         :   4090.98s CPU   4525.67s WALL (  445564 calls)
     interpolate  :      7.30s CPU      8.09s WALL (      37 calls)
     davcio       :      1.66s CPU     63.30s WALL (      32 calls)

     Parallel routines
     fft_scatter  :   1577.44s CPU   2002.36s WALL (  445926 calls)

     PAW routines
     PAW_pot      :     12.96s CPU     13.53s WALL (      19 calls)
     PAW_symme    :      0.06s CPU      0.08s WALL (      37 calls)

     PWSCF        :     6h22m CPU        6h57m WALL


   This run was terminated on:   7: 1:46  26May2016            

=------------------------------------------------------------------------------=
   JOB DONE.
=------------------------------------------------------------------------------=
