
     Program PWSCF v.5.3.0 (svn rev. 11974) starts on  1Jun2016 at  6: 9:50 

     This program is part of the open-source Quantum ESPRESSO suite
     for quantum simulation of materials; please cite
         "P. Giannozzi et al., J. Phys.:Condens. Matter 21 395502 (2009);
          URL http://www.quantum-espresso.org", 
     in publications or presentations arising from this work. More details at
     http://www.quantum-espresso.org/quote

     Parallel version (MPI), running on     8 processors
     R & G space division:  proc/nbgrp/npool/nimage =       8
     Waiting for input...
     Reading input from standard input
Warning: card    &IONS ignored
Warning: card TRUST_RADIUS_MAX=0.2 ignored
Warning: card / ignored
Warning: card     &CELL ignored
Warning: card CELL_DYNAMICS='BFGS' ignored
Warning: card / ignored

     Current dimensions of program PWSCF are:
     Max number of different atomic species (ntypx) = 10
     Max number of k-points (npk) =  40000
     Max angular momentum in pseudopotentials (lmaxx) =  3
               file N.pbe-n-kjpaw_psl.1.0.0.UPF: wavefunction(s)  2S renormalized
               file C.pbe-n-kjpaw_psl.1.0.0.UPF: wavefunction(s)  2S 2P renormalized
               file H.pbe-kjpaw_psl.1.0.0.UPF: wavefunction(s)  1S renormalized
               file O.pbe-n-kjpaw_psl.1.0.0.UPF: wavefunction(s)  2S 2P renormalized

     Subspace diagonalization in iterative solution of the eigenvalue problem:
     a serial algorithm will be used


     Parallelization info
     --------------------
     sticks:   dense  smooth     PW     G-vecs:    dense   smooth      PW
     Min        4572    1828    478               557482   141002   18878
     Max        4573    1829    479               557484   141075   18879
     Sum       36581   14629   3827              4459865  1128233  151031


     Title: 
     HMX-scf--kp-444-ec-180-default-conv-thr                                    


     bravais-lattice index     =            0
     lattice parameter (alat)  =       1.8897  a.u.
     unit-cell volume          =    3458.1628 (a.u.)^3
     number of atoms/cell      =           56
     number of atomic types    =            4
     number of electrons       =       224.00
     number of Kohn-Sham states=          112
     kinetic-energy cutoff     =     180.0000  Ry
     charge density cutoff     =    1800.0000  Ry
     convergence threshold     =      1.0E-06
     mixing beta               =       0.7000
     number of iterations used =            8  plain     mixing
     Exchange-correlation      =  SLA  PW   PBX  PBC ( 1  4  3  4 0 0)

     celldm(1)=   1.889726  celldm(2)=   0.000000  celldm(3)=   0.000000
     celldm(4)=   0.000000  celldm(5)=   0.000000  celldm(6)=   0.000000

     crystal axes: (cart. coord. in units of alat)
               a(1) = (   6.533400   0.000000   0.000000 )  
               a(2) = (   0.000000  10.941900   0.000000 )  
               a(3) = (  -1.587995   0.000000   7.168312 )  

     reciprocal axes: (cart. coord. in units 2 pi/alat)
               b(1) = (  0.153060 -0.000000  0.033907 )  
               b(2) = (  0.000000  0.091392 -0.000000 )  
               b(3) = (  0.000000  0.000000  0.139503 )  


     PseudoPot. # 1 for  N read from file:
     /users/majewski/.data/PSEUDOPOTENTIALS/N.pbe-n-kjpaw_psl.1.0.0.UPF
     MD5 check sum: c21df8f53e59d08c3548513d559cdda6
     Pseudo is Projector augmented-wave + core cor, Zval =  5.0
     Generated using "atomic" code by A. Dal Corso  v.5.3.0 svn rev. 11974
     Shape of augmentation charge: PSQ
     Using radial grid of 1085 points,  4 beta functions with: 
                l(1) =   0
                l(2) =   0
                l(3) =   1
                l(4) =   1
     Q(r) pseudized with 0 coefficients 


     PseudoPot. # 2 for  C read from file:
     /users/majewski/.data/PSEUDOPOTENTIALS/C.pbe-n-kjpaw_psl.1.0.0.UPF
     MD5 check sum: 2ba8448e293caca687844dde9a1b88a8
     Pseudo is Projector augmented-wave + core cor, Zval =  4.0
     Generated using "atomic" code by A. Dal Corso  v.5.3.0 svn rev. 11974
     Shape of augmentation charge: PSQ
     Using radial grid of 1073 points,  4 beta functions with: 
                l(1) =   0
                l(2) =   0
                l(3) =   1
                l(4) =   1
     Q(r) pseudized with 0 coefficients 


     PseudoPot. # 3 for  H read from file:
     /users/majewski/.data/PSEUDOPOTENTIALS/H.pbe-kjpaw_psl.1.0.0.UPF
     MD5 check sum: bc0feb48a24907a0b97fa6ee2d589a29
     Pseudo is Projector augmented-wave, Zval =  1.0
     Generated using "atomic" code by A. Dal Corso  v.5.3.0 svn rev. 11974
     Shape of augmentation charge: PSQ
     Using radial grid of  929 points,  2 beta functions with: 
                l(1) =   0
                l(2) =   0
     Q(r) pseudized with 0 coefficients 


     PseudoPot. # 4 for  O read from file:
     /users/majewski/.data/PSEUDOPOTENTIALS/O.pbe-n-kjpaw_psl.1.0.0.UPF
     MD5 check sum: 9c0ade6c043cf4a781bde3908a3a8206
     Pseudo is Projector augmented-wave + core cor, Zval =  6.0
     Generated using "atomic" code by A. Dal Corso  v.5.3.0 svn rev. 11974
     Shape of augmentation charge: PSQ
     Using radial grid of 1095 points,  4 beta functions with: 
                l(1) =   0
                l(2) =   0
                l(3) =   1
                l(4) =   1
     Q(r) pseudized with 0 coefficients 


     atomic species   valence    mass     pseudopotential
        N              5.00    14.00670      N( 1.00)
        C              4.00    12.01100      C( 1.00)
        H              1.00     1.00790      H( 1.00)
        O              6.00    15.99940      O( 1.00)

      4 Sym. Ops., with inversion, found ( 2 have fractional translation)


                                    s                        frac. trans.

      isym =  1     identity                                     

 cryst.   s( 1) = (     1          0          0      )
                  (     0          1          0      )
                  (     0          0          1      )

 cart.    s( 1) = (  1.0000000  0.0000000 -0.0000000 )
                  (  0.0000000  1.0000000  0.0000000 )
                  (  0.0000000  0.0000000  1.0000000 )


      isym =  2     180 deg rotation - cart. axis [0,1,0]        

 cryst.   s( 2) = (    -1          0          0      )    f =( -0.5000000 )
                  (     0          1          0      )       (  0.5000000 )
                  (     0          0         -1      )       ( -0.5000000 )

 cart.    s( 2) = ( -1.0000000  0.0000000  0.0000000 )    f =( -2.4727023 )
                  (  0.0000000  1.0000000  0.0000000 )       (  5.4709500 )
                  (  0.0000000  0.0000000 -1.0000000 )       ( -3.5841562 )


      isym =  3     inversion                                    

 cryst.   s( 3) = (    -1          0          0      )
                  (     0         -1          0      )
                  (     0          0         -1      )

 cart.    s( 3) = ( -1.0000000  0.0000000  0.0000000 )
                  (  0.0000000 -1.0000000  0.0000000 )
                  (  0.0000000  0.0000000 -1.0000000 )


      isym =  4     inv. 180 deg rotation - cart. axis [0,1,0]   

 cryst.   s( 4) = (     1          0          0      )    f =( -0.5000000 )
                  (     0         -1          0      )       (  0.5000000 )
                  (     0          0          1      )       ( -0.5000000 )

 cart.    s( 4) = (  1.0000000  0.0000000 -0.0000000 )    f =( -2.4727023 )
                  (  0.0000000 -1.0000000  0.0000000 )       (  5.4709500 )
                  (  0.0000000  0.0000000  1.0000000 )       ( -3.5841562 )


   Cartesian axes

     site n.     atom                  positions (alat units)
         1           N   tau(   1) = (   5.6814794   6.8168037   3.3020831  )
         2           O   tau(   2) = (   7.6183148   7.8804658   3.1253842  )
         3           N   tau(   3) = (   6.6082701   7.6958759   3.8021446  )
         4           N   tau(   4) = (   4.4798552   5.7522662   5.0624773  )
         5           O   tau(   5) = (   3.2857644   4.6925432   6.6169259  )
         6           N   tau(   6) = (   3.2951569   5.4937092   5.6876975  )
         7           O   tau(   7) = (   6.3726433   8.1839941   4.8967459  )
         8           C   tau(   8) = (   4.4063896   6.7367090   3.9631449  )
         9           H   tau(   9) = (   3.7167939   6.4655687   3.3210792  )
        10           H   tau(  10) = (   4.1629820   7.6155624   4.3210587  )
        11           O   tau(  11) = (   2.3219113   6.1379682   5.2879207  )
        12           C   tau(  12) = (   5.9434862   6.1864408   2.0140807  )
        13           H   tau(  13) = (   5.1221590   5.7598162   1.7254128  )
        14           H   tau(  14) = (   6.2073440   6.8277456   1.3361734  )
        15           H   tau(  15) = (   3.7346417  -1.3567956  -2.2479828  )
        16           H   tau(  16) = (   2.6494567  -0.2888662  -1.8587434  )
        17           C   tau(  17) = (   3.4707838  -0.7154908  -1.5700755  )
        18           O   tau(  18) = (  -0.1507911  -0.6670182   1.7037645  )
        19           H   tau(  19) = (   1.6902797  -2.1446124   0.7369025  )
        20           H   tau(  20) = (   1.2440915  -0.9946187  -0.2630771  )
        21           C   tau(  21) = (   1.9336873  -1.2657590   0.3789887  )
        22           O   tau(  22) = (   3.8999409  -2.7130441   1.3125897  )
        23           N   tau(  23) = (   0.8224546  -0.0227592   2.1035413  )
        24           O   tau(  24) = (   0.8130621   0.7784068   3.0327696  )
        25           N   tau(  25) = (   2.0071529  -0.2813162   1.4783211  )
        26           N   tau(  26) = (   4.1355678  -2.2249259   0.2179884  )
        27           O   tau(  27) = (   5.1456125  -2.4095158  -0.4587720  )
        28           N   tau(  28) = (   3.2087771  -1.3458537  -0.2820731  )
        29           H   tau(  29) = (   5.2714607   4.1141544   5.8321390  )
        30           H   tau(  30) = (   6.3566457   5.1820838   5.4428996  )
        31           C   tau(  31) = (   5.5353185   4.7554592   5.1542317  )
        32           O   tau(  32) = (   9.1568934   4.8039318   1.8803917  )
        33           H   tau(  33) = (   7.3158227   3.3263376   2.8472537  )
        34           H   tau(  34) = (   7.7620108   4.4763313   3.8472333  )
        35           C   tau(  35) = (   7.0724151   4.2051910   3.2051675  )
        36           O   tau(  36) = (   5.1061614   2.7579059   2.2715665  )
        37           N   tau(  37) = (   8.1836478   5.4481908   1.4806149  )
        38           O   tau(  38) = (   8.1930402   6.2493568   0.5513866  )
        39           N   tau(  39) = (   6.9989495   5.1896338   2.1058351  )
        40           N   tau(  40) = (   4.8705346   3.2460241   3.3661678  )
        41           O   tau(  41) = (   3.8604898   3.0614342   4.0429282  )
        42           N   tau(  42) = (   5.7973253   4.1250963   3.8662293  )
        43           H   tau(  43) = (   2.7987583   1.3567956   2.2479828  )
        44           H   tau(  44) = (   3.8839433   0.2888662   1.8587434  )
        45           C   tau(  45) = (   3.0626162   0.7154908   1.5700755  )
        46           O   tau(  46) = (   6.6841911   0.6670182  -1.7037645  )
        47           H   tau(  47) = (   4.8431203   2.1446124  -0.7369025  )
        48           H   tau(  48) = (   5.2893085   0.9946187   0.2630771  )
        49           C   tau(  49) = (   4.5997127   1.2657590  -0.3789887  )
        50           O   tau(  50) = (   2.6334591   2.7130441  -1.3125897  )
        51           N   tau(  51) = (   5.7109454   0.0227592  -2.1035413  )
        52           O   tau(  52) = (   5.7203379  -0.7784068  -3.0327696  )
        53           N   tau(  53) = (   4.5262471   0.2813162  -1.4783211  )
        54           N   tau(  54) = (   2.3978322   2.2249259  -0.2179884  )
        55           O   tau(  55) = (   1.3877875   2.4095158   0.4587720  )
        56           N   tau(  56) = (   3.3246229   1.3458537   0.2820731  )

   Crystallographic axes

     site n.     atom                  positions (cryst. coord.)
         1           N   tau(   1) = (  0.9815700  0.6230000  0.4606500  )
         2           O   tau(   2) = (  1.2720300  0.7202100  0.4360000  )
         3           N   tau(   3) = (  1.1403800  0.7033400  0.5304100  )
         4           N   tau(   4) = (  0.8573400  0.5257100  0.7062300  )
         5           O   tau(   5) = (  0.7272800  0.4288600  0.9230800  )
         6           N   tau(   6) = (  0.6972100  0.5020800  0.7934500  )
         7           O   tau(   7) = (  1.1414300  0.7479500  0.6831100  )
         8           C   tau(   8) = (  0.8088200  0.6156800  0.5528700  )
         9           H   tau(   9) = (  0.6815000  0.5909000  0.4633000  )
        10           H   tau(  10) = (  0.7837000  0.6960000  0.6028000  )
        11           O   tau(  11) = (  0.5346900  0.5609600  0.7376800  )
        12           C   tau(  12) = (  0.9780000  0.5653900  0.2809700  )
        13           H   tau(  13) = (  0.8425000  0.5264000  0.2407000  )
        14           H   tau(  14) = (  0.9954000  0.6240000  0.1864000  )
        15           H   tau(  15) = (  0.4954000 -0.1240000 -0.3136000  )
        16           H   tau(  16) = (  0.3425000 -0.0264000 -0.2593000  )
        17           C   tau(  17) = (  0.4780000 -0.0653900 -0.2190300  )
        18           O   tau(  18) = (  0.0346900 -0.0609600  0.2376800  )
        19           H   tau(  19) = (  0.2837000 -0.1960000  0.1028000  )
        20           H   tau(  20) = (  0.1815000 -0.0909000 -0.0367000  )
        21           C   tau(  21) = (  0.3088200 -0.1156800  0.0528700  )
        22           O   tau(  22) = (  0.6414300 -0.2479500  0.1831100  )
        23           N   tau(  23) = (  0.1972100 -0.0020800  0.2934500  )
        24           O   tau(  24) = (  0.2272800  0.0711400  0.4230800  )
        25           N   tau(  25) = (  0.3573400 -0.0257100  0.2062300  )
        26           N   tau(  26) = (  0.6403800 -0.2033400  0.0304100  )
        27           O   tau(  27) = (  0.7720300 -0.2202100 -0.0640000  )
        28           N   tau(  28) = (  0.4815700 -0.1230000 -0.0393500  )
        29           H   tau(  29) = (  1.0046000  0.3760000  0.8136000  )
        30           H   tau(  30) = (  1.1575000  0.4736000  0.7593000  )
        31           C   tau(  31) = (  1.0220000  0.4346100  0.7190300  )
        32           O   tau(  32) = (  1.4653100  0.4390400  0.2623200  )
        33           H   tau(  33) = (  1.2163000  0.3040000  0.3972000  )
        34           H   tau(  34) = (  1.3185000  0.4091000  0.5367000  )
        35           C   tau(  35) = (  1.1911800  0.3843200  0.4471300  )
        36           O   tau(  36) = (  0.8585700  0.2520500  0.3168900  )
        37           N   tau(  37) = (  1.3027900  0.4979200  0.2065500  )
        38           O   tau(  38) = (  1.2727200  0.5711400  0.0769200  )
        39           N   tau(  39) = (  1.1426600  0.4742900  0.2937700  )
        40           N   tau(  40) = (  0.8596200  0.2966600  0.4695900  )
        41           O   tau(  41) = (  0.7279700  0.2797900  0.5640000  )
        42           N   tau(  42) = (  1.0184300  0.3770000  0.5393500  )
        43           H   tau(  43) = (  0.5046000  0.1240000  0.3136000  )
        44           H   tau(  44) = (  0.6575000  0.0264000  0.2593000  )
        45           C   tau(  45) = (  0.5220000  0.0653900  0.2190300  )
        46           O   tau(  46) = (  0.9653100  0.0609600 -0.2376800  )
        47           H   tau(  47) = (  0.7163000  0.1960000 -0.1028000  )
        48           H   tau(  48) = (  0.8185000  0.0909000  0.0367000  )
        49           C   tau(  49) = (  0.6911800  0.1156800 -0.0528700  )
        50           O   tau(  50) = (  0.3585700  0.2479500 -0.1831100  )
        51           N   tau(  51) = (  0.8027900  0.0020800 -0.2934500  )
        52           O   tau(  52) = (  0.7727200 -0.0711400 -0.4230800  )
        53           N   tau(  53) = (  0.6426600  0.0257100 -0.2062300  )
        54           N   tau(  54) = (  0.3596200  0.2033400 -0.0304100  )
        55           O   tau(  55) = (  0.2279700  0.2202100  0.0640000  )
        56           N   tau(  56) = (  0.5184300  0.1230000  0.0393500  )

     number of k points=    16
                       cart. coord. in units 2pi/alat
        k(    1) = (   0.0191325   0.0114240   0.0216763), wk =   0.1250000
        k(    2) = (   0.0191325   0.0114240   0.0565520), wk =   0.1250000
        k(    3) = (   0.0191325   0.0114240  -0.0480752), wk =   0.1250000
        k(    4) = (   0.0191325   0.0114240  -0.0131994), wk =   0.1250000
        k(    5) = (   0.0191325   0.0342719   0.0216763), wk =   0.1250000
        k(    6) = (   0.0191325   0.0342719   0.0565520), wk =   0.1250000
        k(    7) = (   0.0191325   0.0342719  -0.0480752), wk =   0.1250000
        k(    8) = (   0.0191325   0.0342719  -0.0131994), wk =   0.1250000
        k(    9) = (   0.0573974   0.0114240   0.0301531), wk =   0.1250000
        k(   10) = (   0.0573974   0.0114240   0.0650288), wk =   0.1250000
        k(   11) = (   0.0573974   0.0114240  -0.0395983), wk =   0.1250000
        k(   12) = (   0.0573974   0.0114240  -0.0047226), wk =   0.1250000
        k(   13) = (   0.0573974   0.0342719   0.0301531), wk =   0.1250000
        k(   14) = (   0.0573974   0.0342719   0.0650288), wk =   0.1250000
        k(   15) = (   0.0573974   0.0342719  -0.0395983), wk =   0.1250000
        k(   16) = (   0.0573974   0.0342719  -0.0047226), wk =   0.1250000

                       cryst. coord.
        k(    1) = (   0.1250000   0.1250000   0.1250000), wk =   0.1250000
        k(    2) = (   0.1250000   0.1250000   0.3750000), wk =   0.1250000
        k(    3) = (   0.1250000   0.1250000  -0.3750000), wk =   0.1250000
        k(    4) = (   0.1250000   0.1250000  -0.1250000), wk =   0.1250000
        k(    5) = (   0.1250000   0.3750000   0.1250000), wk =   0.1250000
        k(    6) = (   0.1250000   0.3750000   0.3750000), wk =   0.1250000
        k(    7) = (   0.1250000   0.3750000  -0.3750000), wk =   0.1250000
        k(    8) = (   0.1250000   0.3750000  -0.1250000), wk =   0.1250000
        k(    9) = (   0.3750000   0.1250000   0.1250000), wk =   0.1250000
        k(   10) = (   0.3750000   0.1250000   0.3750000), wk =   0.1250000
        k(   11) = (   0.3750000   0.1250000  -0.3750000), wk =   0.1250000
        k(   12) = (   0.3750000   0.1250000  -0.1250000), wk =   0.1250000
        k(   13) = (   0.3750000   0.3750000   0.1250000), wk =   0.1250000
        k(   14) = (   0.3750000   0.3750000   0.3750000), wk =   0.1250000
        k(   15) = (   0.3750000   0.3750000  -0.3750000), wk =   0.1250000
        k(   16) = (   0.3750000   0.3750000  -0.1250000), wk =   0.1250000

     Dense  grid:  4459865 G-vectors     FFT dimensions: ( 180, 288, 192)

     Smooth grid:  1128233 G-vectors     FFT dimensions: ( 108, 180, 120)

     Largest allocated arrays     est. size (Mb)     dimensions
        Kohn-Sham Wavefunctions        30.17 Mb     (   17651,  112)
        NL pseudopotentials            94.81 Mb     (   17651,  352)
        Each V/rho on FFT grid         18.98 Mb     ( 1244160)
        Each G-vector array             4.25 Mb     (  557483)
        G-vector shells                 3.88 Mb     (  509137)
     Largest temporary arrays     est. size (Mb)     dimensions
        Auxiliary wavefunctions       120.66 Mb     (   17651,  448)
        Each subspace H/S matrix        3.06 Mb     (     448,  448)
        Each <psi_i|beta_j> matrix      0.60 Mb     (     352,  112)
        Arrays for rho mixing         151.88 Mb     ( 1244160,    8)

     Initial potential from superposition of free atoms

     starting charge  223.99937, renormalised to  224.00000
     Starting wfc are  176 randomized atomic wfcs
     Checking if some PAW data can be deallocated... 
       node    0, deallocated PAW data for type:  2
       node    0, deallocated PAW data for type:  3
       node    1, deallocated PAW data for type:  1
       node    2, deallocated PAW data for type:  1
       node    3, deallocated PAW data for type:  2
       node    3, deallocated PAW data for type:  3
       node    4, deallocated PAW data for type:  1
       node    5, deallocated PAW data for type:  2
       node    5, deallocated PAW data for type:  3
       node    6, deallocated PAW data for type:  1
       node    7, deallocated PAW data for type:  2
       node    7, deallocated PAW data for type:  3

     total cpu time spent up to now is     1072.9 secs

     per-process dynamical memory:   884.8 Mb

     Self-consistent Calculation

     iteration #  1     ecut=   180.00 Ry     beta=0.70
     Davidson diagonalization with overlap
     ethr =  1.00E-02,  avg # of iterations =  3.0

     total cpu time spent up to now is     3826.5 secs

     total energy              =   -1279.64690306 Ry
     Harris-Foulkes estimate   =   -1283.97749575 Ry
     estimated scf accuracy    <       6.67155443 Ry

     iteration #  2     ecut=   180.00 Ry     beta=0.70
     Davidson diagonalization with overlap
     ethr =  2.98E-03,  avg # of iterations =  4.0

     total cpu time spent up to now is     6822.8 secs

     total energy              =   -1280.29791769 Ry
     Harris-Foulkes estimate   =   -1283.82264762 Ry
     estimated scf accuracy    <       7.12924512 Ry

     iteration #  3     ecut=   180.00 Ry     beta=0.70
     Davidson diagonalization with overlap
     ethr =  2.98E-03,  avg # of iterations =  4.8

     total cpu time spent up to now is     9262.8 secs

     total energy              =   -1281.82146442 Ry
     Harris-Foulkes estimate   =   -1282.06137243 Ry
     estimated scf accuracy    <       0.44543012 Ry

     iteration #  4     ecut=   180.00 Ry     beta=0.70
     Davidson diagonalization with overlap
     ethr =  1.99E-04,  avg # of iterations =  5.0

     total cpu time spent up to now is    12193.8 secs

     total energy              =   -1281.97198210 Ry
     Harris-Foulkes estimate   =   -1282.06520768 Ry
     estimated scf accuracy    <       0.20800031 Ry

     iteration #  5     ecut=   180.00 Ry     beta=0.70
     Davidson diagonalization with overlap
     ethr =  9.29E-05,  avg # of iterations =  4.1

     total cpu time spent up to now is    14723.5 secs

     total energy              =   -1282.01389960 Ry
     Harris-Foulkes estimate   =   -1282.02336276 Ry
     estimated scf accuracy    <       0.02333248 Ry

     iteration #  6     ecut=   180.00 Ry     beta=0.70
     Davidson diagonalization with overlap
     ethr =  1.04E-05,  avg # of iterations =  7.1

     total cpu time spent up to now is    17114.9 secs

     total energy              =   -1282.01708397 Ry
     Harris-Foulkes estimate   =   -1282.01868484 Ry
     estimated scf accuracy    <       0.00370967 Ry

     iteration #  7     ecut=   180.00 Ry     beta=0.70
     Davidson diagonalization with overlap
     ethr =  1.66E-06,  avg # of iterations =  4.7

     total cpu time spent up to now is    20316.3 secs

     total energy              =   -1282.01900839 Ry
     Harris-Foulkes estimate   =   -1282.01962186 Ry
     estimated scf accuracy    <       0.00162459 Ry

     iteration #  8     ecut=   180.00 Ry     beta=0.70
     Davidson diagonalization with overlap
     ethr =  7.25E-07,  avg # of iterations =  2.5

     total cpu time spent up to now is    22324.1 secs

     total energy              =   -1282.01881856 Ry
     Harris-Foulkes estimate   =   -1282.01908723 Ry
     estimated scf accuracy    <       0.00054246 Ry

     iteration #  9     ecut=   180.00 Ry     beta=0.70
     Davidson diagonalization with overlap
     ethr =  2.42E-07,  avg # of iterations =  5.0

     total cpu time spent up to now is    25817.1 secs

     total energy              =   -1282.01940610 Ry
     Harris-Foulkes estimate   =   -1282.01971777 Ry
     estimated scf accuracy    <       0.00207724 Ry

     iteration # 10     ecut=   180.00 Ry     beta=0.70
     Davidson diagonalization with overlap
     ethr =  2.42E-07,  avg # of iterations =  1.0

     total cpu time spent up to now is    28417.4 secs

     total energy              =   -1282.01869834 Ry
     Harris-Foulkes estimate   =   -1282.01941322 Ry
     estimated scf accuracy    <       0.00157471 Ry

     iteration # 11     ecut=   180.00 Ry     beta=0.70
     Davidson diagonalization with overlap
     ethr =  2.42E-07,  avg # of iterations =  5.0

     total cpu time spent up to now is    32019.8 secs

     total energy              =   -1282.01929393 Ry
     Harris-Foulkes estimate   =   -1282.01946985 Ry
     estimated scf accuracy    <       0.00079338 Ry

     iteration # 12     ecut=   180.00 Ry     beta=0.70
     Davidson diagonalization with overlap
     ethr =  2.42E-07,  avg # of iterations =  1.0

     total cpu time spent up to now is    34099.8 secs

     total energy              =   -1282.01909392 Ry
     Harris-Foulkes estimate   =   -1282.01930005 Ry
     estimated scf accuracy    <       0.00051230 Ry

     iteration # 13     ecut=   180.00 Ry     beta=0.70
     Davidson diagonalization with overlap
     ethr =  2.29E-07,  avg # of iterations =  5.0

     total cpu time spent up to now is    37493.0 secs

     total energy              =   -1282.01930824 Ry
     Harris-Foulkes estimate   =   -1282.01937012 Ry
     estimated scf accuracy    <       0.00027518 Ry

     iteration # 14     ecut=   180.00 Ry     beta=0.70
     Davidson diagonalization with overlap
     ethr =  1.23E-07,  avg # of iterations =  1.0

     total cpu time spent up to now is    40205.2 secs

     total energy              =   -1282.01928085 Ry
     Harris-Foulkes estimate   =   -1282.01931079 Ry
     estimated scf accuracy    <       0.00017696 Ry

     iteration # 15     ecut=   180.00 Ry     beta=0.70
     Davidson diagonalization with overlap
     ethr =  7.90E-08,  avg # of iterations =  5.0

     total cpu time spent up to now is    43560.5 secs

     total energy              =   -1282.01931475 Ry
     Harris-Foulkes estimate   =   -1282.01931558 Ry
     estimated scf accuracy    <       0.00000118 Ry

     iteration # 16     ecut=   180.00 Ry     beta=0.70
     Davidson diagonalization with overlap
     ethr =  5.28E-10,  avg # of iterations =  5.1

     total cpu time spent up to now is    47601.3 secs

     total energy              =   -1282.01931605 Ry
     Harris-Foulkes estimate   =   -1282.01932222 Ry
     estimated scf accuracy    <       0.00002382 Ry

     iteration # 17     ecut=   180.00 Ry     beta=0.70
     Davidson diagonalization with overlap
     ethr =  5.28E-10,  avg # of iterations =  5.0

     total cpu time spent up to now is    51228.7 secs

     total energy              =   -1282.01931795 Ry
     Harris-Foulkes estimate   =   -1282.01931782 Ry
     estimated scf accuracy    <       0.00000211 Ry

     iteration # 18     ecut=   180.00 Ry     beta=0.70
     Davidson diagonalization with overlap
     ethr =  5.28E-10,  avg # of iterations =  1.0

     total cpu time spent up to now is    53205.8 secs

     total energy              =   -1282.01931769 Ry
     Harris-Foulkes estimate   =   -1282.01931795 Ry
     estimated scf accuracy    <       0.00000233 Ry

     iteration # 19     ecut=   180.00 Ry     beta=0.70
     Davidson diagonalization with overlap
     ethr =  5.28E-10,  avg # of iterations =  1.0

     total cpu time spent up to now is    55138.5 secs

     total energy              =   -1282.01931741 Ry
     Harris-Foulkes estimate   =   -1282.01931770 Ry
     estimated scf accuracy    <       0.00000188 Ry

     iteration # 20     ecut=   180.00 Ry     beta=0.70
     Davidson diagonalization with overlap
     ethr =  5.28E-10,  avg # of iterations =  1.2

     total cpu time spent up to now is    57193.5 secs

     total energy              =   -1282.01931738 Ry
     Harris-Foulkes estimate   =   -1282.01931744 Ry
     estimated scf accuracy    <       0.00000123 Ry

     iteration # 21     ecut=   180.00 Ry     beta=0.70
     Davidson diagonalization with overlap
     ethr =  5.28E-10,  avg # of iterations =  1.0

     total cpu time spent up to now is    59124.6 secs

     total energy              =   -1282.01931694 Ry
     Harris-Foulkes estimate   =   -1282.01931740 Ry
     estimated scf accuracy    <       0.00000106 Ry

     iteration # 22     ecut=   180.00 Ry     beta=0.70
     Davidson diagonalization with overlap
     ethr =  4.72E-10,  avg # of iterations =  5.0

     total cpu time spent up to now is    61501.1 secs

     End of self-consistent calculation

          k = 0.0191 0.0114 0.0217 (141063 PWs)   bands (ev):

   -23.9153 -23.8933 -23.8825 -23.8727 -23.5785 -23.5684 -23.5673 -23.5657
   -19.1304 -19.1248 -19.1183 -19.1055 -18.7880 -18.7874 -18.7846 -18.7832
   -18.2223 -18.1954 -17.1914 -17.1397 -17.0465 -17.0438 -16.0261 -16.0127
   -12.0798 -12.0748 -12.0683 -11.9564 -11.8964 -11.8196 -11.7497 -11.7277
    -8.8633  -8.8228  -8.2592  -8.2227  -7.5382  -7.4951  -7.4203  -7.4201
    -6.8328  -6.7301  -6.5787  -6.5003  -6.4804  -6.3853  -6.3319  -6.2440
    -6.1085  -6.0775  -6.0490  -5.9162  -5.8702  -5.7928  -5.7239  -5.6865
    -5.6334  -5.6102  -5.5281  -5.4898  -5.1197  -5.0049  -4.9126  -4.9031
    -4.4350  -4.4198  -4.3891  -4.3437  -4.2103  -4.1083  -3.8572  -3.8496
    -3.6856  -3.5629  -3.5060  -3.4670  -3.1602  -3.1161  -3.0406  -3.0188
    -0.7728  -0.7690  -0.2996  -0.2944  -0.1946  -0.1435  -0.0788  -0.0530
     0.0036   0.0290   0.1904   0.2232   0.2378   0.2686   0.3946   0.4092
     0.4557   0.4771   0.6464   0.7049   0.7874   0.8437   0.8944   0.9114
     0.9477   1.0493   1.0808   1.1430   1.2173   1.3592   1.3799   1.4016

     occupation numbers 
     1.0000   1.0000   1.0000   1.0000   1.0000   1.0000   1.0000   1.0000
     1.0000   1.0000   1.0000   1.0000   1.0000   1.0000   1.0000   1.0000
     1.0000   1.0000   1.0000   1.0000   1.0000   1.0000   1.0000   1.0000
     1.0000   1.0000   1.0000   1.0000   1.0000   1.0000   1.0000   1.0000
     1.0000   1.0000   1.0000   1.0000   1.0000   1.0000   1.0000   1.0000
     1.0000   1.0000   1.0000   1.0000   1.0000   1.0000   1.0000   1.0000
     1.0000   1.0000   1.0000   1.0000   1.0000   1.0000   1.0000   1.0000
     1.0000   1.0000   1.0000   1.0000   1.0000   1.0000   1.0000   1.0000
     1.0000   1.0000   1.0000   1.0000   1.0000   1.0000   1.0000   1.0000
     1.0000   1.0000   1.0000   1.0000   1.0000   1.0000   1.0000   1.0000
     1.0000   1.0000   1.0000   1.0000   1.0000   1.0000   1.0000   1.0000
     1.0000   1.0000   1.0000   1.0000   1.0000   1.0000   1.0000   1.0000
     1.0000   1.0000   1.0000   1.0000   1.0000   1.0000   1.0000   1.0000
     1.0000   1.0000   1.0000   1.0000   1.0000   1.0000   1.0000   1.0000

          k = 0.0191 0.0114 0.0566 (141011 PWs)   bands (ev):

   -23.9074 -23.8988 -23.8788 -23.8776 -23.5789 -23.5756 -23.5653 -23.5616
   -19.1289 -19.1239 -19.1188 -19.1089 -18.7938 -18.7931 -18.7796 -18.7775
   -18.2106 -18.2100 -17.1667 -17.1641 -17.0415 -17.0386 -16.0218 -16.0198
   -12.0840 -12.0797 -12.0236 -12.0021 -11.8530 -11.8404 -11.7584 -11.7478
    -8.8435  -8.8072  -8.2423  -8.2166  -7.5488  -7.4975  -7.4019  -7.3237
    -6.8815  -6.7563  -6.5694  -6.5324  -6.5199  -6.4069  -6.3551  -6.3199
    -6.1633  -6.1390  -5.9276  -5.8769  -5.8627  -5.8002  -5.7716  -5.7358
    -5.6859  -5.6326  -5.4499  -5.4051  -5.1230  -5.0439  -4.9102  -4.8728
    -4.3904  -4.3819  -4.3374  -4.2568  -4.1330  -4.1059  -3.9706  -3.9681
    -3.6641  -3.6100  -3.4468  -3.4352  -3.1827  -3.1776  -3.0226  -2.9957
    -0.7377  -0.7064  -0.3131  -0.3019  -0.2024  -0.1664  -0.1173  -0.0853
    -0.0555  -0.0161   0.0959   0.1575   0.2593   0.3106   0.3646   0.3781
     0.5603   0.6192   0.6718   0.7096   0.7998   0.8135   0.8540   0.9082
     1.0019   1.0483   1.1189   1.1408   1.2349   1.3098   1.3826   1.4055

     occupation numbers 
     1.0000   1.0000   1.0000   1.0000   1.0000   1.0000   1.0000   1.0000
     1.0000   1.0000   1.0000   1.0000   1.0000   1.0000   1.0000   1.0000
     1.0000   1.0000   1.0000   1.0000   1.0000   1.0000   1.0000   1.0000
     1.0000   1.0000   1.0000   1.0000   1.0000   1.0000   1.0000   1.0000
     1.0000   1.0000   1.0000   1.0000   1.0000   1.0000   1.0000   1.0000
     1.0000   1.0000   1.0000   1.0000   1.0000   1.0000   1.0000   1.0000
     1.0000   1.0000   1.0000   1.0000   1.0000   1.0000   1.0000   1.0000
     1.0000   1.0000   1.0000   1.0000   1.0000   1.0000   1.0000   1.0000
     1.0000   1.0000   1.0000   1.0000   1.0000   1.0000   1.0000   1.0000
     1.0000   1.0000   1.0000   1.0000   1.0000   1.0000   1.0000   1.0000
     1.0000   1.0000   1.0000   1.0000   1.0000   1.0000   1.0000   1.0000
     1.0000   1.0000   1.0000   1.0000   1.0000   1.0000   1.0000   1.0000
     1.0000   1.0000   1.0000   1.0000   1.0000   1.0000   1.0000   1.0000
     1.0000   1.0000   1.0000   1.0000   1.0000   1.0000   1.0000   1.0000

          k = 0.0191 0.0114-0.0481 (141033 PWs)   bands (ev):

   -23.9087 -23.8979 -23.8825 -23.8735 -23.5804 -23.5774 -23.5624 -23.5611
   -19.1263 -19.1250 -19.1151 -19.1144 -18.7951 -18.7948 -18.7778 -18.7761
   -18.2226 -18.1966 -17.1891 -17.1414 -17.0440 -17.0422 -16.0256 -16.0094
   -12.0996 -12.0782 -12.0522 -11.9688 -11.8802 -11.8080 -11.7603 -11.7488
    -8.8529  -8.7676  -8.2300  -8.2251  -7.5439  -7.5276  -7.4137  -7.2972
    -6.8928  -6.7798  -6.5663  -6.5345  -6.4802  -6.4575  -6.3662  -6.3321
    -6.1892  -6.1590  -5.9280  -5.8995  -5.8025  -5.7662  -5.7543  -5.7386
    -5.6887  -5.6190  -5.4558  -5.3993  -5.1175  -5.0422  -4.8969  -4.8669
    -4.4239  -4.3522  -4.3173  -4.2537  -4.1709  -4.1227  -3.9790  -3.9242
    -3.6668  -3.6152  -3.4991  -3.4165  -3.1903  -3.1639  -3.0165  -3.0038
    -0.6717  -0.6128  -0.3019  -0.2927  -0.2596  -0.2259  -0.1530  -0.1318
    -0.0712  -0.0605   0.0620   0.1492   0.2752   0.3150   0.3215   0.3699
     0.6002   0.6849   0.7069   0.7248   0.7661   0.8643   0.8658   0.8908
     1.0015   1.0555   1.1250   1.1793   1.2442   1.2741   1.3691   1.3919

     occupation numbers 
     1.0000   1.0000   1.0000   1.0000   1.0000   1.0000   1.0000   1.0000
     1.0000   1.0000   1.0000   1.0000   1.0000   1.0000   1.0000   1.0000
     1.0000   1.0000   1.0000   1.0000   1.0000   1.0000   1.0000   1.0000
     1.0000   1.0000   1.0000   1.0000   1.0000   1.0000   1.0000   1.0000
     1.0000   1.0000   1.0000   1.0000   1.0000   1.0000   1.0000   1.0000
     1.0000   1.0000   1.0000   1.0000   1.0000   1.0000   1.0000   1.0000
     1.0000   1.0000   1.0000   1.0000   1.0000   1.0000   1.0000   1.0000
     1.0000   1.0000   1.0000   1.0000   1.0000   1.0000   1.0000   1.0000
     1.0000   1.0000   1.0000   1.0000   1.0000   1.0000   1.0000   1.0000
     1.0000   1.0000   1.0000   1.0000   1.0000   1.0000   1.0000   1.0000
     1.0000   1.0000   1.0000   1.0000   1.0000   1.0000   1.0000   1.0000
     1.0000   1.0000   1.0000   1.0000   1.0000   1.0000   1.0000   1.0000
     1.0000   1.0000   1.0000   1.0000   1.0000   1.0000   1.0000   1.0000
     1.0000   1.0000   1.0000   1.0000   1.0000   1.0000   1.0000   1.0000

          k = 0.0191 0.0114-0.0132 (141035 PWs)   bands (ev):

   -23.9158 -23.8934 -23.8835 -23.8710 -23.5806 -23.5721 -23.5642 -23.5632
   -19.1292 -19.1236 -19.1184 -19.1080 -18.7914 -18.7913 -18.7803 -18.7801
   -18.2269 -18.1894 -17.2006 -17.1301 -17.0487 -17.0478 -16.0265 -16.0056
   -12.1048 -12.0748 -12.0651 -11.9518 -11.8971 -11.8080 -11.7489 -11.7293
    -8.8745  -8.7815  -8.2521  -8.2262  -7.5434  -7.5196  -7.4555  -7.3677
    -6.8011  -6.7887  -6.5756  -6.4870  -6.4814  -6.4306  -6.3359  -6.2635
    -6.1584  -6.1149  -5.9715  -5.9213  -5.8348  -5.7904  -5.7049  -5.6793
    -5.6438  -5.6026  -5.5053  -5.4932  -5.0856  -5.0399  -4.9090  -4.8749
    -4.4358  -4.4132  -4.3839  -4.3621  -4.2186  -4.1166  -3.8674  -3.8061
    -3.7154  -3.5721  -3.5194  -3.4649  -3.1664  -3.1110  -3.0325  -3.0267
    -0.7245  -0.7027  -0.2887  -0.2835  -0.1955  -0.1626  -0.0881  -0.0710
    -0.0571  -0.0177   0.0843   0.1512   0.2076   0.2862   0.3386   0.4095
     0.5734   0.6149   0.6430   0.7267   0.7792   0.8456   0.9058   0.9231
     0.9541   1.0282   1.1044   1.1690   1.2131   1.3400   1.3670   1.3899

     occupation numbers 
     1.0000   1.0000   1.0000   1.0000   1.0000   1.0000   1.0000   1.0000
     1.0000   1.0000   1.0000   1.0000   1.0000   1.0000   1.0000   1.0000
     1.0000   1.0000   1.0000   1.0000   1.0000   1.0000   1.0000   1.0000
     1.0000   1.0000   1.0000   1.0000   1.0000   1.0000   1.0000   1.0000
     1.0000   1.0000   1.0000   1.0000   1.0000   1.0000   1.0000   1.0000
     1.0000   1.0000   1.0000   1.0000   1.0000   1.0000   1.0000   1.0000
     1.0000   1.0000   1.0000   1.0000   1.0000   1.0000   1.0000   1.0000
     1.0000   1.0000   1.0000   1.0000   1.0000   1.0000   1.0000   1.0000
     1.0000   1.0000   1.0000   1.0000   1.0000   1.0000   1.0000   1.0000
     1.0000   1.0000   1.0000   1.0000   1.0000   1.0000   1.0000   1.0000
     1.0000   1.0000   1.0000   1.0000   1.0000   1.0000   1.0000   1.0000
     1.0000   1.0000   1.0000   1.0000   1.0000   1.0000   1.0000   1.0000
     1.0000   1.0000   1.0000   1.0000   1.0000   1.0000   1.0000   1.0000
     1.0000   1.0000   1.0000   1.0000   1.0000   1.0000   1.0000   1.0000

          k = 0.0191 0.0343 0.0217 (141032 PWs)   bands (ev):

   -23.9101 -23.9017 -23.8778 -23.8744 -23.5751 -23.5707 -23.5672 -23.5668
   -19.1301 -19.1284 -19.1126 -19.1079 -18.7879 -18.7877 -18.7841 -18.7836
   -18.2147 -18.2036 -17.1762 -17.1548 -17.0456 -17.0444 -16.0221 -16.0166
   -12.0764 -12.0754 -12.0477 -12.0060 -11.8579 -11.8316 -11.7432 -11.7341
    -8.8525  -8.8357  -8.2492  -8.2340  -7.5300  -7.5117  -7.4120  -7.4118
    -6.8108  -6.7648  -6.5261  -6.4943  -6.4894  -6.4352  -6.3067  -6.2775
    -6.1213  -6.1006  -5.9691  -5.9296  -5.8718  -5.8314  -5.7364  -5.7208
    -5.5964  -5.5813  -5.5079  -5.4875  -5.0744  -5.0068  -4.9597  -4.9349
    -4.4424  -4.4336  -4.3525  -4.3326  -4.1927  -4.1421  -3.8518  -3.8455
    -3.6513  -3.5975  -3.4954  -3.4760  -3.1512  -3.1338  -3.0302  -3.0222
    -0.7683  -0.7662  -0.2914  -0.2825  -0.2078  -0.1735  -0.0977  -0.0911
     0.0366   0.0447   0.2164   0.2260   0.2595   0.2669   0.4119   0.4206
     0.4311   0.4633   0.6579   0.6876   0.7745   0.7973   0.9127   0.9337
     0.9721   1.0191   1.1080   1.1313   1.2570   1.3142   1.3900   1.3966

     occupation numbers 
     1.0000   1.0000   1.0000   1.0000   1.0000   1.0000   1.0000   1.0000
     1.0000   1.0000   1.0000   1.0000   1.0000   1.0000   1.0000   1.0000
     1.0000   1.0000   1.0000   1.0000   1.0000   1.0000   1.0000   1.0000
     1.0000   1.0000   1.0000   1.0000   1.0000   1.0000   1.0000   1.0000
     1.0000   1.0000   1.0000   1.0000   1.0000   1.0000   1.0000   1.0000
     1.0000   1.0000   1.0000   1.0000   1.0000   1.0000   1.0000   1.0000
     1.0000   1.0000   1.0000   1.0000   1.0000   1.0000   1.0000   1.0000
     1.0000   1.0000   1.0000   1.0000   1.0000   1.0000   1.0000   1.0000
     1.0000   1.0000   1.0000   1.0000   1.0000   1.0000   1.0000   1.0000
     1.0000   1.0000   1.0000   1.0000   1.0000   1.0000   1.0000   1.0000
     1.0000   1.0000   1.0000   1.0000   1.0000   1.0000   1.0000   1.0000
     1.0000   1.0000   1.0000   1.0000   1.0000   1.0000   1.0000   1.0000
     1.0000   1.0000   1.0000   1.0000   1.0000   1.0000   1.0000   1.0000
     1.0000   1.0000   1.0000   1.0000   1.0000   1.0000   1.0000   1.0000

          k = 0.0191 0.0343 0.0566 (141023 PWs)   bands (ev):

   -23.9046 -23.9010 -23.8789 -23.8783 -23.5774 -23.5760 -23.5647 -23.5631
   -19.1287 -19.1272 -19.1140 -19.1105 -18.7936 -18.7933 -18.7790 -18.7781
   -18.2104 -18.2102 -17.1663 -17.1653 -17.0402 -17.0390 -16.0213 -16.0204
   -12.0821 -12.0799 -12.0205 -12.0112 -11.8461 -11.8404 -11.7567 -11.7522
    -8.8331  -8.8180  -8.2353  -8.2246  -7.5326  -7.5119  -7.3782  -7.3469
    -6.8618  -6.8157  -6.5536  -6.5418  -6.4690  -6.4206  -6.3653  -6.3439
    -6.1225  -6.0915  -5.9486  -5.8978  -5.8429  -5.8089  -5.7738  -5.7574
    -5.6751  -5.6396  -5.4569  -5.4347  -5.0588  -5.0057  -4.9610  -4.9217
    -4.3664  -4.3490  -4.3281  -4.2881  -4.1338  -4.1218  -3.9693  -3.9683
    -3.6423  -3.6194  -3.4456  -3.4401  -3.1776  -3.1736  -3.0218  -3.0090
    -0.7274  -0.7145  -0.3050  -0.2960  -0.2140  -0.1865  -0.1272  -0.1092
    -0.0300  -0.0131   0.1455   0.1660   0.2644   0.2895   0.3559   0.3689
     0.5773   0.6029   0.6833   0.7009   0.8048   0.8204   0.8527   0.8901
     1.0067   1.0307   1.1298   1.1383   1.2610   1.2911   1.3882   1.3976

     occupation numbers 
     1.0000   1.0000   1.0000   1.0000   1.0000   1.0000   1.0000   1.0000
     1.0000   1.0000   1.0000   1.0000   1.0000   1.0000   1.0000   1.0000
     1.0000   1.0000   1.0000   1.0000   1.0000   1.0000   1.0000   1.0000
     1.0000   1.0000   1.0000   1.0000   1.0000   1.0000   1.0000   1.0000
     1.0000   1.0000   1.0000   1.0000   1.0000   1.0000   1.0000   1.0000
     1.0000   1.0000   1.0000   1.0000   1.0000   1.0000   1.0000   1.0000
     1.0000   1.0000   1.0000   1.0000   1.0000   1.0000   1.0000   1.0000
     1.0000   1.0000   1.0000   1.0000   1.0000   1.0000   1.0000   1.0000
     1.0000   1.0000   1.0000   1.0000   1.0000   1.0000   1.0000   1.0000
     1.0000   1.0000   1.0000   1.0000   1.0000   1.0000   1.0000   1.0000
     1.0000   1.0000   1.0000   1.0000   1.0000   1.0000   1.0000   1.0000
     1.0000   1.0000   1.0000   1.0000   1.0000   1.0000   1.0000   1.0000
     1.0000   1.0000   1.0000   1.0000   1.0000   1.0000   1.0000   1.0000
     1.0000   1.0000   1.0000   1.0000   1.0000   1.0000   1.0000   1.0000

          k = 0.0191 0.0343-0.0481 (141013 PWs)   bands (ev):

   -23.9057 -23.9013 -23.8797 -23.8760 -23.5791 -23.5778 -23.5624 -23.5618
   -19.1268 -19.1264 -19.1139 -19.1136 -18.7950 -18.7949 -18.7773 -18.7766
   -18.2152 -18.2045 -17.1752 -17.1554 -17.0433 -17.0425 -16.0207 -16.0140
   -12.0933 -12.0848 -12.0348 -12.0033 -11.8488 -11.8217 -11.7572 -11.7522
    -8.8290  -8.7937  -8.2299  -8.2276  -7.5353  -7.5297  -7.3828  -7.3334
    -6.8582  -6.8106  -6.5714  -6.5451  -6.4671  -6.4534  -6.3975  -6.3769
    -6.1016  -6.0856  -5.9640  -5.9369  -5.7960  -5.7783  -5.7563  -5.7319
    -5.6782  -5.6402  -5.4469  -5.4174  -5.0900  -5.0374  -4.9223  -4.8882
    -4.4092  -4.3785  -4.2766  -4.2516  -4.1665  -4.1455  -3.9630  -3.9405
    -3.6440  -3.6224  -3.4756  -3.4412  -3.1771  -3.1649  -3.0216  -3.0171
    -0.6552  -0.6312  -0.3021  -0.2964  -0.2295  -0.2118  -0.1775  -0.1545
    -0.0840  -0.0739   0.1148   0.1489   0.2781   0.2955   0.3333   0.3601
     0.6236   0.6577   0.7262   0.7408   0.7674   0.8149   0.8791   0.8905
     1.0144   1.0312   1.1507   1.1703   1.2507   1.2639   1.3752   1.3850

     occupation numbers 
     1.0000   1.0000   1.0000   1.0000   1.0000   1.0000   1.0000   1.0000
     1.0000   1.0000   1.0000   1.0000   1.0000   1.0000   1.0000   1.0000
     1.0000   1.0000   1.0000   1.0000   1.0000   1.0000   1.0000   1.0000
     1.0000   1.0000   1.0000   1.0000   1.0000   1.0000   1.0000   1.0000
     1.0000   1.0000   1.0000   1.0000   1.0000   1.0000   1.0000   1.0000
     1.0000   1.0000   1.0000   1.0000   1.0000   1.0000   1.0000   1.0000
     1.0000   1.0000   1.0000   1.0000   1.0000   1.0000   1.0000   1.0000
     1.0000   1.0000   1.0000   1.0000   1.0000   1.0000   1.0000   1.0000
     1.0000   1.0000   1.0000   1.0000   1.0000   1.0000   1.0000   1.0000
     1.0000   1.0000   1.0000   1.0000   1.0000   1.0000   1.0000   1.0000
     1.0000   1.0000   1.0000   1.0000   1.0000   1.0000   1.0000   1.0000
     1.0000   1.0000   1.0000   1.0000   1.0000   1.0000   1.0000   1.0000
     1.0000   1.0000   1.0000   1.0000   1.0000   1.0000   1.0000   1.0000
     1.0000   1.0000   1.0000   1.0000   1.0000   1.0000   1.0000   1.0000

          k = 0.0191 0.0343-0.0132 (141064 PWs)   bands (ev):

   -23.9108 -23.9023 -23.8776 -23.8732 -23.5777 -23.5741 -23.5642 -23.5638
   -19.1289 -19.1273 -19.1133 -19.1097 -18.7913 -18.7913 -18.7802 -18.7802
   -18.2164 -18.2009 -17.1796 -17.1504 -17.0486 -17.0481 -16.0202 -16.0115
   -12.0928 -12.0821 -12.0463 -12.0061 -11.8525 -11.8226 -11.7426 -11.7345
    -8.8491  -8.8106  -8.2461  -8.2354  -7.5377  -7.5266  -7.4256  -7.3907
    -6.7771  -6.7621  -6.5668  -6.5183  -6.4808  -6.4531  -6.3576  -6.3232
    -6.0980  -6.0760  -5.9775  -5.9501  -5.8285  -5.8053  -5.7129  -5.7119
    -5.5961  -5.5843  -5.4950  -5.4841  -5.0823  -5.0513  -4.9193  -4.8972
    -4.4473  -4.4404  -4.3548  -4.3323  -4.2034  -4.1516  -3.8471  -3.8219
    -3.6638  -3.6032  -3.5064  -3.4829  -3.1539  -3.1315  -3.0290  -3.0271
    -0.7147  -0.7056  -0.2825  -0.2730  -0.2076  -0.1749  -0.1008  -0.0916
    -0.0563  -0.0349   0.1186   0.1487   0.2321   0.2677   0.3763   0.4069
     0.5859   0.6139   0.6505   0.7045   0.7593   0.7984   0.9260   0.9296
     0.9826   1.0117   1.1345   1.1600   1.2420   1.2962   1.3767   1.3834

     occupation numbers 
     1.0000   1.0000   1.0000   1.0000   1.0000   1.0000   1.0000   1.0000
     1.0000   1.0000   1.0000   1.0000   1.0000   1.0000   1.0000   1.0000
     1.0000   1.0000   1.0000   1.0000   1.0000   1.0000   1.0000   1.0000
     1.0000   1.0000   1.0000   1.0000   1.0000   1.0000   1.0000   1.0000
     1.0000   1.0000   1.0000   1.0000   1.0000   1.0000   1.0000   1.0000
     1.0000   1.0000   1.0000   1.0000   1.0000   1.0000   1.0000   1.0000
     1.0000   1.0000   1.0000   1.0000   1.0000   1.0000   1.0000   1.0000
     1.0000   1.0000   1.0000   1.0000   1.0000   1.0000   1.0000   1.0000
     1.0000   1.0000   1.0000   1.0000   1.0000   1.0000   1.0000   1.0000
     1.0000   1.0000   1.0000   1.0000   1.0000   1.0000   1.0000   1.0000
     1.0000   1.0000   1.0000   1.0000   1.0000   1.0000   1.0000   1.0000
     1.0000   1.0000   1.0000   1.0000   1.0000   1.0000   1.0000   1.0000
     1.0000   1.0000   1.0000   1.0000   1.0000   1.0000   1.0000   1.0000
     1.0000   1.0000   1.0000   1.0000   1.0000   1.0000   1.0000   1.0000

          k = 0.0574 0.0114 0.0302 (141011 PWs)   bands (ev):

   -23.9050 -23.8960 -23.8793 -23.8786 -23.5765 -23.5730 -23.5690 -23.5654
   -19.1284 -19.1241 -19.1196 -19.1097 -18.7919 -18.7909 -18.7820 -18.7803
   -18.2156 -18.2152 -17.1644 -17.1622 -17.0467 -17.0445 -16.0222 -16.0199
   -12.0720 -12.0700 -11.9936 -11.9739 -11.8254 -11.8070 -11.7601 -11.7427
    -8.8633  -8.8298  -8.2596  -8.2362  -7.5363  -7.5065  -7.4831  -7.4320
    -6.9559  -6.8847  -6.6487  -6.5237  -6.4447  -6.4035  -6.2382  -6.2026
    -6.1772  -6.1291  -5.9878  -5.9232  -5.8646  -5.8180  -5.7311  -5.7090
    -5.6218  -5.5809  -5.5267  -5.5098  -5.1328  -5.0191  -4.8991  -4.8935
    -4.4160  -4.3958  -4.3513  -4.2980  -4.0262  -3.9699  -3.8003  -3.7648
    -3.7220  -3.6135  -3.5730  -3.5642  -3.1538  -3.1476  -3.0420  -3.0092
    -0.7272  -0.7165  -0.2788  -0.2756  -0.1881  -0.1675  -0.0994  -0.0708
    -0.0411  -0.0154   0.1336   0.1522   0.2246   0.2391   0.3784   0.3987
     0.5976   0.6049   0.6724   0.7228   0.8008   0.8076   0.8954   0.9103
     0.9617   1.0113   1.0358   1.0808   1.2966   1.3286   1.3588   1.3974

     occupation numbers 
     1.0000   1.0000   1.0000   1.0000   1.0000   1.0000   1.0000   1.0000
     1.0000   1.0000   1.0000   1.0000   1.0000   1.0000   1.0000   1.0000
     1.0000   1.0000   1.0000   1.0000   1.0000   1.0000   1.0000   1.0000
     1.0000   1.0000   1.0000   1.0000   1.0000   1.0000   1.0000   1.0000
     1.0000   1.0000   1.0000   1.0000   1.0000   1.0000   1.0000   1.0000
     1.0000   1.0000   1.0000   1.0000   1.0000   1.0000   1.0000   1.0000
     1.0000   1.0000   1.0000   1.0000   1.0000   1.0000   1.0000   1.0000
     1.0000   1.0000   1.0000   1.0000   1.0000   1.0000   1.0000   1.0000
     1.0000   1.0000   1.0000   1.0000   1.0000   1.0000   1.0000   1.0000
     1.0000   1.0000   1.0000   1.0000   1.0000   1.0000   1.0000   1.0000
     1.0000   1.0000   1.0000   1.0000   1.0000   1.0000   1.0000   1.0000
     1.0000   1.0000   1.0000   1.0000   1.0000   1.0000   1.0000   1.0000
     1.0000   1.0000   1.0000   1.0000   1.0000   1.0000   1.0000   1.0000
     1.0000   1.0000   1.0000   1.0000   1.0000   1.0000   1.0000   1.0000

          k = 0.0574 0.0114 0.0650 (140984 PWs)   bands (ev):

   -23.9009 -23.8990 -23.8830 -23.8750 -23.5748 -23.5747 -23.5720 -23.5634
   -19.1291 -19.1258 -19.1200 -19.1083 -18.8019 -18.7998 -18.7741 -18.7702
   -18.2312 -18.2061 -17.1850 -17.1396 -17.0363 -17.0323 -16.0385 -16.0189
   -12.0863 -12.0776 -12.0225 -11.9458 -11.8232 -11.7805 -11.7647 -11.7469
    -8.9090  -8.7850  -8.2563  -8.2165  -7.5346  -7.5146  -7.4393  -7.3152
    -7.0580  -6.8317  -6.6549  -6.4789  -6.4663  -6.4141  -6.3952  -6.2925
    -6.2343  -6.1477  -5.9697  -5.9323  -5.8858  -5.8220  -5.7585  -5.7025
    -5.6009  -5.5503  -5.4848  -5.4066  -5.1449  -4.9817  -4.9677  -4.9027
    -4.3643  -4.3504  -4.2876  -4.2465  -3.9820  -3.9480  -3.8954  -3.8620
    -3.7451  -3.6438  -3.5780  -3.4820  -3.1978  -3.1697  -3.0388  -2.9759
    -0.8018  -0.7646  -0.2877  -0.2524  -0.1884  -0.1574  -0.0926  -0.0542
    -0.0041   0.0309   0.1942   0.2248   0.2500   0.2664   0.3432   0.4378
     0.5130   0.5283   0.5750   0.6856   0.8006   0.8287   0.8804   0.9003
     0.9955   1.0349   1.0445   1.0743   1.3096   1.3491   1.3640   1.4093

     occupation numbers 
     1.0000   1.0000   1.0000   1.0000   1.0000   1.0000   1.0000   1.0000
     1.0000   1.0000   1.0000   1.0000   1.0000   1.0000   1.0000   1.0000
     1.0000   1.0000   1.0000   1.0000   1.0000   1.0000   1.0000   1.0000
     1.0000   1.0000   1.0000   1.0000   1.0000   1.0000   1.0000   1.0000
     1.0000   1.0000   1.0000   1.0000   1.0000   1.0000   1.0000   1.0000
     1.0000   1.0000   1.0000   1.0000   1.0000   1.0000   1.0000   1.0000
     1.0000   1.0000   1.0000   1.0000   1.0000   1.0000   1.0000   1.0000
     1.0000   1.0000   1.0000   1.0000   1.0000   1.0000   1.0000   1.0000
     1.0000   1.0000   1.0000   1.0000   1.0000   1.0000   1.0000   1.0000
     1.0000   1.0000   1.0000   1.0000   1.0000   1.0000   1.0000   1.0000
     1.0000   1.0000   1.0000   1.0000   1.0000   1.0000   1.0000   1.0000
     1.0000   1.0000   1.0000   1.0000   1.0000   1.0000   1.0000   1.0000
     1.0000   1.0000   1.0000   1.0000   1.0000   1.0000   1.0000   1.0000
     1.0000   1.0000   1.0000   1.0000   1.0000   1.0000   1.0000   1.0000

          k = 0.0574 0.0114-0.0396 (140999 PWs)   bands (ev):

   -23.9034 -23.8970 -23.8847 -23.8728 -23.5781 -23.5771 -23.5676 -23.5619
   -19.1273 -19.1248 -19.1203 -19.1111 -18.8027 -18.8008 -18.7732 -18.7693
   -18.2360 -18.1999 -17.1953 -17.1288 -17.0392 -17.0359 -16.0380 -16.0126
   -12.0925 -12.0793 -12.0445 -11.9239 -11.8392 -11.7669 -11.7597 -11.7486
    -8.9040  -8.7600  -8.2505  -8.2177  -7.5338  -7.5195  -7.4625  -7.3022
    -7.0767  -6.8326  -6.6424  -6.5035  -6.4673  -6.4493  -6.3852  -6.3200
    -6.2379  -6.1638  -5.9542  -5.9014  -5.8435  -5.8305  -5.7591  -5.7173
    -5.5784  -5.5465  -5.4922  -5.4052  -5.1351  -5.0039  -4.9407  -4.8908
    -4.3692  -4.3254  -4.2879  -4.2618  -4.0092  -3.9885  -3.8480  -3.8330
    -3.6960  -3.6759  -3.6337  -3.4873  -3.2026  -3.1646  -3.0343  -2.9816
    -0.7592  -0.6999  -0.2802  -0.2285  -0.2005  -0.1782  -0.0996  -0.0789
    -0.0638  -0.0244   0.1273   0.2188   0.2430   0.2947   0.3054   0.3291
     0.5556   0.6280   0.6608   0.6831   0.7977   0.8284   0.8976   0.9132
     0.9886   1.0183   1.0620   1.1256   1.3250   1.3412   1.3469   1.3738

     occupation numbers 
     1.0000   1.0000   1.0000   1.0000   1.0000   1.0000   1.0000   1.0000
     1.0000   1.0000   1.0000   1.0000   1.0000   1.0000   1.0000   1.0000
     1.0000   1.0000   1.0000   1.0000   1.0000   1.0000   1.0000   1.0000
     1.0000   1.0000   1.0000   1.0000   1.0000   1.0000   1.0000   1.0000
     1.0000   1.0000   1.0000   1.0000   1.0000   1.0000   1.0000   1.0000
     1.0000   1.0000   1.0000   1.0000   1.0000   1.0000   1.0000   1.0000
     1.0000   1.0000   1.0000   1.0000   1.0000   1.0000   1.0000   1.0000
     1.0000   1.0000   1.0000   1.0000   1.0000   1.0000   1.0000   1.0000
     1.0000   1.0000   1.0000   1.0000   1.0000   1.0000   1.0000   1.0000
     1.0000   1.0000   1.0000   1.0000   1.0000   1.0000   1.0000   1.0000
     1.0000   1.0000   1.0000   1.0000   1.0000   1.0000   1.0000   1.0000
     1.0000   1.0000   1.0000   1.0000   1.0000   1.0000   1.0000   1.0000
     1.0000   1.0000   1.0000   1.0000   1.0000   1.0000   1.0000   1.0000
     1.0000   1.0000   1.0000   1.0000   1.0000   1.0000   1.0000   1.0000

          k = 0.0574 0.0114-0.0047 (140996 PWs)   bands (ev):

   -23.9062 -23.8954 -23.8831 -23.8743 -23.5790 -23.5755 -23.5655 -23.5638
   -19.1260 -19.1247 -19.1160 -19.1154 -18.7939 -18.7933 -18.7796 -18.7781
   -18.2278 -18.2016 -17.1874 -17.1385 -17.0489 -17.0487 -16.0259 -16.0095
   -12.0797 -12.0702 -12.0330 -11.9344 -11.8491 -11.7837 -11.7536 -11.7482
    -8.8731  -8.7894  -8.2473  -8.2443  -7.5296  -7.5226  -7.5158  -7.4069
    -6.9728  -6.8805  -6.6055  -6.5803  -6.4380  -6.4345  -6.2757  -6.2449
    -6.1607  -6.1517  -5.9263  -5.8875  -5.8340  -5.8079  -5.7432  -5.7351
    -5.6000  -5.5859  -5.5231  -5.5099  -5.0912  -5.0704  -4.8796  -4.8725
    -4.4173  -4.3923  -4.3420  -4.3102  -4.0328  -3.9957  -3.7637  -3.7527
    -3.6889  -3.6616  -3.6129  -3.5599  -3.1696  -3.1337  -3.0353  -3.0160
    -0.6731  -0.6262  -0.2815  -0.2711  -0.1957  -0.1906  -0.1607  -0.1544
    -0.0542  -0.0266   0.0901   0.1586   0.2043   0.2469   0.3489   0.3869
     0.5752   0.6490   0.7380   0.7625   0.7933   0.8303   0.9116   0.9336
     0.9649   0.9778   1.0446   1.1283   1.3137   1.3197   1.3393   1.3592

     occupation numbers 
     1.0000   1.0000   1.0000   1.0000   1.0000   1.0000   1.0000   1.0000
     1.0000   1.0000   1.0000   1.0000   1.0000   1.0000   1.0000   1.0000
     1.0000   1.0000   1.0000   1.0000   1.0000   1.0000   1.0000   1.0000
     1.0000   1.0000   1.0000   1.0000   1.0000   1.0000   1.0000   1.0000
     1.0000   1.0000   1.0000   1.0000   1.0000   1.0000   1.0000   1.0000
     1.0000   1.0000   1.0000   1.0000   1.0000   1.0000   1.0000   1.0000
     1.0000   1.0000   1.0000   1.0000   1.0000   1.0000   1.0000   1.0000
     1.0000   1.0000   1.0000   1.0000   1.0000   1.0000   1.0000   1.0000
     1.0000   1.0000   1.0000   1.0000   1.0000   1.0000   1.0000   1.0000
     1.0000   1.0000   1.0000   1.0000   1.0000   1.0000   1.0000   1.0000
     1.0000   1.0000   1.0000   1.0000   1.0000   1.0000   1.0000   1.0000
     1.0000   1.0000   1.0000   1.0000   1.0000   1.0000   1.0000   1.0000
     1.0000   1.0000   1.0000   1.0000   1.0000   1.0000   1.0000   1.0000
     1.0000   1.0000   1.0000   1.0000   1.0000   1.0000   1.0000   1.0000

          k = 0.0574 0.0343 0.0302 (141038 PWs)   bands (ev):

   -23.9022 -23.8983 -23.8795 -23.8791 -23.5746 -23.5732 -23.5688 -23.5672
   -19.1283 -19.1271 -19.1149 -19.1114 -18.7916 -18.7912 -18.7815 -18.7808
   -18.2155 -18.2153 -17.1640 -17.1631 -17.0458 -17.0449 -16.0216 -16.0206
   -12.0716 -12.0707 -11.9863 -11.9780 -11.8219 -11.8141 -11.7548 -11.7476
    -8.8534  -8.8395  -8.2494  -8.2395  -7.5260  -7.5143  -7.4730  -7.4510
    -6.9585  -6.9344  -6.5731  -6.5293  -6.4249  -6.3994  -6.2674  -6.2331
    -6.1657  -6.1378  -5.9595  -5.9332  -5.8550  -5.8318  -5.7331  -5.7105
    -5.6034  -5.5929  -5.5202  -5.5108  -5.1024  -5.0553  -4.9036  -4.9001
    -4.4093  -4.3970  -4.3389  -4.3182  -4.0019  -3.9768  -3.7882  -3.7699
    -3.6972  -3.6501  -3.5713  -3.5641  -3.1515  -3.1482  -3.0365  -3.0222
    -0.7202  -0.7157  -0.2705  -0.2645  -0.2217  -0.2031  -0.0790  -0.0564
    -0.0367  -0.0225   0.1439   0.1628   0.2321   0.2459   0.3764   0.3866
     0.6225   0.6289   0.6512   0.6847   0.7986   0.8041   0.9012   0.9224
     0.9712   1.0044   1.0401   1.0606   1.3067   1.3195   1.3714   1.3868

     occupation numbers 
     1.0000   1.0000   1.0000   1.0000   1.0000   1.0000   1.0000   1.0000
     1.0000   1.0000   1.0000   1.0000   1.0000   1.0000   1.0000   1.0000
     1.0000   1.0000   1.0000   1.0000   1.0000   1.0000   1.0000   1.0000
     1.0000   1.0000   1.0000   1.0000   1.0000   1.0000   1.0000   1.0000
     1.0000   1.0000   1.0000   1.0000   1.0000   1.0000   1.0000   1.0000
     1.0000   1.0000   1.0000   1.0000   1.0000   1.0000   1.0000   1.0000
     1.0000   1.0000   1.0000   1.0000   1.0000   1.0000   1.0000   1.0000
     1.0000   1.0000   1.0000   1.0000   1.0000   1.0000   1.0000   1.0000
     1.0000   1.0000   1.0000   1.0000   1.0000   1.0000   1.0000   1.0000
     1.0000   1.0000   1.0000   1.0000   1.0000   1.0000   1.0000   1.0000
     1.0000   1.0000   1.0000   1.0000   1.0000   1.0000   1.0000   1.0000
     1.0000   1.0000   1.0000   1.0000   1.0000   1.0000   1.0000   1.0000
     1.0000   1.0000   1.0000   1.0000   1.0000   1.0000   1.0000   1.0000
     1.0000   1.0000   1.0000   1.0000   1.0000   1.0000   1.0000   1.0000

          k = 0.0574 0.0343 0.0650 (141019 PWs)   bands (ev):

   -23.9000 -23.8992 -23.8811 -23.8777 -23.5746 -23.5745 -23.5696 -23.5660
   -19.1294 -19.1285 -19.1147 -19.1105 -18.8013 -18.8004 -18.7730 -18.7713
   -18.2241 -18.2137 -17.1717 -17.1529 -17.0351 -17.0335 -16.0326 -16.0245
   -12.0868 -12.0836 -11.9974 -11.9669 -11.8094 -11.7920 -11.7597 -11.7523
    -8.8739  -8.8227  -8.2431  -8.2265  -7.5079  -7.4990  -7.4350  -7.3774
    -7.0155  -6.9359  -6.5591  -6.5031  -6.4533  -6.4360  -6.3508  -6.2947
    -6.2178  -6.1655  -5.9491  -5.9284  -5.8742  -5.8475  -5.7738  -5.7374
    -5.5932  -5.5731  -5.4520  -5.4205  -5.1066  -5.0372  -4.9478  -4.9191
    -4.3493  -4.3290  -4.2850  -4.2507  -3.9686  -3.9553  -3.8904  -3.8761
    -3.7222  -3.6865  -3.5427  -3.5060  -3.1902  -3.1787  -3.0209  -2.9948
    -0.7874  -0.7722  -0.2758  -0.2597  -0.2143  -0.2037  -0.0685  -0.0561
     0.0253   0.0385   0.2101   0.2205   0.2646   0.2769   0.3639   0.4093
     0.4969   0.5061   0.6291   0.6854   0.7755   0.8081   0.8916   0.9037
     0.9819   1.0059   1.0693   1.0837   1.3202   1.3360   1.3777   1.3958

     occupation numbers 
     1.0000   1.0000   1.0000   1.0000   1.0000   1.0000   1.0000   1.0000
     1.0000   1.0000   1.0000   1.0000   1.0000   1.0000   1.0000   1.0000
     1.0000   1.0000   1.0000   1.0000   1.0000   1.0000   1.0000   1.0000
     1.0000   1.0000   1.0000   1.0000   1.0000   1.0000   1.0000   1.0000
     1.0000   1.0000   1.0000   1.0000   1.0000   1.0000   1.0000   1.0000
     1.0000   1.0000   1.0000   1.0000   1.0000   1.0000   1.0000   1.0000
     1.0000   1.0000   1.0000   1.0000   1.0000   1.0000   1.0000   1.0000
     1.0000   1.0000   1.0000   1.0000   1.0000   1.0000   1.0000   1.0000
     1.0000   1.0000   1.0000   1.0000   1.0000   1.0000   1.0000   1.0000
     1.0000   1.0000   1.0000   1.0000   1.0000   1.0000   1.0000   1.0000
     1.0000   1.0000   1.0000   1.0000   1.0000   1.0000   1.0000   1.0000
     1.0000   1.0000   1.0000   1.0000   1.0000   1.0000   1.0000   1.0000
     1.0000   1.0000   1.0000   1.0000   1.0000   1.0000   1.0000   1.0000
     1.0000   1.0000   1.0000   1.0000   1.0000   1.0000   1.0000   1.0000

          k = 0.0574 0.0343-0.0396 (140973 PWs)   bands (ev):

   -23.9017 -23.8992 -23.8809 -23.8761 -23.5776 -23.5772 -23.5661 -23.5637
   -19.1279 -19.1274 -19.1157 -19.1124 -18.8021 -18.8013 -18.7720 -18.7705
   -18.2258 -18.2109 -17.1755 -17.1480 -17.0384 -17.0370 -16.0303 -16.0198
   -12.0926 -12.0883 -12.0102 -11.9650 -11.8090 -11.7822 -11.7560 -11.7518
    -8.8639  -8.8045  -8.2405  -8.2268  -7.5130  -7.4957  -7.4515  -7.3717
    -7.0216  -6.9335  -6.5580  -6.5162  -6.4668  -6.4461  -6.4007  -6.3435
    -6.1828  -6.1400  -5.9451  -5.9133  -5.8549  -5.8498  -5.7667  -5.7379
    -5.5761  -5.5628  -5.4516  -5.4161  -5.1203  -5.0663  -4.9147  -4.8926
    -4.3688  -4.3512  -4.2559  -4.2392  -4.0000  -3.9922  -3.8460  -3.8401
    -3.7035  -3.6949  -3.5817  -3.5246  -3.1895  -3.1729  -3.0229  -3.0005
    -0.7391  -0.7142  -0.2719  -0.2524  -0.2212  -0.2053  -0.0813  -0.0718
    -0.0387  -0.0136   0.1587   0.1940   0.2502   0.2702   0.3128   0.3352
     0.5809   0.6107   0.6882   0.6951   0.7895   0.8038   0.8872   0.8921
     0.9931   1.0139   1.0900   1.1135   1.3283   1.3364   1.3524   1.3649

     occupation numbers 
     1.0000   1.0000   1.0000   1.0000   1.0000   1.0000   1.0000   1.0000
     1.0000   1.0000   1.0000   1.0000   1.0000   1.0000   1.0000   1.0000
     1.0000   1.0000   1.0000   1.0000   1.0000   1.0000   1.0000   1.0000
     1.0000   1.0000   1.0000   1.0000   1.0000   1.0000   1.0000   1.0000
     1.0000   1.0000   1.0000   1.0000   1.0000   1.0000   1.0000   1.0000
     1.0000   1.0000   1.0000   1.0000   1.0000   1.0000   1.0000   1.0000
     1.0000   1.0000   1.0000   1.0000   1.0000   1.0000   1.0000   1.0000
     1.0000   1.0000   1.0000   1.0000   1.0000   1.0000   1.0000   1.0000
     1.0000   1.0000   1.0000   1.0000   1.0000   1.0000   1.0000   1.0000
     1.0000   1.0000   1.0000   1.0000   1.0000   1.0000   1.0000   1.0000
     1.0000   1.0000   1.0000   1.0000   1.0000   1.0000   1.0000   1.0000
     1.0000   1.0000   1.0000   1.0000   1.0000   1.0000   1.0000   1.0000
     1.0000   1.0000   1.0000   1.0000   1.0000   1.0000   1.0000   1.0000
     1.0000   1.0000   1.0000   1.0000   1.0000   1.0000   1.0000   1.0000

          k = 0.0574 0.0343-0.0047 (141027 PWs)   bands (ev):

   -23.9033 -23.8989 -23.8802 -23.8766 -23.5776 -23.5761 -23.5654 -23.5646
   -19.1265 -19.1260 -19.1149 -19.1146 -18.7937 -18.7934 -18.7792 -18.7786
   -18.2203 -18.2095 -17.1730 -17.1528 -17.0488 -17.0487 -16.0210 -16.0142
   -12.0785 -12.0753 -12.0068 -11.9689 -11.8233 -11.7985 -11.7518 -11.7492
    -8.8493  -8.8147  -8.2452  -8.2422  -7.5266  -7.5241  -7.4879  -7.4426
    -6.9602  -6.9234  -6.5653  -6.5543  -6.4260  -6.4193  -6.3314  -6.3188
    -6.1123  -6.1063  -5.9347  -5.9134  -5.8294  -5.8182  -5.7240  -5.7185
    -5.6040  -5.5896  -5.5193  -5.5145  -5.0961  -5.0846  -4.8757  -4.8740
    -4.4187  -4.4025  -4.3383  -4.3142  -4.0092  -3.9932  -3.7646  -3.7613
    -3.6639  -3.6382  -3.6259  -3.5882  -3.1576  -3.1416  -3.0359  -3.0286
    -0.6574  -0.6379  -0.2697  -0.2621  -0.2120  -0.1900  -0.1768  -0.1577
    -0.0552  -0.0344   0.1128   0.1414   0.2261   0.2473   0.3593   0.3800
     0.6067   0.6445   0.7231   0.7469   0.7868   0.8178   0.9183   0.9239
     0.9828   0.9914   1.0595   1.0981   1.3159   1.3173   1.3450   1.3535

     occupation numbers 
     1.0000   1.0000   1.0000   1.0000   1.0000   1.0000   1.0000   1.0000
     1.0000   1.0000   1.0000   1.0000   1.0000   1.0000   1.0000   1.0000
     1.0000   1.0000   1.0000   1.0000   1.0000   1.0000   1.0000   1.0000
     1.0000   1.0000   1.0000   1.0000   1.0000   1.0000   1.0000   1.0000
     1.0000   1.0000   1.0000   1.0000   1.0000   1.0000   1.0000   1.0000
     1.0000   1.0000   1.0000   1.0000   1.0000   1.0000   1.0000   1.0000
     1.0000   1.0000   1.0000   1.0000   1.0000   1.0000   1.0000   1.0000
     1.0000   1.0000   1.0000   1.0000   1.0000   1.0000   1.0000   1.0000
     1.0000   1.0000   1.0000   1.0000   1.0000   1.0000   1.0000   1.0000
     1.0000   1.0000   1.0000   1.0000   1.0000   1.0000   1.0000   1.0000
     1.0000   1.0000   1.0000   1.0000   1.0000   1.0000   1.0000   1.0000
     1.0000   1.0000   1.0000   1.0000   1.0000   1.0000   1.0000   1.0000
     1.0000   1.0000   1.0000   1.0000   1.0000   1.0000   1.0000   1.0000
     1.0000   1.0000   1.0000   1.0000   1.0000   1.0000   1.0000   1.0000

     highest occupied level (ev):     1.4093

!    total energy              =   -1282.01931694 Ry
     Harris-Foulkes estimate   =   -1282.01931754 Ry
     estimated scf accuracy    <       0.00000066 Ry

     total all-electron energy =     -4786.463065 Ry

     The total energy is the sum of the following terms:

     one-electron contribution =    -638.55359528 Ry
     hartree contribution      =     417.72291450 Ry
     xc contribution           =    -260.22049806 Ry
     ewald contribution        =    -470.57443281 Ry
     one-center paw contrib.   =    -330.39370529 Ry

     convergence has been achieved in  22 iterations

     Forces acting on atoms (Ry/au):

     atom    1 type  1   force =    -0.01383927   -0.00776673   -0.01460926
     atom    2 type  4   force =     0.02959749    0.00618615   -0.02203213
     atom    3 type  1   force =    -0.00205799   -0.00861437   -0.01135102
     atom    4 type  1   force =     0.00582796    0.00113737    0.00031498
     atom    5 type  4   force =     0.00256972   -0.02725389    0.02998368
     atom    6 type  1   force =     0.01373258    0.00085875   -0.00479032
     atom    7 type  4   force =    -0.01125798    0.02092951    0.04338253
     atom    8 type  2   force =     0.18120421   -0.11573589    0.05331010
     atom    9 type  3   force =    -0.13525561   -0.06097974   -0.13922972
     atom   10 type  3   force =    -0.04639660    0.18194359    0.08164131
     atom   11 type  4   force =    -0.03436406    0.02177013   -0.01571084
     atom   12 type  2   force =     0.12423327   -0.05317679    0.21230587
     atom   13 type  3   force =    -0.19846220   -0.10111535   -0.06158808
     atom   14 type  3   force =     0.06584910    0.15444378   -0.15372767
     atom   15 type  3   force =     0.06584910   -0.15444378   -0.15372767
     atom   16 type  3   force =    -0.19846220    0.10111535   -0.06158808
     atom   17 type  2   force =     0.12423327    0.05317679    0.21230587
     atom   18 type  4   force =    -0.03436406   -0.02177013   -0.01571084
     atom   19 type  3   force =    -0.04639660   -0.18194359    0.08164131
     atom   20 type  3   force =    -0.13525561    0.06097974   -0.13922972
     atom   21 type  2   force =     0.18120421    0.11573589    0.05331010
     atom   22 type  4   force =    -0.01125798   -0.02092951    0.04338253
     atom   23 type  1   force =     0.01373258   -0.00085875   -0.00479032
     atom   24 type  4   force =     0.00256972    0.02725389    0.02998368
     atom   25 type  1   force =     0.00582796   -0.00113737    0.00031498
     atom   26 type  1   force =    -0.00205799    0.00861437   -0.01135102
     atom   27 type  4   force =     0.02959749   -0.00618615   -0.02203213
     atom   28 type  1   force =    -0.01383927    0.00776673   -0.01460926
     atom   29 type  3   force =    -0.06584910   -0.15444378    0.15372767
     atom   30 type  3   force =     0.19846220    0.10111535    0.06158808
     atom   31 type  2   force =    -0.12423327    0.05317679   -0.21230587
     atom   32 type  4   force =     0.03436406   -0.02177013    0.01571084
     atom   33 type  3   force =     0.04639660   -0.18194359   -0.08164131
     atom   34 type  3   force =     0.13525561    0.06097974    0.13922972
     atom   35 type  2   force =    -0.18120421    0.11573589   -0.05331010
     atom   36 type  4   force =     0.01125798   -0.02092951   -0.04338253
     atom   37 type  1   force =    -0.01373258   -0.00085875    0.00479032
     atom   38 type  4   force =    -0.00256972    0.02725389   -0.02998368
     atom   39 type  1   force =    -0.00582796   -0.00113737   -0.00031498
     atom   40 type  1   force =     0.00205799    0.00861437    0.01135102
     atom   41 type  4   force =    -0.02959749   -0.00618615    0.02203213
     atom   42 type  1   force =     0.01383927    0.00776673    0.01460926
     atom   43 type  3   force =    -0.06584910    0.15444378    0.15372767
     atom   44 type  3   force =     0.19846220   -0.10111535    0.06158808
     atom   45 type  2   force =    -0.12423327   -0.05317679   -0.21230587
     atom   46 type  4   force =     0.03436406    0.02177013    0.01571084
     atom   47 type  3   force =     0.04639660    0.18194359   -0.08164131
     atom   48 type  3   force =     0.13525561   -0.06097974    0.13922972
     atom   49 type  2   force =    -0.18120421   -0.11573589   -0.05331010
     atom   50 type  4   force =     0.01125798    0.02092951   -0.04338253
     atom   51 type  1   force =    -0.01373258    0.00085875    0.00479032
     atom   52 type  4   force =    -0.00256972   -0.02725389   -0.02998368
     atom   53 type  1   force =    -0.00582796    0.00113737   -0.00031498
     atom   54 type  1   force =     0.00205799   -0.00861437    0.01135102
     atom   55 type  4   force =    -0.02959749    0.00618615    0.02203213
     atom   56 type  1   force =     0.01383927   -0.00776673    0.01460926
     The non-local contrib.  to forces
     atom    1 type  1   force =     0.17145554    0.38635356    0.11104258
     atom    2 type  4   force =    -2.40952479   -0.47903602    1.52734695
     atom    3 type  1   force =     0.04291509   -0.03294063    0.05442628
     atom    4 type  1   force =    -0.57536203   -0.41452732   -0.12147381
     atom    5 type  4   force =     0.14680146    1.86260950   -2.22530602
     atom    6 type  1   force =    -0.00452499    0.06341016    0.05247810
     atom    7 type  4   force =     0.53248135   -1.16749569   -2.62369665
     atom    8 type  2   force =     0.64470952   -0.43829055    0.17957104
     atom    9 type  3   force =     0.07926871    0.02750914    0.06972738
     atom   10 type  3   force =     0.02911404   -0.09913980   -0.03935856
     atom   11 type  4   force =     2.27607128   -1.47878522    0.83099032
     atom   12 type  2   force =     0.39019833   -0.18696990    0.69936173
     atom   13 type  3   force =     0.09460424    0.04880455    0.03789396
     atom   14 type  3   force =    -0.02893267   -0.07464916    0.08061773
     atom   15 type  3   force =    -0.02893267    0.07464916    0.08061773
     atom   16 type  3   force =     0.09460424   -0.04880455    0.03789396
     atom   17 type  2   force =     0.39019833    0.18696990    0.69936173
     atom   18 type  4   force =     2.27607128    1.47878522    0.83099032
     atom   19 type  3   force =     0.02911404    0.09913980   -0.03935856
     atom   20 type  3   force =     0.07926871   -0.02750914    0.06972738
     atom   21 type  2   force =     0.64470952    0.43829055    0.17957104
     atom   22 type  4   force =     0.53248135    1.16749569   -2.62369665
     atom   23 type  1   force =    -0.00452499   -0.06341016    0.05247810
     atom   24 type  4   force =     0.14680146   -1.86260950   -2.22530602
     atom   25 type  1   force =    -0.57536203    0.41452732   -0.12147381
     atom   26 type  1   force =     0.04291509    0.03294063    0.05442628
     atom   27 type  4   force =    -2.40952479    0.47903602    1.52734695
     atom   28 type  1   force =     0.17145554   -0.38635356    0.11104258
     atom   29 type  3   force =     0.02893267    0.07464916   -0.08061773
     atom   30 type  3   force =    -0.09460424   -0.04880455   -0.03789396
     atom   31 type  2   force =    -0.39019833    0.18696990   -0.69936173
     atom   32 type  4   force =    -2.27607128    1.47878522   -0.83099032
     atom   33 type  3   force =    -0.02911404    0.09913980    0.03935856
     atom   34 type  3   force =    -0.07926871   -0.02750914   -0.06972738
     atom   35 type  2   force =    -0.64470952    0.43829055   -0.17957104
     atom   36 type  4   force =    -0.53248135    1.16749569    2.62369665
     atom   37 type  1   force =     0.00452499   -0.06341016   -0.05247810
     atom   38 type  4   force =    -0.14680146   -1.86260950    2.22530602
     atom   39 type  1   force =     0.57536203    0.41452732    0.12147381
     atom   40 type  1   force =    -0.04291509    0.03294063   -0.05442628
     atom   41 type  4   force =     2.40952479    0.47903602   -1.52734695
     atom   42 type  1   force =    -0.17145554   -0.38635356   -0.11104258
     atom   43 type  3   force =     0.02893267   -0.07464916   -0.08061773
     atom   44 type  3   force =    -0.09460424    0.04880455   -0.03789396
     atom   45 type  2   force =    -0.39019833   -0.18696990   -0.69936173
     atom   46 type  4   force =    -2.27607128   -1.47878522   -0.83099032
     atom   47 type  3   force =    -0.02911404   -0.09913980    0.03935856
     atom   48 type  3   force =    -0.07926871    0.02750914   -0.06972738
     atom   49 type  2   force =    -0.64470952   -0.43829055   -0.17957104
     atom   50 type  4   force =    -0.53248135   -1.16749569    2.62369665
     atom   51 type  1   force =     0.00452499    0.06341016   -0.05247810
     atom   52 type  4   force =    -0.14680146    1.86260950    2.22530602
     atom   53 type  1   force =     0.57536203   -0.41452732    0.12147381
     atom   54 type  1   force =    -0.04291509   -0.03294063   -0.05442628
     atom   55 type  4   force =     2.40952479   -0.47903602   -1.52734695
     atom   56 type  1   force =    -0.17145554    0.38635356   -0.11104258
     The ionic contribution  to forces
     atom    1 type  1   force =    -3.02387657    0.23660129   -2.00927268
     atom    2 type  4   force =    12.24933486    4.29112474   -5.98154866
     atom    3 type  1   force =    -0.23583075    1.63139269   -0.00479884
     atom    4 type  1   force =     2.74477508    2.79019927    2.01307012
     atom    5 type  4   force =    -1.30946770   -8.59289141   11.32894774
     atom    6 type  1   force =    -0.38423696    0.05779432    1.08471183
     atom    7 type  4   force =    -2.06820689    6.30441879   12.48277303
     atom    8 type  2   force =    -4.04476332    3.23167947   -1.20395388
     atom    9 type  3   force =    -2.26197342   -0.15470241   -2.00865049
     atom   10 type  3   force =    -1.24600772    2.81197799    0.72629677
     atom   11 type  4   force =   -11.15006802    6.18242246   -2.29612313
     atom   12 type  2   force =    -2.86515807    1.00471966   -4.70567984
     atom   13 type  3   force =    -2.62752738   -1.07739290   -1.56905091
     atom   14 type  3   force =     0.24884752    2.04556841   -2.53310746
     atom   15 type  3   force =     0.24884752   -2.04556841   -2.53310746
     atom   16 type  3   force =    -2.62752738    1.07739290   -1.56905091
     atom   17 type  2   force =    -2.86515807   -1.00471966   -4.70567984
     atom   18 type  4   force =   -11.15006802   -6.18242246   -2.29612313
     atom   19 type  3   force =    -1.24600772   -2.81197799    0.72629677
     atom   20 type  3   force =    -2.26197342    0.15470241   -2.00865049
     atom   21 type  2   force =    -4.04476332   -3.23167947   -1.20395388
     atom   22 type  4   force =    -2.06820689   -6.30441879   12.48277303
     atom   23 type  1   force =    -0.38423696   -0.05779432    1.08471183
     atom   24 type  4   force =    -1.30946770    8.59289141   11.32894774
     atom   25 type  1   force =     2.74477508   -2.79019927    2.01307012
     atom   26 type  1   force =    -0.23583075   -1.63139269   -0.00479884
     atom   27 type  4   force =    12.24933486   -4.29112474   -5.98154866
     atom   28 type  1   force =    -3.02387657   -0.23660129   -2.00927268
     atom   29 type  3   force =    -0.24884752   -2.04556841    2.53310746
     atom   30 type  3   force =     2.62752738    1.07739290    1.56905091
     atom   31 type  2   force =     2.86515807   -1.00471966    4.70567984
     atom   32 type  4   force =    11.15006802   -6.18242246    2.29612313
     atom   33 type  3   force =     1.24600772   -2.81197799   -0.72629677
     atom   34 type  3   force =     2.26197342    0.15470241    2.00865049
     atom   35 type  2   force =     4.04476332   -3.23167947    1.20395388
     atom   36 type  4   force =     2.06820689   -6.30441879  -12.48277303
     atom   37 type  1   force =     0.38423696   -0.05779432   -1.08471183
     atom   38 type  4   force =     1.30946770    8.59289141  -11.32894774
     atom   39 type  1   force =    -2.74477508   -2.79019927   -2.01307012
     atom   40 type  1   force =     0.23583075   -1.63139269    0.00479884
     atom   41 type  4   force =   -12.24933486   -4.29112474    5.98154866
     atom   42 type  1   force =     3.02387657   -0.23660129    2.00927268
     atom   43 type  3   force =    -0.24884752    2.04556841    2.53310746
     atom   44 type  3   force =     2.62752738   -1.07739290    1.56905091
     atom   45 type  2   force =     2.86515807    1.00471966    4.70567984
     atom   46 type  4   force =    11.15006802    6.18242246    2.29612313
     atom   47 type  3   force =     1.24600772    2.81197799   -0.72629677
     atom   48 type  3   force =     2.26197342   -0.15470241    2.00865049
     atom   49 type  2   force =     4.04476332    3.23167947    1.20395388
     atom   50 type  4   force =     2.06820689    6.30441879  -12.48277303
     atom   51 type  1   force =     0.38423696    0.05779432   -1.08471183
     atom   52 type  4   force =     1.30946770   -8.59289141  -11.32894774
     atom   53 type  1   force =    -2.74477508    2.79019927   -2.01307012
     atom   54 type  1   force =     0.23583075    1.63139269    0.00479884
     atom   55 type  4   force =   -12.24933486    4.29112474    5.98154866
     atom   56 type  1   force =     3.02387657    0.23660129    2.00927268
     The local contribution  to forces
     atom    1 type  1   force =     2.84147011   -0.62425764    1.88548913
     atom    2 type  4   force =    -9.82911374   -3.80958393    4.44421328
     atom    3 type  1   force =     0.19013963   -1.60867990   -0.06049148
     atom    4 type  1   force =    -2.17283420   -2.38073217   -1.89294982
     atom    5 type  4   force =     1.16633794    6.71744640   -9.09106450
     atom    6 type  1   force =     0.40354357   -0.11858039   -1.14199316
     atom    7 type  4   force =     1.52851414   -5.12483683   -9.83575094
     atom    8 type  2   force =     3.59518411   -2.91904695    1.08249081
     atom    9 type  3   force =     2.04745859    0.06621345    1.79968808
     atom   10 type  3   force =     1.17051858   -2.53091191   -0.60531046
     atom   11 type  4   force =     8.85725071   -4.69341777    1.45593584
     atom   12 type  2   force =     2.60806528   -0.87477028    4.23446166
     atom   13 type  3   force =     2.33444799    0.92747245    1.46958397
     atom   14 type  3   force =    -0.15408954   -1.81647717    2.29877159
     atom   15 type  3   force =    -0.15408954    1.81647717    2.29877159
     atom   16 type  3   force =     2.33444799   -0.92747245    1.46958397
     atom   17 type  2   force =     2.60806528    0.87477028    4.23446166
     atom   18 type  4   force =     8.85725071    4.69341777    1.45593584
     atom   19 type  3   force =     1.17051858    2.53091191   -0.60531046
     atom   20 type  3   force =     2.04745859   -0.06621345    1.79968808
     atom   21 type  2   force =     3.59518411    2.91904695    1.08249081
     atom   22 type  4   force =     1.52851414    5.12483683   -9.83575094
     atom   23 type  1   force =     0.40354357    0.11858039   -1.14199316
     atom   24 type  4   force =     1.16633794   -6.71744640   -9.09106450
     atom   25 type  1   force =    -2.17283420    2.38073217   -1.89294982
     atom   26 type  1   force =     0.19013963    1.60867990   -0.06049148
     atom   27 type  4   force =    -9.82911374    3.80958393    4.44421328
     atom   28 type  1   force =     2.84147011    0.62425764    1.88548913
     atom   29 type  3   force =     0.15408954    1.81647717   -2.29877159
     atom   30 type  3   force =    -2.33444799   -0.92747245   -1.46958397
     atom   31 type  2   force =    -2.60806528    0.87477028   -4.23446166
     atom   32 type  4   force =    -8.85725071    4.69341777   -1.45593584
     atom   33 type  3   force =    -1.17051858    2.53091191    0.60531046
     atom   34 type  3   force =    -2.04745859   -0.06621345   -1.79968808
[...]
     atom   38 type  4   force =    -1.16633794   -6.71744640    9.09106450
     atom   39 type  1   force =     2.17283420    2.38073217    1.89294982
     atom   40 type  1   force =    -0.19013963    1.60867990    0.06049148
     atom   41 type  4   force =     9.82911374    3.80958393   -4.44421328
     atom   42 type  1   force =    -2.84147011    0.62425764   -1.88548913
     atom   43 type  3   force =     0.15408954   -1.81647717   -2.29877159
     atom   44 type  3   force =    -2.33444799    0.92747245   -1.46958397
     atom   45 type  2   force =    -2.60806528   -0.87477028   -4.23446166
     atom   46 type  4   force =    -8.85725071   -4.69341777   -1.45593584
     atom   47 type  3   force =    -1.17051858   -2.53091191    0.60531046
     atom   48 type  3   force =    -2.04745859    0.06621345   -1.79968808
     atom   49 type  2   force =    -3.59518411   -2.91904695   -1.08249081
     atom   50 type  4   force =    -1.52851414   -5.12483683    9.83575094
     atom   51 type  1   force =    -0.40354357   -0.11858039    1.14199316
     atom   52 type  4   force =    -1.16633794    6.71744640    9.09106450
     atom   53 type  1   force =     2.17283420   -2.38073217    1.89294982
     atom   54 type  1   force =    -0.19013963   -1.60867990    0.06049148
     atom   55 type  4   force =     9.82911374   -3.80958393   -4.44421328
     atom   56 type  1   force =    -2.84147011   -0.62425764   -1.88548913
     The core correction contribution to forces
     atom    1 type  1   force =    -0.00298731   -0.00645443   -0.00178756
     atom    2 type  4   force =     0.01875517    0.00366274   -0.01188563
     atom    3 type  1   force =     0.00037828    0.00167876   -0.00000173
     atom    4 type  1   force =     0.00926935    0.00629150    0.00158777
     atom    5 type  4   force =    -0.00118620   -0.01436662    0.01736608
     atom    6 type  1   force =    -0.00114994   -0.00156044   -0.00019847
     atom    7 type  4   force =    -0.00408898    0.00888750    0.02023198
     atom    8 type  2   force =    -0.01389720    0.00991694   -0.00480753
     atom    9 type  3   force =     0.00000000    0.00000000    0.00000000
     atom   10 type  3   force =     0.00000000    0.00000000    0.00000000
     atom   11 type  4   force =    -0.01769916    0.01156247   -0.00656236
     atom   12 type  2   force =    -0.00893750    0.00380366   -0.01579377
     atom   13 type  3   force =     0.00000000    0.00000000    0.00000000
     atom   14 type  3   force =     0.00000000    0.00000000    0.00000000
     atom   15 type  3   force =     0.00000000    0.00000000    0.00000000
     atom   16 type  3   force =     0.00000000    0.00000000    0.00000000
     atom   17 type  2   force =    -0.00893750   -0.00380366   -0.01579377
     atom   18 type  4   force =    -0.01769916   -0.01156247   -0.00656236
     atom   19 type  3   force =     0.00000000    0.00000000    0.00000000
     atom   20 type  3   force =     0.00000000    0.00000000    0.00000000
     atom   21 type  2   force =    -0.01389720   -0.00991694   -0.00480753
     atom   22 type  4   force =    -0.00408898   -0.00888750    0.02023198
     atom   23 type  1   force =    -0.00114994    0.00156044   -0.00019847
     atom   24 type  4   force =    -0.00118620    0.01436662    0.01736608
     atom   25 type  1   force =     0.00926935   -0.00629150    0.00158777
     atom   26 type  1   force =     0.00037828   -0.00167876   -0.00000173
     atom   27 type  4   force =     0.01875517   -0.00366274   -0.01188563
     atom   28 type  1   force =    -0.00298731    0.00645443   -0.00178756
     atom   29 type  3   force =     0.00000000    0.00000000    0.00000000
     atom   30 type  3   force =     0.00000000    0.00000000    0.00000000
     atom   31 type  2   force =     0.00893750   -0.00380366    0.01579377
     atom   32 type  4   force =     0.01769916   -0.01156247    0.00656236
     atom   33 type  3   force =     0.00000000    0.00000000    0.00000000
     atom   34 type  3   force =     0.00000000    0.00000000    0.00000000
     atom   35 type  2   force =     0.01389720   -0.00991694    0.00480753
     atom   36 type  4   force =     0.00408898   -0.00888750   -0.02023198
     atom   37 type  1   force =     0.00114994    0.00156044    0.00019847
     atom   38 type  4   force =     0.00118620    0.01436662   -0.01736608
     atom   39 type  1   force =    -0.00926935   -0.00629150   -0.00158777
     atom   40 type  1   force =    -0.00037828   -0.00167876    0.00000173
     atom   41 type  4   force =    -0.01875517   -0.00366274    0.01188563
     atom   42 type  1   force =     0.00298731    0.00645443    0.00178756
     atom   43 type  3   force =     0.00000000    0.00000000    0.00000000
     atom   44 type  3   force =     0.00000000    0.00000000    0.00000000
     atom   45 type  2   force =     0.00893750    0.00380366    0.01579377
     atom   46 type  4   force =     0.01769916    0.01156247    0.00656236
     atom   47 type  3   force =     0.00000000    0.00000000    0.00000000
     atom   48 type  3   force =     0.00000000    0.00000000    0.00000000
     atom   49 type  2   force =     0.01389720    0.00991694    0.00480753
     atom   50 type  4   force =     0.00408898    0.00888750   -0.02023198
     atom   51 type  1   force =     0.00114994   -0.00156044    0.00019847
     atom   52 type  4   force =     0.00118620   -0.01436662   -0.01736608
     atom   53 type  1   force =    -0.00926935    0.00629150   -0.00158777
     atom   54 type  1   force =    -0.00037828    0.00167876    0.00000173
     atom   55 type  4   force =    -0.01875517    0.00366274    0.01188563
     atom   56 type  1   force =     0.00298731   -0.00645443    0.00178756
     The Hubbard contrib.    to forces
     atom    1 type  1   force =     0.00000000    0.00000000    0.00000000
     atom    2 type  4   force =     0.00000000    0.00000000    0.00000000
     atom    3 type  1   force =     0.00000000    0.00000000    0.00000000
     atom    4 type  1   force =     0.00000000    0.00000000    0.00000000
     atom    5 type  4   force =     0.00000000    0.00000000    0.00000000
     atom    6 type  1   force =     0.00000000    0.00000000    0.00000000
     atom    7 type  4   force =     0.00000000    0.00000000    0.00000000
     atom    8 type  2   force =     0.00000000    0.00000000    0.00000000
     atom    9 type  3   force =     0.00000000    0.00000000    0.00000000
     atom   10 type  3   force =     0.00000000    0.00000000    0.00000000
     atom   11 type  4   force =     0.00000000    0.00000000    0.00000000
     atom   12 type  2   force =     0.00000000    0.00000000    0.00000000
     atom   13 type  3   force =     0.00000000    0.00000000    0.00000000
     atom   14 type  3   force =     0.00000000    0.00000000    0.00000000
     atom   15 type  3   force =     0.00000000    0.00000000    0.00000000
     atom   16 type  3   force =     0.00000000    0.00000000    0.00000000
     atom   17 type  2   force =     0.00000000    0.00000000    0.00000000
     atom   18 type  4   force =     0.00000000    0.00000000    0.00000000
     atom   19 type  3   force =     0.00000000    0.00000000    0.00000000
     atom   20 type  3   force =     0.00000000    0.00000000    0.00000000
     atom   21 type  2   force =     0.00000000    0.00000000    0.00000000
     atom   22 type  4   force =     0.00000000    0.00000000    0.00000000
     atom   23 type  1   force =     0.00000000    0.00000000    0.00000000
     atom   24 type  4   force =     0.00000000    0.00000000    0.00000000
     atom   25 type  1   force =     0.00000000    0.00000000    0.00000000
     atom   26 type  1   force =     0.00000000    0.00000000    0.00000000
     atom   27 type  4   force =     0.00000000    0.00000000    0.00000000
     atom   28 type  1   force =     0.00000000    0.00000000    0.00000000
     atom   29 type  3   force =     0.00000000    0.00000000    0.00000000
     atom   30 type  3   force =     0.00000000    0.00000000    0.00000000
     atom   31 type  2   force =     0.00000000    0.00000000    0.00000000
     atom   32 type  4   force =     0.00000000    0.00000000    0.00000000
     atom   33 type  3   force =     0.00000000    0.00000000    0.00000000
     atom   34 type  3   force =     0.00000000    0.00000000    0.00000000
     atom   35 type  2   force =     0.00000000    0.00000000    0.00000000
     atom   36 type  4   force =     0.00000000    0.00000000    0.00000000
     atom   37 type  1   force =     0.00000000    0.00000000    0.00000000
     atom   38 type  4   force =     0.00000000    0.00000000    0.00000000
     atom   39 type  1   force =     0.00000000    0.00000000    0.00000000
     atom   40 type  1   force =     0.00000000    0.00000000    0.00000000
     atom   41 type  4   force =     0.00000000    0.00000000    0.00000000
     atom   42 type  1   force =     0.00000000    0.00000000    0.00000000
     atom   43 type  3   force =     0.00000000    0.00000000    0.00000000
     atom   44 type  3   force =     0.00000000    0.00000000    0.00000000
     atom   45 type  2   force =     0.00000000    0.00000000    0.00000000
     atom   46 type  4   force =     0.00000000    0.00000000    0.00000000
     atom   47 type  3   force =     0.00000000    0.00000000    0.00000000
     atom   48 type  3   force =     0.00000000    0.00000000    0.00000000
     atom   49 type  2   force =     0.00000000    0.00000000    0.00000000
     atom   50 type  4   force =     0.00000000    0.00000000    0.00000000
     atom   51 type  1   force =     0.00000000    0.00000000    0.00000000
     atom   52 type  4   force =     0.00000000    0.00000000    0.00000000
     atom   53 type  1   force =     0.00000000    0.00000000    0.00000000
     atom   54 type  1   force =     0.00000000    0.00000000    0.00000000
     atom   55 type  4   force =     0.00000000    0.00000000    0.00000000
     atom   56 type  1   force =     0.00000000    0.00000000    0.00000000
     The SCF correction term to forces
     atom    1 type  1   force =     0.00009896   -0.00000952   -0.00008073
     atom    2 type  4   force =     0.00014600    0.00001862   -0.00015807
     atom    3 type  1   force =     0.00033977   -0.00006528   -0.00048523
     atom    4 type  1   force =    -0.00002023   -0.00009390    0.00008073
     atom    5 type  4   force =     0.00008423   -0.00005176    0.00004038
     atom    6 type  1   force =     0.00010090   -0.00020490    0.00021139
     atom    7 type  4   force =     0.00004240   -0.00004426   -0.00017488
     atom    8 type  2   force =    -0.00002890    0.00000519    0.00000966
     atom    9 type  3   force =    -0.00000949    0.00000007    0.00000531
     atom   10 type  3   force =    -0.00002151    0.00001731    0.00001356
     atom   11 type  4   force =     0.00008112   -0.00001181    0.00004849
     atom   12 type  2   force =     0.00006523    0.00004007   -0.00004391
     atom   13 type  3   force =     0.00001295    0.00000056   -0.00001509
     atom   14 type  3   force =     0.00002379    0.00000170   -0.00000953
     atom   15 type  3   force =     0.00002379   -0.00000170   -0.00000953
     atom   16 type  3   force =     0.00001295   -0.00000056   -0.00001509
     atom   17 type  2   force =     0.00006523   -0.00004007   -0.00004391
     atom   18 type  4   force =     0.00008112    0.00001181    0.00004849
     atom   19 type  3   force =    -0.00002151   -0.00001731    0.00001356
     atom   20 type  3   force =    -0.00000949   -0.00000007    0.00000531
     atom   21 type  2   force =    -0.00002890   -0.00000519    0.00000966
     atom   22 type  4   force =     0.00004240    0.00004426   -0.00017488
     atom   23 type  1   force =     0.00010090    0.00020490    0.00021139
     atom   24 type  4   force =     0.00008423    0.00005176    0.00004038
     atom   25 type  1   force =    -0.00002023    0.00009390    0.00008073
     atom   26 type  1   force =     0.00033977    0.00006528   -0.00048523
     atom   27 type  4   force =     0.00014600   -0.00001862   -0.00015807
     atom   28 type  1   force =     0.00009896    0.00000952   -0.00008073
     atom   29 type  3   force =    -0.00002379   -0.00000170    0.00000953
     atom   30 type  3   force =    -0.00001295   -0.00000056    0.00001509
     atom   31 type  2   force =    -0.00006523   -0.00004007    0.00004391
     atom   32 type  4   force =    -0.00008112    0.00001181   -0.00004849
     atom   33 type  3   force =     0.00002151   -0.00001731   -0.00001356
     atom   34 type  3   force =     0.00000949   -0.00000007   -0.00000531
     atom   35 type  2   force =     0.00002890   -0.00000519   -0.00000966
     atom   36 type  4   force =    -0.00004240    0.00004426    0.00017488
     atom   37 type  1   force =    -0.00010090    0.00020490   -0.00021139
     atom   38 type  4   force =    -0.00008423    0.00005176   -0.00004038
     atom   39 type  1   force =     0.00002023    0.00009390   -0.00008073
     atom   40 type  1   force =    -0.00033977    0.00006528    0.00048523
     atom   41 type  4   force =    -0.00014600   -0.00001862    0.00015807
     atom   42 type  1   force =    -0.00009896    0.00000952    0.00008073
     atom   43 type  3   force =    -0.00002379    0.00000170    0.00000953
     atom   44 type  3   force =    -0.00001295    0.00000056    0.00001509
     atom   45 type  2   force =    -0.00006523    0.00004007    0.00004391
     atom   46 type  4   force =    -0.00008112   -0.00001181   -0.00004849
     atom   47 type  3   force =     0.00002151    0.00001731   -0.00001356
     atom   48 type  3   force =     0.00000949    0.00000007   -0.00000531
     atom   49 type  2   force =     0.00002890    0.00000519   -0.00000966
     atom   50 type  4   force =    -0.00004240   -0.00004426    0.00017488
     atom   51 type  1   force =    -0.00010090   -0.00020490   -0.00021139
     atom   52 type  4   force =    -0.00008423   -0.00005176   -0.00004038
     atom   53 type  1   force =     0.00002023   -0.00009390   -0.00008073
     atom   54 type  1   force =    -0.00033977   -0.00006528    0.00048523
     atom   55 type  4   force =    -0.00014600    0.00001862    0.00015807
     atom   56 type  1   force =    -0.00009896   -0.00000952    0.00008073

     Total force =     1.112239     Total SCF correction =     0.001545


     entering subroutine stress ...

          total   stress  (Ry/bohr**3)                   (kbar)     P=  139.21
   0.00097058   0.00000000   0.00012088        142.78      0.00     17.78
   0.00000000   0.00096544   0.00000000          0.00    142.02      0.00
   0.00012088   0.00000000   0.00090307         17.78      0.00    132.85

     kinetic stress (kbar)  15226.67      0.00    328.71
                                0.00  15649.68      0.00
                              328.71      0.00  15198.07

     local   stress (kbar) -15768.15      0.00   7885.37
                                0.00  -8792.98      0.00
                             7885.37      0.00 -11881.19

     nonloc. stress (kbar)   1032.09      0.00     11.07
                                0.00   1042.57      0.00
                               11.07      0.00   1002.88

     hartree stress (kbar)   7095.55      0.00  -2881.93
                                0.00   5049.58      0.00
                            -2881.93      0.00   5624.17

     exc-cor stress (kbar)  -2196.95     -0.00    -10.91
                               -0.00  -2217.42     -0.00
                              -10.91     -0.00  -2202.91

     corecor stress (kbar)  -1141.59     -0.00     -2.78
                               -0.00  -1143.63     -0.00
                               -2.78     -0.00  -1141.28

     ewald   stress (kbar)  -4104.85     -0.00  -5311.74
                               -0.00  -9445.78     -0.00
                            -5311.74     -0.00  -6466.90

     hubbard stress (kbar)      0.00      0.00      0.00
                                0.00      0.00      0.00
                                0.00      0.00      0.00

     london  stress (kbar)      0.00      0.00      0.00
                                0.00      0.00      0.00
                                0.00      0.00      0.00

     XDM     stress (kbar)      0.00      0.00      0.00
                                0.00      0.00      0.00
                                0.00      0.00      0.00

     dft-nl  stress (kbar)      0.00      0.00      0.00
                                0.00      0.00      0.00
                                0.00      0.00      0.00

     TS-vdW  stress (kbar)      0.00      0.00      0.00
                                0.00      0.00      0.00
                                0.00      0.00      0.00



     Writing output data file scf.pbe.ec-180.kp-444.HMX-792931.np-8.default-conv-thr.save

     init_run     :    996.67s CPU   1071.71s WALL (       1 calls)
     electrons    :  42918.02s CPU  60441.41s WALL (       1 calls)
     forces       :    562.11s CPU   1044.94s WALL (       1 calls)
     stress       :   1519.82s CPU   1651.73s WALL (       1 calls)

     Called by init_run:
     wfcinit      :    708.83s CPU    767.39s WALL (       1 calls)
     potinit      :     91.83s CPU     94.31s WALL (       1 calls)

     Called by electrons:
     c_bands      :  36610.41s CPU  49946.61s WALL (      22 calls)
     sum_band     :   5578.94s CPU   7919.19s WALL (      22 calls)
     v_of_rho     :    144.47s CPU    289.28s WALL (      23 calls)
     v_h          :     14.89s CPU     18.09s WALL (      23 calls)
     v_xc         :    141.67s CPU    284.70s WALL (      25 calls)
     newd         :    528.67s CPU   1906.30s WALL (      23 calls)
     PAW_pot      :     17.98s CPU     55.42s WALL (      23 calls)
     mix_rho      :     39.74s CPU    212.01s WALL (      22 calls)

     Called by c_bands:
     init_us_2    :    149.64s CPU    262.93s WALL (     752 calls)
     cegterg      :  36242.73s CPU  48574.50s WALL (     352 calls)

     Called by sum_band:
     sum_band:bec :      0.37s CPU      0.53s WALL (     352 calls)
     addusdens    :    805.08s CPU   2084.89s WALL (      22 calls)

     Called by *egterg:
     h_psi        :  20676.58s CPU  30261.72s WALL (    1606 calls)
     s_psi        :   3488.48s CPU   3658.24s WALL (    1606 calls)
     g_psi        :     25.22s CPU     34.05s WALL (    1238 calls)
     cdiaghg      :    406.05s CPU    589.30s WALL (    1590 calls)
     cegterg:over :   5668.80s CPU   6758.23s WALL (    1238 calls)
     cegterg:upda :   2153.18s CPU   2257.27s WALL (    1238 calls)
     cegterg:last :   1318.48s CPU   1436.07s WALL (     375 calls)

     Called by h_psi:
     h_psi:vloc   :  11689.24s CPU  13560.97s WALL (    1606 calls)
     h_psi:vnl    :   8902.70s CPU  16610.73s WALL (    1606 calls)
     add_vuspsi   :   3510.26s CPU   3818.95s WALL (    1606 calls)

     General routines
     calbec       :   7399.27s CPU  15094.63s WALL (    2038 calls)
     fft          :    196.41s CPU    360.33s WALL (     389 calls)
     ffts         :      7.12s CPU     16.75s WALL (      45 calls)
     fftw         :   7911.23s CPU  10196.41s WALL (  272044 calls)
     interpolate  :     30.57s CPU     94.72s WALL (      45 calls)
     davcio       :      2.24s CPU    141.90s WALL (      16 calls)

     Parallel routines
     fft_scatter  :   3489.15s CPU   5810.79s WALL (  272478 calls)

     PAW routines
     PAW_pot      :     17.98s CPU     55.42s WALL (      23 calls)
     PAW_symme    :      0.30s CPU      1.33s WALL (      45 calls)

     PWSCF        :    12h46m CPU       17h53m WALL


   This run was terminated on:   0: 3:42   2Jun2016            

=------------------------------------------------------------------------------=
   JOB DONE.
=------------------------------------------------------------------------------=
