
     Program PWSCF v.5.3.0 (svn rev. 11974) starts on 25Jun2016 at 16:19:53 

     This program is part of the open-source Quantum ESPRESSO suite
     for quantum simulation of materials; please cite
         "P. Giannozzi et al., J. Phys.:Condens. Matter 21 395502 (2009);
          URL http://www.quantum-espresso.org", 
     in publications or presentations arising from this work. More details at
     http://www.quantum-espresso.org/quote

     Parallel version (MPI), running on     8 processors
     R & G space division:  proc/nbgrp/npool/nimage =       8
     Waiting for input...
     Reading input from standard input
Warning: card    &IONS ignored
Warning: card TRUST_RADIUS_MAX=0.2 ignored
Warning: card / ignored
Warning: card     &CELL ignored
Warning: card CELL_DYNAMICS='BFGS' ignored
Warning: card / ignored

     Current dimensions of program PWSCF are:
     Max number of different atomic species (ntypx) = 10
     Max number of k-points (npk) =  40000
     Max angular momentum in pseudopotentials (lmaxx) =  3
               file N.pbe-n-kjpaw_psl.1.0.0.UPF: wavefunction(s)  2S renormalized
               file C.pbe-n-kjpaw_psl.1.0.0.UPF: wavefunction(s)  2S 2P renormalized
               file H.pbe-kjpaw_psl.1.0.0.UPF: wavefunction(s)  1S renormalized
               file O.pbe-n-kjpaw_psl.1.0.0.UPF: wavefunction(s)  2S 2P renormalized

     Subspace diagonalization in iterative solution of the eigenvalue problem:
     a serial algorithm will be used


     Parallelization info
     --------------------
     sticks:   dense  smooth     PW     G-vecs:    dense   smooth      PW
     Min        3555    1422    374               382389    96717   13065
     Max        3556    1423    375               382392    96754   13066
     Sum       28445   11379   2993              3059119   773903  104523


     Title: 
     HMX-scf--kp-444-ec-140-default-conv-thr                                    


     bravais-lattice index     =            0
     lattice parameter (alat)  =       1.8897  a.u.
     unit-cell volume          =    3458.1628 (a.u.)^3
     number of atoms/cell      =           56
     number of atomic types    =            4
     number of electrons       =       224.00
     number of Kohn-Sham states=          112
     kinetic-energy cutoff     =     140.0000  Ry
     charge density cutoff     =    1400.0000  Ry
     convergence threshold     =      1.0E-06
     mixing beta               =       0.7000
     number of iterations used =            8  plain     mixing
     Exchange-correlation      =  SLA  PW   PBX  PBC ( 1  4  3  4 0 0)

     celldm(1)=   1.889726  celldm(2)=   0.000000  celldm(3)=   0.000000
     celldm(4)=   0.000000  celldm(5)=   0.000000  celldm(6)=   0.000000

     crystal axes: (cart. coord. in units of alat)
               a(1) = (   6.533400   0.000000   0.000000 )  
               a(2) = (   0.000000  10.941900   0.000000 )  
               a(3) = (  -1.587995   0.000000   7.168312 )  

     reciprocal axes: (cart. coord. in units 2 pi/alat)
               b(1) = (  0.153060 -0.000000  0.033907 )  
               b(2) = (  0.000000  0.091392 -0.000000 )  
               b(3) = (  0.000000  0.000000  0.139503 )  


     PseudoPot. # 1 for  N read from file:
     /users/majewski/.data/PSEUDOPOTENTIALS/N.pbe-n-kjpaw_psl.1.0.0.UPF
     MD5 check sum: c21df8f53e59d08c3548513d559cdda6
     Pseudo is Projector augmented-wave + core cor, Zval =  5.0
     Generated using "atomic" code by A. Dal Corso  v.5.3.0 svn rev. 11974
     Shape of augmentation charge: PSQ
     Using radial grid of 1085 points,  4 beta functions with: 
                l(1) =   0
                l(2) =   0
                l(3) =   1
                l(4) =   1
     Q(r) pseudized with 0 coefficients 


     PseudoPot. # 2 for  C read from file:
     /users/majewski/.data/PSEUDOPOTENTIALS/C.pbe-n-kjpaw_psl.1.0.0.UPF
     MD5 check sum: 2ba8448e293caca687844dde9a1b88a8
     Pseudo is Projector augmented-wave + core cor, Zval =  4.0
     Generated using "atomic" code by A. Dal Corso  v.5.3.0 svn rev. 11974
     Shape of augmentation charge: PSQ
     Using radial grid of 1073 points,  4 beta functions with: 
                l(1) =   0
                l(2) =   0
                l(3) =   1
                l(4) =   1
     Q(r) pseudized with 0 coefficients 


     PseudoPot. # 3 for  H read from file:
     /users/majewski/.data/PSEUDOPOTENTIALS/H.pbe-kjpaw_psl.1.0.0.UPF
     MD5 check sum: bc0feb48a24907a0b97fa6ee2d589a29
     Pseudo is Projector augmented-wave, Zval =  1.0
     Generated using "atomic" code by A. Dal Corso  v.5.3.0 svn rev. 11974
     Shape of augmentation charge: PSQ
     Using radial grid of  929 points,  2 beta functions with: 
                l(1) =   0
                l(2) =   0
     Q(r) pseudized with 0 coefficients 


     PseudoPot. # 4 for  O read from file:
     /users/majewski/.data/PSEUDOPOTENTIALS/O.pbe-n-kjpaw_psl.1.0.0.UPF
     MD5 check sum: 9c0ade6c043cf4a781bde3908a3a8206
     Pseudo is Projector augmented-wave + core cor, Zval =  6.0
     Generated using "atomic" code by A. Dal Corso  v.5.3.0 svn rev. 11974
     Shape of augmentation charge: PSQ
     Using radial grid of 1095 points,  4 beta functions with: 
                l(1) =   0
                l(2) =   0
                l(3) =   1
                l(4) =   1
     Q(r) pseudized with 0 coefficients 


     atomic species   valence    mass     pseudopotential
        N              5.00    14.00670      N( 1.00)
        C              4.00    12.01100      C( 1.00)
        H              1.00     1.00790      H( 1.00)
        O              6.00    15.99940      O( 1.00)

      4 Sym. Ops., with inversion, found ( 2 have fractional translation)


                                    s                        frac. trans.

      isym =  1     identity                                     

 cryst.   s( 1) = (     1          0          0      )
                  (     0          1          0      )
                  (     0          0          1      )

 cart.    s( 1) = (  1.0000000  0.0000000 -0.0000000 )
                  (  0.0000000  1.0000000  0.0000000 )
                  (  0.0000000  0.0000000  1.0000000 )


      isym =  2     180 deg rotation - cart. axis [0,1,0]        

 cryst.   s( 2) = (    -1          0          0      )    f =( -0.5000000 )
                  (     0          1          0      )       (  0.5000000 )
                  (     0          0         -1      )       ( -0.5000000 )

 cart.    s( 2) = ( -1.0000000  0.0000000  0.0000000 )    f =( -2.4727023 )
                  (  0.0000000  1.0000000  0.0000000 )       (  5.4709500 )
                  (  0.0000000  0.0000000 -1.0000000 )       ( -3.5841562 )


      isym =  3     inversion                                    

 cryst.   s( 3) = (    -1          0          0      )
                  (     0         -1          0      )
                  (     0          0         -1      )

 cart.    s( 3) = ( -1.0000000  0.0000000  0.0000000 )
                  (  0.0000000 -1.0000000  0.0000000 )
                  (  0.0000000  0.0000000 -1.0000000 )


      isym =  4     inv. 180 deg rotation - cart. axis [0,1,0]   

 cryst.   s( 4) = (     1          0          0      )    f =( -0.5000000 )
                  (     0         -1          0      )       (  0.5000000 )
                  (     0          0          1      )       ( -0.5000000 )

 cart.    s( 4) = (  1.0000000  0.0000000 -0.0000000 )    f =( -2.4727023 )
                  (  0.0000000 -1.0000000  0.0000000 )       (  5.4709500 )
                  (  0.0000000  0.0000000  1.0000000 )       ( -3.5841562 )


   Cartesian axes

     site n.     atom                  positions (alat units)
         1           N   tau(   1) = (   5.6814794   6.8168037   3.3020831  )
         2           O   tau(   2) = (   7.6183148   7.8804658   3.1253842  )
         3           N   tau(   3) = (   6.6082701   7.6958759   3.8021446  )
         4           N   tau(   4) = (   4.4798552   5.7522662   5.0624773  )
         5           O   tau(   5) = (   3.2857644   4.6925432   6.6169259  )
         6           N   tau(   6) = (   3.2951569   5.4937092   5.6876975  )
         7           O   tau(   7) = (   6.3726433   8.1839941   4.8967459  )
         8           C   tau(   8) = (   4.4063896   6.7367090   3.9631449  )
         9           H   tau(   9) = (   3.7167939   6.4655687   3.3210792  )
        10           H   tau(  10) = (   4.1629820   7.6155624   4.3210587  )
        11           O   tau(  11) = (   2.3219113   6.1379682   5.2879207  )
        12           C   tau(  12) = (   5.9434862   6.1864408   2.0140807  )
        13           H   tau(  13) = (   5.1221590   5.7598162   1.7254128  )
        14           H   tau(  14) = (   6.2073440   6.8277456   1.3361734  )
        15           H   tau(  15) = (   3.7346417  -1.3567956  -2.2479828  )
        16           H   tau(  16) = (   2.6494567  -0.2888662  -1.8587434  )
        17           C   tau(  17) = (   3.4707838  -0.7154908  -1.5700755  )
        18           O   tau(  18) = (  -0.1507911  -0.6670182   1.7037645  )
        19           H   tau(  19) = (   1.6902797  -2.1446124   0.7369025  )
        20           H   tau(  20) = (   1.2440915  -0.9946187  -0.2630771  )
        21           C   tau(  21) = (   1.9336873  -1.2657590   0.3789887  )
        22           O   tau(  22) = (   3.8999409  -2.7130441   1.3125897  )
        23           N   tau(  23) = (   0.8224546  -0.0227592   2.1035413  )
        24           O   tau(  24) = (   0.8130621   0.7784068   3.0327696  )
        25           N   tau(  25) = (   2.0071529  -0.2813162   1.4783211  )
        26           N   tau(  26) = (   4.1355678  -2.2249259   0.2179884  )
        27           O   tau(  27) = (   5.1456125  -2.4095158  -0.4587720  )
        28           N   tau(  28) = (   3.2087771  -1.3458537  -0.2820731  )
        29           H   tau(  29) = (   5.2714607   4.1141544   5.8321390  )
        30           H   tau(  30) = (   6.3566457   5.1820838   5.4428996  )
        31           C   tau(  31) = (   5.5353185   4.7554592   5.1542317  )
        32           O   tau(  32) = (   9.1568934   4.8039318   1.8803917  )
        33           H   tau(  33) = (   7.3158227   3.3263376   2.8472537  )
        34           H   tau(  34) = (   7.7620108   4.4763313   3.8472333  )
        35           C   tau(  35) = (   7.0724151   4.2051910   3.2051675  )
        36           O   tau(  36) = (   5.1061614   2.7579059   2.2715665  )
        37           N   tau(  37) = (   8.1836478   5.4481908   1.4806149  )
        38           O   tau(  38) = (   8.1930402   6.2493568   0.5513866  )
        39           N   tau(  39) = (   6.9989495   5.1896338   2.1058351  )
        40           N   tau(  40) = (   4.8705346   3.2460241   3.3661678  )
        41           O   tau(  41) = (   3.8604898   3.0614342   4.0429282  )
        42           N   tau(  42) = (   5.7973253   4.1250963   3.8662293  )
        43           H   tau(  43) = (   2.7987583   1.3567956   2.2479828  )
        44           H   tau(  44) = (   3.8839433   0.2888662   1.8587434  )
        45           C   tau(  45) = (   3.0626162   0.7154908   1.5700755  )
        46           O   tau(  46) = (   6.6841911   0.6670182  -1.7037645  )
        47           H   tau(  47) = (   4.8431203   2.1446124  -0.7369025  )
        48           H   tau(  48) = (   5.2893085   0.9946187   0.2630771  )
        49           C   tau(  49) = (   4.5997127   1.2657590  -0.3789887  )
        50           O   tau(  50) = (   2.6334591   2.7130441  -1.3125897  )
        51           N   tau(  51) = (   5.7109454   0.0227592  -2.1035413  )
        52           O   tau(  52) = (   5.7203379  -0.7784068  -3.0327696  )
        53           N   tau(  53) = (   4.5262471   0.2813162  -1.4783211  )
        54           N   tau(  54) = (   2.3978322   2.2249259  -0.2179884  )
        55           O   tau(  55) = (   1.3877875   2.4095158   0.4587720  )
        56           N   tau(  56) = (   3.3246229   1.3458537   0.2820731  )

   Crystallographic axes

     site n.     atom                  positions (cryst. coord.)
         1           N   tau(   1) = (  0.9815700  0.6230000  0.4606500  )
         2           O   tau(   2) = (  1.2720300  0.7202100  0.4360000  )
         3           N   tau(   3) = (  1.1403800  0.7033400  0.5304100  )
         4           N   tau(   4) = (  0.8573400  0.5257100  0.7062300  )
         5           O   tau(   5) = (  0.7272800  0.4288600  0.9230800  )
         6           N   tau(   6) = (  0.6972100  0.5020800  0.7934500  )
         7           O   tau(   7) = (  1.1414300  0.7479500  0.6831100  )
         8           C   tau(   8) = (  0.8088200  0.6156800  0.5528700  )
         9           H   tau(   9) = (  0.6815000  0.5909000  0.4633000  )
        10           H   tau(  10) = (  0.7837000  0.6960000  0.6028000  )
        11           O   tau(  11) = (  0.5346900  0.5609600  0.7376800  )
        12           C   tau(  12) = (  0.9780000  0.5653900  0.2809700  )
        13           H   tau(  13) = (  0.8425000  0.5264000  0.2407000  )
        14           H   tau(  14) = (  0.9954000  0.6240000  0.1864000  )
        15           H   tau(  15) = (  0.4954000 -0.1240000 -0.3136000  )
        16           H   tau(  16) = (  0.3425000 -0.0264000 -0.2593000  )
        17           C   tau(  17) = (  0.4780000 -0.0653900 -0.2190300  )
        18           O   tau(  18) = (  0.0346900 -0.0609600  0.2376800  )
        19           H   tau(  19) = (  0.2837000 -0.1960000  0.1028000  )
        20           H   tau(  20) = (  0.1815000 -0.0909000 -0.0367000  )
        21           C   tau(  21) = (  0.3088200 -0.1156800  0.0528700  )
        22           O   tau(  22) = (  0.6414300 -0.2479500  0.1831100  )
        23           N   tau(  23) = (  0.1972100 -0.0020800  0.2934500  )
        24           O   tau(  24) = (  0.2272800  0.0711400  0.4230800  )
        25           N   tau(  25) = (  0.3573400 -0.0257100  0.2062300  )
        26           N   tau(  26) = (  0.6403800 -0.2033400  0.0304100  )
        27           O   tau(  27) = (  0.7720300 -0.2202100 -0.0640000  )
        28           N   tau(  28) = (  0.4815700 -0.1230000 -0.0393500  )
        29           H   tau(  29) = (  1.0046000  0.3760000  0.8136000  )
        30           H   tau(  30) = (  1.1575000  0.4736000  0.7593000  )
        31           C   tau(  31) = (  1.0220000  0.4346100  0.7190300  )
        32           O   tau(  32) = (  1.4653100  0.4390400  0.2623200  )
        33           H   tau(  33) = (  1.2163000  0.3040000  0.3972000  )
        34           H   tau(  34) = (  1.3185000  0.4091000  0.5367000  )
        35           C   tau(  35) = (  1.1911800  0.3843200  0.4471300  )
        36           O   tau(  36) = (  0.8585700  0.2520500  0.3168900  )
        37           N   tau(  37) = (  1.3027900  0.4979200  0.2065500  )
        38           O   tau(  38) = (  1.2727200  0.5711400  0.0769200  )
        39           N   tau(  39) = (  1.1426600  0.4742900  0.2937700  )
        40           N   tau(  40) = (  0.8596200  0.2966600  0.4695900  )
        41           O   tau(  41) = (  0.7279700  0.2797900  0.5640000  )
        42           N   tau(  42) = (  1.0184300  0.3770000  0.5393500  )
        43           H   tau(  43) = (  0.5046000  0.1240000  0.3136000  )
        44           H   tau(  44) = (  0.6575000  0.0264000  0.2593000  )
        45           C   tau(  45) = (  0.5220000  0.0653900  0.2190300  )
        46           O   tau(  46) = (  0.9653100  0.0609600 -0.2376800  )
        47           H   tau(  47) = (  0.7163000  0.1960000 -0.1028000  )
        48           H   tau(  48) = (  0.8185000  0.0909000  0.0367000  )
        49           C   tau(  49) = (  0.6911800  0.1156800 -0.0528700  )
        50           O   tau(  50) = (  0.3585700  0.2479500 -0.1831100  )
        51           N   tau(  51) = (  0.8027900  0.0020800 -0.2934500  )
        52           O   tau(  52) = (  0.7727200 -0.0711400 -0.4230800  )
        53           N   tau(  53) = (  0.6426600  0.0257100 -0.2062300  )
        54           N   tau(  54) = (  0.3596200  0.2033400 -0.0304100  )
        55           O   tau(  55) = (  0.2279700  0.2202100  0.0640000  )
        56           N   tau(  56) = (  0.5184300  0.1230000  0.0393500  )

     number of k points=    16
                       cart. coord. in units 2pi/alat
        k(    1) = (   0.0191325   0.0114240   0.0216763), wk =   0.1250000
        k(    2) = (   0.0191325   0.0114240   0.0565520), wk =   0.1250000
        k(    3) = (   0.0191325   0.0114240  -0.0480752), wk =   0.1250000
        k(    4) = (   0.0191325   0.0114240  -0.0131994), wk =   0.1250000
        k(    5) = (   0.0191325   0.0342719   0.0216763), wk =   0.1250000
        k(    6) = (   0.0191325   0.0342719   0.0565520), wk =   0.1250000
        k(    7) = (   0.0191325   0.0342719  -0.0480752), wk =   0.1250000
        k(    8) = (   0.0191325   0.0342719  -0.0131994), wk =   0.1250000
        k(    9) = (   0.0573974   0.0114240   0.0301531), wk =   0.1250000
        k(   10) = (   0.0573974   0.0114240   0.0650288), wk =   0.1250000
        k(   11) = (   0.0573974   0.0114240  -0.0395983), wk =   0.1250000
        k(   12) = (   0.0573974   0.0114240  -0.0047226), wk =   0.1250000
        k(   13) = (   0.0573974   0.0342719   0.0301531), wk =   0.1250000
        k(   14) = (   0.0573974   0.0342719   0.0650288), wk =   0.1250000
        k(   15) = (   0.0573974   0.0342719  -0.0395983), wk =   0.1250000
        k(   16) = (   0.0573974   0.0342719  -0.0047226), wk =   0.1250000

                       cryst. coord.
        k(    1) = (   0.1250000   0.1250000   0.1250000), wk =   0.1250000
        k(    2) = (   0.1250000   0.1250000   0.3750000), wk =   0.1250000
        k(    3) = (   0.1250000   0.1250000  -0.3750000), wk =   0.1250000
        k(    4) = (   0.1250000   0.1250000  -0.1250000), wk =   0.1250000
        k(    5) = (   0.1250000   0.3750000   0.1250000), wk =   0.1250000
        k(    6) = (   0.1250000   0.3750000   0.3750000), wk =   0.1250000
        k(    7) = (   0.1250000   0.3750000  -0.3750000), wk =   0.1250000
        k(    8) = (   0.1250000   0.3750000  -0.1250000), wk =   0.1250000
        k(    9) = (   0.3750000   0.1250000   0.1250000), wk =   0.1250000
        k(   10) = (   0.3750000   0.1250000   0.3750000), wk =   0.1250000
        k(   11) = (   0.3750000   0.1250000  -0.3750000), wk =   0.1250000
        k(   12) = (   0.3750000   0.1250000  -0.1250000), wk =   0.1250000
        k(   13) = (   0.3750000   0.3750000   0.1250000), wk =   0.1250000
        k(   14) = (   0.3750000   0.3750000   0.3750000), wk =   0.1250000
        k(   15) = (   0.3750000   0.3750000  -0.3750000), wk =   0.1250000
        k(   16) = (   0.3750000   0.3750000  -0.1250000), wk =   0.1250000

     Dense  grid:  3059119 G-vectors     FFT dimensions: ( 150, 250, 180)

     Smooth grid:   773903 G-vectors     FFT dimensions: (  96, 160, 108)

     Largest allocated arrays     est. size (Mb)     dimensions
        Kohn-Sham Wavefunctions        20.67 Mb     (   12094,  112)
        NL pseudopotentials            64.96 Mb     (   12094,  352)
        Each V/rho on FFT grid         13.16 Mb     (  862500)
        Each G-vector array             2.92 Mb     (  382392)
        G-vector shells                 2.70 Mb     (  353579)
     Largest temporary arrays     est. size (Mb)     dimensions
        Auxiliary wavefunctions        82.67 Mb     (   12094,  448)
        Each subspace H/S matrix        3.06 Mb     (     448,  448)
        Each <psi_i|beta_j> matrix      0.60 Mb     (     352,  112)
        Arrays for rho mixing         105.29 Mb     (  862500,    8)

     Initial potential from superposition of free atoms

     starting charge  223.99937, renormalised to  224.00000
     Starting wfc are  176 randomized atomic wfcs
     Checking if some PAW data can be deallocated... 
       node    0, deallocated PAW data for type:  2
       node    0, deallocated PAW data for type:  3
       node    1, deallocated PAW data for type:  1
       node    2, deallocated PAW data for type:  1
       node    3, deallocated PAW data for type:  2
       node    3, deallocated PAW data for type:  3
       node    4, deallocated PAW data for type:  1
       node    5, deallocated PAW data for type:  2
       node    5, deallocated PAW data for type:  3
       node    6, deallocated PAW data for type:  1
       node    7, deallocated PAW data for type:  2
       node    7, deallocated PAW data for type:  3

     total cpu time spent up to now is      674.0 secs

     per-process dynamical memory:   608.3 Mb

     Self-consistent Calculation

     iteration #  1     ecut=   140.00 Ry     beta=0.70
     Davidson diagonalization with overlap
     ethr =  1.00E-02,  avg # of iterations =  3.0

     total cpu time spent up to now is     2088.7 secs

     total energy              =   -1279.64688388 Ry
     Harris-Foulkes estimate   =   -1283.97687345 Ry
     estimated scf accuracy    <       6.67051404 Ry

     iteration #  2     ecut=   140.00 Ry     beta=0.70
     Davidson diagonalization with overlap
     ethr =  2.98E-03,  avg # of iterations =  4.0

     total cpu time spent up to now is     3699.6 secs

     total energy              =   -1280.29782021 Ry
     Harris-Foulkes estimate   =   -1283.82160963 Ry
     estimated scf accuracy    <       7.12696903 Ry

     iteration #  3     ecut=   140.00 Ry     beta=0.70
     Davidson diagonalization with overlap
     ethr =  2.98E-03,  avg # of iterations =  4.7

     total cpu time spent up to now is     4871.6 secs

     total energy              =   -1281.82125017 Ry
     Harris-Foulkes estimate   =   -1282.06115390 Ry
     estimated scf accuracy    <       0.44556838 Ry

     iteration #  4     ecut=   140.00 Ry     beta=0.70
     Davidson diagonalization with overlap
     ethr =  1.99E-04,  avg # of iterations =  5.0

     total cpu time spent up to now is     6386.8 secs

     total energy              =   -1281.97153954 Ry
     Harris-Foulkes estimate   =   -1282.06466390 Ry
     estimated scf accuracy    <       0.20774738 Ry

     iteration #  5     ecut=   140.00 Ry     beta=0.70
     Davidson diagonalization with overlap
     ethr =  9.27E-05,  avg # of iterations =  4.0

     total cpu time spent up to now is     7588.1 secs

     total energy              =   -1282.01342310 Ry
     Harris-Foulkes estimate   =   -1282.02285480 Ry
     estimated scf accuracy    <       0.02324742 Ry

     iteration #  6     ecut=   140.00 Ry     beta=0.70
     Davidson diagonalization with overlap
     ethr =  1.04E-05,  avg # of iterations =  7.1

     total cpu time spent up to now is     8643.0 secs

     total energy              =   -1282.01654626 Ry
     Harris-Foulkes estimate   =   -1282.01813431 Ry
     estimated scf accuracy    <       0.00369776 Ry

     iteration #  7     ecut=   140.00 Ry     beta=0.70
     Davidson diagonalization with overlap
     ethr =  1.65E-06,  avg # of iterations =  4.6

     total cpu time spent up to now is    10199.6 secs

     total energy              =   -1282.01850355 Ry
     Harris-Foulkes estimate   =   -1282.01915693 Ry
     estimated scf accuracy    <       0.00177239 Ry

     iteration #  8     ecut=   140.00 Ry     beta=0.70
     Davidson diagonalization with overlap
     ethr =  7.91E-07,  avg # of iterations =  2.0

     total cpu time spent up to now is    11085.7 secs

     total energy              =   -1282.01823890 Ry
     Harris-Foulkes estimate   =   -1282.01857738 Ry
     estimated scf accuracy    <       0.00065331 Ry

     iteration #  9     ecut=   140.00 Ry     beta=0.70
     Davidson diagonalization with overlap
     ethr =  2.92E-07,  avg # of iterations =  5.0

     total cpu time spent up to now is    12711.8 secs

     total energy              =   -1282.01891333 Ry
     Harris-Foulkes estimate   =   -1282.01932344 Ry
     estimated scf accuracy    <       0.00259530 Ry

     iteration # 10     ecut=   140.00 Ry     beta=0.70
     Davidson diagonalization with overlap
     ethr =  2.92E-07,  avg # of iterations =  1.0

     total cpu time spent up to now is    13590.8 secs

     total energy              =   -1282.01807976 Ry
     Harris-Foulkes estimate   =   -1282.01892318 Ry
     estimated scf accuracy    <       0.00193384 Ry

     iteration # 11     ecut=   140.00 Ry     beta=0.70
     Davidson diagonalization with overlap
     ethr =  2.92E-07,  avg # of iterations =  5.0

     total cpu time spent up to now is    15207.2 secs

     total energy              =   -1282.01879029 Ry
     Harris-Foulkes estimate   =   -1282.01898893 Ry
     estimated scf accuracy    <       0.00085982 Ry

     iteration # 12     ecut=   140.00 Ry     beta=0.70
     Davidson diagonalization with overlap
     ethr =  2.92E-07,  avg # of iterations =  1.0

     total cpu time spent up to now is    16071.7 secs

     total energy              =   -1282.01857758 Ry
     Harris-Foulkes estimate   =   -1282.01879755 Ry
     estimated scf accuracy    <       0.00054265 Ry

     iteration # 13     ecut=   140.00 Ry     beta=0.70
     Davidson diagonalization with overlap
     ethr =  2.42E-07,  avg # of iterations =  5.0

     total cpu time spent up to now is    17362.7 secs

     total energy              =   -1282.01881434 Ry
     Harris-Foulkes estimate   =   -1282.01888667 Ry
     estimated scf accuracy    <       0.00032748 Ry

     iteration # 14     ecut=   140.00 Ry     beta=0.70
     Davidson diagonalization with overlap
     ethr =  1.46E-07,  avg # of iterations =  1.0

     total cpu time spent up to now is    18259.5 secs

     total energy              =   -1282.01878533 Ry
     Harris-Foulkes estimate   =   -1282.01881720 Ry
     estimated scf accuracy    <       0.00021236 Ry

     iteration # 15     ecut=   140.00 Ry     beta=0.70
     Davidson diagonalization with overlap
     ethr =  9.48E-08,  avg # of iterations =  5.0

     total cpu time spent up to now is    19380.2 secs

     total energy              =   -1282.01881929 Ry
     Harris-Foulkes estimate   =   -1282.01882229 Ry
     estimated scf accuracy    <       0.00000380 Ry

     iteration # 16     ecut=   140.00 Ry     beta=0.70
     Davidson diagonalization with overlap
     ethr =  1.70E-09,  avg # of iterations =  5.0

     total cpu time spent up to now is    21354.3 secs

     total energy              =   -1282.01882171 Ry
     Harris-Foulkes estimate   =   -1282.01882909 Ry
     estimated scf accuracy    <       0.00002560 Ry

     iteration # 17     ecut=   140.00 Ry     beta=0.70
     Davidson diagonalization with overlap
     ethr =  1.70E-09,  avg # of iterations =  5.0

     total cpu time spent up to now is    22731.3 secs

     total energy              =   -1282.01882441 Ry
     Harris-Foulkes estimate   =   -1282.01882410 Ry
     estimated scf accuracy    <       0.00000114 Ry

     iteration # 18     ecut=   140.00 Ry     beta=0.70
     Davidson diagonalization with overlap
     ethr =  5.10E-10,  avg # of iterations =  1.0

     total cpu time spent up to now is    23629.9 secs

     total energy              =   -1282.01882423 Ry
     Harris-Foulkes estimate   =   -1282.01882443 Ry
     estimated scf accuracy    <       0.00000165 Ry

     iteration # 19     ecut=   140.00 Ry     beta=0.70
     Davidson diagonalization with overlap
     ethr =  5.10E-10,  avg # of iterations =  1.0

     total cpu time spent up to now is    24530.7 secs

     total energy              =   -1282.01882408 Ry
     Harris-Foulkes estimate   =   -1282.01882424 Ry
     estimated scf accuracy    <       0.00000139 Ry

     iteration # 20     ecut=   140.00 Ry     beta=0.70
     Davidson diagonalization with overlap
     ethr =  5.10E-10,  avg # of iterations =  1.0

     total cpu time spent up to now is    25400.4 secs

     total energy              =   -1282.01882397 Ry
     Harris-Foulkes estimate   =   -1282.01882409 Ry
     estimated scf accuracy    <       0.00000112 Ry

     iteration # 21     ecut=   140.00 Ry     beta=0.70
     Davidson diagonalization with overlap
     ethr =  5.01E-10,  avg # of iterations =  1.1

     total cpu time spent up to now is    26267.6 secs

     End of self-consistent calculation

          k = 0.0191 0.0114 0.0217 ( 96733 PWs)   bands (ev):

   -23.9152 -23.8933 -23.8824 -23.8727 -23.5787 -23.5686 -23.5675 -23.5659
   -19.1305 -19.1249 -19.1184 -19.1056 -18.7881 -18.7876 -18.7847 -18.7834
   -18.2223 -18.1953 -17.1913 -17.1395 -17.0465 -17.0438 -16.0261 -16.0127
   -12.0797 -12.0747 -12.0682 -11.9564 -11.8963 -11.8196 -11.7497 -11.7277
    -8.8632  -8.8228  -8.2592  -8.2226  -7.5382  -7.4951  -7.4203  -7.4200
    -6.8329  -6.7301  -6.5786  -6.5006  -6.4805  -6.3854  -6.3320  -6.2441
    -6.1084  -6.0774  -6.0489  -5.9162  -5.8700  -5.7927  -5.7238  -5.6864
    -5.6334  -5.6103  -5.5282  -5.4900  -5.1199  -5.0049  -4.9127  -4.9032
    -4.4351  -4.4199  -4.3892  -4.3437  -4.2102  -4.1083  -3.8572  -3.8496
    -3.6855  -3.5629  -3.5060  -3.4669  -3.1601  -3.1162  -3.0406  -3.0189
    -0.7726  -0.7691  -0.2996  -0.2945  -0.1946  -0.1437  -0.0788  -0.0531
     0.0036   0.0287   0.1904   0.2233   0.2379   0.2686   0.3946   0.4090
     0.4555   0.4769   0.6464   0.7048   0.7877   0.8436   0.8944   0.9112
     0.9478   1.0492   1.0806   1.1428   1.2174   1.3591   1.3798   1.4015

     occupation numbers 
     1.0000   1.0000   1.0000   1.0000   1.0000   1.0000   1.0000   1.0000
     1.0000   1.0000   1.0000   1.0000   1.0000   1.0000   1.0000   1.0000
     1.0000   1.0000   1.0000   1.0000   1.0000   1.0000   1.0000   1.0000
     1.0000   1.0000   1.0000   1.0000   1.0000   1.0000   1.0000   1.0000
     1.0000   1.0000   1.0000   1.0000   1.0000   1.0000   1.0000   1.0000
     1.0000   1.0000   1.0000   1.0000   1.0000   1.0000   1.0000   1.0000
     1.0000   1.0000   1.0000   1.0000   1.0000   1.0000   1.0000   1.0000
     1.0000   1.0000   1.0000   1.0000   1.0000   1.0000   1.0000   1.0000
     1.0000   1.0000   1.0000   1.0000   1.0000   1.0000   1.0000   1.0000
     1.0000   1.0000   1.0000   1.0000   1.0000   1.0000   1.0000   1.0000
     1.0000   1.0000   1.0000   1.0000   1.0000   1.0000   1.0000   1.0000
     1.0000   1.0000   1.0000   1.0000   1.0000   1.0000   1.0000   1.0000
     1.0000   1.0000   1.0000   1.0000   1.0000   1.0000   1.0000   1.0000
     1.0000   1.0000   1.0000   1.0000   1.0000   1.0000   1.0000   1.0000

          k = 0.0191 0.0114 0.0566 ( 96760 PWs)   bands (ev):

   -23.9073 -23.8988 -23.8787 -23.8776 -23.5791 -23.5757 -23.5654 -23.5617
   -19.1290 -19.1240 -19.1189 -19.1090 -18.7939 -18.7932 -18.7797 -18.7777
   -18.2105 -18.2100 -17.1666 -17.1640 -17.0415 -17.0386 -16.0218 -16.0198
   -12.0839 -12.0797 -12.0236 -12.0020 -11.8530 -11.8404 -11.7584 -11.7478
    -8.8434  -8.8071  -8.2422  -8.2166  -7.5488  -7.4975  -7.4018  -7.3236
    -6.8816  -6.7563  -6.5695  -6.5324  -6.5198  -6.4072  -6.3551  -6.3201
    -6.1631  -6.1389  -5.9276  -5.8769  -5.8627  -5.8000  -5.7715  -5.7357
    -5.6858  -5.6327  -5.4498  -5.4051  -5.1232  -5.0440  -4.9103  -4.8730
    -4.3905  -4.3821  -4.3374  -4.2568  -4.1329  -4.1059  -3.9705  -3.9681
    -3.6640  -3.6100  -3.4467  -3.4351  -3.1827  -3.1776  -3.0226  -2.9957
    -0.7375  -0.7064  -0.3131  -0.3020  -0.2024  -0.1663  -0.1173  -0.0855
    -0.0555  -0.0165   0.0958   0.1574   0.2593   0.3106   0.3645   0.3779
     0.5605   0.6193   0.6717   0.7096   0.7997   0.8137   0.8539   0.9082
     1.0018   1.0481   1.1188   1.1405   1.2348   1.3096   1.3826   1.4055

     occupation numbers 
     1.0000   1.0000   1.0000   1.0000   1.0000   1.0000   1.0000   1.0000
     1.0000   1.0000   1.0000   1.0000   1.0000   1.0000   1.0000   1.0000
     1.0000   1.0000   1.0000   1.0000   1.0000   1.0000   1.0000   1.0000
     1.0000   1.0000   1.0000   1.0000   1.0000   1.0000   1.0000   1.0000
     1.0000   1.0000   1.0000   1.0000   1.0000   1.0000   1.0000   1.0000
     1.0000   1.0000   1.0000   1.0000   1.0000   1.0000   1.0000   1.0000
     1.0000   1.0000   1.0000   1.0000   1.0000   1.0000   1.0000   1.0000
     1.0000   1.0000   1.0000   1.0000   1.0000   1.0000   1.0000   1.0000
     1.0000   1.0000   1.0000   1.0000   1.0000   1.0000   1.0000   1.0000
     1.0000   1.0000   1.0000   1.0000   1.0000   1.0000   1.0000   1.0000
     1.0000   1.0000   1.0000   1.0000   1.0000   1.0000   1.0000   1.0000
     1.0000   1.0000   1.0000   1.0000   1.0000   1.0000   1.0000   1.0000
     1.0000   1.0000   1.0000   1.0000   1.0000   1.0000   1.0000   1.0000
     1.0000   1.0000   1.0000   1.0000   1.0000   1.0000   1.0000   1.0000

          k = 0.0191 0.0114-0.0481 ( 96762 PWs)   bands (ev):

   -23.9086 -23.8979 -23.8824 -23.8735 -23.5806 -23.5775 -23.5626 -23.5612
   -19.1263 -19.1251 -19.1151 -19.1145 -18.7953 -18.7950 -18.7779 -18.7762
   -18.2225 -18.1965 -17.1890 -17.1412 -17.0440 -17.0422 -16.0255 -16.0093
   -12.0995 -12.0782 -12.0521 -11.9688 -11.8802 -11.8080 -11.7604 -11.7488
    -8.8529  -8.7676  -8.2299  -8.2251  -7.5439  -7.5276  -7.4136  -7.2971
    -6.8928  -6.7799  -6.5664  -6.5347  -6.4801  -6.4577  -6.3663  -6.3322
    -6.1891  -6.1588  -5.9280  -5.8996  -5.8022  -5.7661  -5.7542  -5.7386
    -5.6887  -5.6190  -5.4559  -5.3992  -5.1176  -5.0424  -4.8971  -4.8670
    -4.4241  -4.3523  -4.3174  -4.2537  -4.1709  -4.1226  -3.9789  -3.9241
    -3.6668  -3.6152  -3.4991  -3.4164  -3.1902  -3.1639  -3.0165  -3.0038
    -0.6715  -0.6127  -0.3020  -0.2927  -0.2597  -0.2260  -0.1531  -0.1320
    -0.0713  -0.0607   0.0620   0.1489   0.2751   0.3150   0.3214   0.3700
     0.6000   0.6852   0.7072   0.7246   0.7662   0.8642   0.8659   0.8909
     1.0013   1.0553   1.1248   1.1793   1.2440   1.2739   1.3692   1.3919

     occupation numbers 
     1.0000   1.0000   1.0000   1.0000   1.0000   1.0000   1.0000   1.0000
     1.0000   1.0000   1.0000   1.0000   1.0000   1.0000   1.0000   1.0000
     1.0000   1.0000   1.0000   1.0000   1.0000   1.0000   1.0000   1.0000
     1.0000   1.0000   1.0000   1.0000   1.0000   1.0000   1.0000   1.0000
     1.0000   1.0000   1.0000   1.0000   1.0000   1.0000   1.0000   1.0000
     1.0000   1.0000   1.0000   1.0000   1.0000   1.0000   1.0000   1.0000
     1.0000   1.0000   1.0000   1.0000   1.0000   1.0000   1.0000   1.0000
     1.0000   1.0000   1.0000   1.0000   1.0000   1.0000   1.0000   1.0000
     1.0000   1.0000   1.0000   1.0000   1.0000   1.0000   1.0000   1.0000
     1.0000   1.0000   1.0000   1.0000   1.0000   1.0000   1.0000   1.0000
     1.0000   1.0000   1.0000   1.0000   1.0000   1.0000   1.0000   1.0000
     1.0000   1.0000   1.0000   1.0000   1.0000   1.0000   1.0000   1.0000
     1.0000   1.0000   1.0000   1.0000   1.0000   1.0000   1.0000   1.0000
     1.0000   1.0000   1.0000   1.0000   1.0000   1.0000   1.0000   1.0000

          k = 0.0191 0.0114-0.0132 ( 96674 PWs)   bands (ev):

   -23.9158 -23.8934 -23.8835 -23.8709 -23.5807 -23.5722 -23.5643 -23.5634
   -19.1293 -19.1237 -19.1185 -19.1081 -18.7915 -18.7914 -18.7805 -18.7803
   -18.2269 -18.1893 -17.2005 -17.1299 -17.0487 -17.0478 -16.0265 -16.0056
   -12.1047 -12.0747 -12.0650 -11.9518 -11.8971 -11.8080 -11.7490 -11.7293
    -8.8744  -8.7815  -8.2521  -8.2261  -7.5434  -7.5196  -7.4555  -7.3677
    -6.8012  -6.7887  -6.5755  -6.4872  -6.4818  -6.4305  -6.3360  -6.2635
    -6.1584  -6.1147  -5.9714  -5.9213  -5.8347  -5.7903  -5.7048  -5.6793
    -5.6438  -5.6026  -5.5056  -5.4933  -5.0858  -5.0400  -4.9091  -4.8750
    -4.4359  -4.4133  -4.3839  -4.3622  -4.2185  -4.1166  -3.8674  -3.8060
    -3.7154  -3.5721  -3.5194  -3.4648  -3.1664  -3.1111  -3.0325  -3.0267
    -0.7245  -0.7025  -0.2887  -0.2835  -0.1955  -0.1627  -0.0880  -0.0713
    -0.0571  -0.0178   0.0842   0.1511   0.2076   0.2863   0.3386   0.4094
     0.5731   0.6147   0.6430   0.7271   0.7793   0.8455   0.9056   0.9231
     0.9541   1.0281   1.1042   1.1688   1.2132   1.3399   1.3669   1.3898

     occupation numbers 
     1.0000   1.0000   1.0000   1.0000   1.0000   1.0000   1.0000   1.0000
     1.0000   1.0000   1.0000   1.0000   1.0000   1.0000   1.0000   1.0000
     1.0000   1.0000   1.0000   1.0000   1.0000   1.0000   1.0000   1.0000
     1.0000   1.0000   1.0000   1.0000   1.0000   1.0000   1.0000   1.0000
     1.0000   1.0000   1.0000   1.0000   1.0000   1.0000   1.0000   1.0000
     1.0000   1.0000   1.0000   1.0000   1.0000   1.0000   1.0000   1.0000
     1.0000   1.0000   1.0000   1.0000   1.0000   1.0000   1.0000   1.0000
     1.0000   1.0000   1.0000   1.0000   1.0000   1.0000   1.0000   1.0000
     1.0000   1.0000   1.0000   1.0000   1.0000   1.0000   1.0000   1.0000
     1.0000   1.0000   1.0000   1.0000   1.0000   1.0000   1.0000   1.0000
     1.0000   1.0000   1.0000   1.0000   1.0000   1.0000   1.0000   1.0000
     1.0000   1.0000   1.0000   1.0000   1.0000   1.0000   1.0000   1.0000
     1.0000   1.0000   1.0000   1.0000   1.0000   1.0000   1.0000   1.0000
     1.0000   1.0000   1.0000   1.0000   1.0000   1.0000   1.0000   1.0000

          k = 0.0191 0.0343 0.0217 ( 96742 PWs)   bands (ev):

   -23.9101 -23.9017 -23.8777 -23.8744 -23.5753 -23.5708 -23.5674 -23.5670
   -19.1302 -19.1285 -19.1127 -19.1080 -18.7880 -18.7878 -18.7842 -18.7837
   -18.2146 -18.2035 -17.1761 -17.1547 -17.0456 -17.0445 -16.0221 -16.0166
   -12.0763 -12.0753 -12.0477 -12.0060 -11.8579 -11.8316 -11.7432 -11.7341
    -8.8524  -8.8356  -8.2492  -8.2340  -7.5300  -7.5117  -7.4120  -7.4118
    -6.8109  -6.7648  -6.5260  -6.4945  -6.4894  -6.4353  -6.3068  -6.2776
    -6.1213  -6.1005  -5.9690  -5.9295  -5.8717  -5.8314  -5.7362  -5.7207
    -5.5964  -5.5814  -5.5080  -5.4876  -5.0746  -5.0069  -4.9598  -4.9350
    -4.4425  -4.4337  -4.3525  -4.3326  -4.1927  -4.1421  -3.8518  -3.8454
    -3.6513  -3.5975  -3.4953  -3.4759  -3.1512  -3.1338  -3.0302  -3.0223
    -0.7682  -0.7662  -0.2914  -0.2826  -0.2079  -0.1736  -0.0977  -0.0911
     0.0365   0.0445   0.2165   0.2261   0.2596   0.2670   0.4117   0.4206
     0.4308   0.4632   0.6578   0.6875   0.7747   0.7973   0.9127   0.9338
     0.9719   1.0190   1.1077   1.1311   1.2571   1.3142   1.3899   1.3965

     occupation numbers 
     1.0000   1.0000   1.0000   1.0000   1.0000   1.0000   1.0000   1.0000
     1.0000   1.0000   1.0000   1.0000   1.0000   1.0000   1.0000   1.0000
     1.0000   1.0000   1.0000   1.0000   1.0000   1.0000   1.0000   1.0000
     1.0000   1.0000   1.0000   1.0000   1.0000   1.0000   1.0000   1.0000
     1.0000   1.0000   1.0000   1.0000   1.0000   1.0000   1.0000   1.0000
     1.0000   1.0000   1.0000   1.0000   1.0000   1.0000   1.0000   1.0000
     1.0000   1.0000   1.0000   1.0000   1.0000   1.0000   1.0000   1.0000
     1.0000   1.0000   1.0000   1.0000   1.0000   1.0000   1.0000   1.0000
     1.0000   1.0000   1.0000   1.0000   1.0000   1.0000   1.0000   1.0000
     1.0000   1.0000   1.0000   1.0000   1.0000   1.0000   1.0000   1.0000
     1.0000   1.0000   1.0000   1.0000   1.0000   1.0000   1.0000   1.0000
     1.0000   1.0000   1.0000   1.0000   1.0000   1.0000   1.0000   1.0000
     1.0000   1.0000   1.0000   1.0000   1.0000   1.0000   1.0000   1.0000
     1.0000   1.0000   1.0000   1.0000   1.0000   1.0000   1.0000   1.0000

          k = 0.0191 0.0343 0.0566 ( 96805 PWs)   bands (ev):

   -23.9046 -23.9009 -23.8788 -23.8783 -23.5775 -23.5762 -23.5648 -23.5633
   -19.1288 -19.1273 -19.1141 -19.1106 -18.7937 -18.7934 -18.7791 -18.7783
   -18.2104 -18.2102 -17.1662 -17.1651 -17.0403 -17.0391 -16.0212 -16.0204
   -12.0820 -12.0799 -12.0204 -12.0111 -11.8460 -11.8403 -11.7567 -11.7522
    -8.8330  -8.8180  -8.2352  -8.2245  -7.5326  -7.5119  -7.3781  -7.3468
    -6.8619  -6.8157  -6.5537  -6.5419  -6.4691  -6.4209  -6.3654  -6.3441
    -6.1224  -6.0913  -5.9487  -5.8977  -5.8429  -5.8089  -5.7737  -5.7572
    -5.6751  -5.6396  -5.4569  -5.4348  -5.0589  -5.0058  -4.9611  -4.9218
    -4.3665  -4.3492  -4.3281  -4.2881  -4.1337  -4.1217  -3.9692  -3.9682
    -3.6423  -3.6194  -3.4455  -3.4400  -3.1776  -3.1736  -3.0218  -3.0090
    -0.7272  -0.7144  -0.3050  -0.2961  -0.2141  -0.1865  -0.1271  -0.1093
    -0.0301  -0.0134   0.1453   0.1658   0.2644   0.2895   0.3558   0.3688
     0.5775   0.6030   0.6832   0.7008   0.8048   0.8204   0.8527   0.8901
     1.0065   1.0305   1.1296   1.1381   1.2609   1.2909   1.3882   1.3976

     occupation numbers 
     1.0000   1.0000   1.0000   1.0000   1.0000   1.0000   1.0000   1.0000
     1.0000   1.0000   1.0000   1.0000   1.0000   1.0000   1.0000   1.0000
     1.0000   1.0000   1.0000   1.0000   1.0000   1.0000   1.0000   1.0000
     1.0000   1.0000   1.0000   1.0000   1.0000   1.0000   1.0000   1.0000
     1.0000   1.0000   1.0000   1.0000   1.0000   1.0000   1.0000   1.0000
     1.0000   1.0000   1.0000   1.0000   1.0000   1.0000   1.0000   1.0000
     1.0000   1.0000   1.0000   1.0000   1.0000   1.0000   1.0000   1.0000
     1.0000   1.0000   1.0000   1.0000   1.0000   1.0000   1.0000   1.0000
     1.0000   1.0000   1.0000   1.0000   1.0000   1.0000   1.0000   1.0000
     1.0000   1.0000   1.0000   1.0000   1.0000   1.0000   1.0000   1.0000
     1.0000   1.0000   1.0000   1.0000   1.0000   1.0000   1.0000   1.0000
     1.0000   1.0000   1.0000   1.0000   1.0000   1.0000   1.0000   1.0000
     1.0000   1.0000   1.0000   1.0000   1.0000   1.0000   1.0000   1.0000
     1.0000   1.0000   1.0000   1.0000   1.0000   1.0000   1.0000   1.0000

          k = 0.0191 0.0343-0.0481 ( 96748 PWs)   bands (ev):

   -23.9057 -23.9013 -23.8796 -23.8760 -23.5793 -23.5780 -23.5625 -23.5619
   -19.1269 -19.1265 -19.1139 -19.1137 -18.7952 -18.7950 -18.7775 -18.7767
   -18.2152 -18.2044 -17.1751 -17.1553 -17.0434 -17.0426 -16.0207 -16.0140
   -12.0932 -12.0847 -12.0347 -12.0032 -11.8488 -11.8217 -11.7572 -11.7522
    -8.8290  -8.7937  -8.2299  -8.2276  -7.5354  -7.5297  -7.3827  -7.3333
    -6.8583  -6.8107  -6.5715  -6.5452  -6.4672  -6.4536  -6.3976  -6.3770
    -6.1015  -6.0854  -5.9641  -5.9369  -5.7958  -5.7782  -5.7562  -5.7319
    -5.6782  -5.6402  -5.4470  -5.4174  -5.0901  -5.0375  -4.9224  -4.8883
    -4.4094  -4.3787  -4.2767  -4.2517  -4.1664  -4.1454  -3.9630  -3.9404
    -3.6440  -3.6224  -3.4755  -3.4411  -3.1771  -3.1649  -3.0216  -3.0171
    -0.6550  -0.6310  -0.3022  -0.2965  -0.2295  -0.2119  -0.1776  -0.1547
    -0.0841  -0.0741   0.1146   0.1486   0.2781   0.2955   0.3333   0.3601
     0.6236   0.6579   0.7264   0.7409   0.7672   0.8147   0.8792   0.8906
     1.0142   1.0310   1.1505   1.1702   1.2505   1.2638   1.3752   1.3850

     occupation numbers 
     1.0000   1.0000   1.0000   1.0000   1.0000   1.0000   1.0000   1.0000
     1.0000   1.0000   1.0000   1.0000   1.0000   1.0000   1.0000   1.0000
     1.0000   1.0000   1.0000   1.0000   1.0000   1.0000   1.0000   1.0000
     1.0000   1.0000   1.0000   1.0000   1.0000   1.0000   1.0000   1.0000
     1.0000   1.0000   1.0000   1.0000   1.0000   1.0000   1.0000   1.0000
     1.0000   1.0000   1.0000   1.0000   1.0000   1.0000   1.0000   1.0000
     1.0000   1.0000   1.0000   1.0000   1.0000   1.0000   1.0000   1.0000
     1.0000   1.0000   1.0000   1.0000   1.0000   1.0000   1.0000   1.0000
     1.0000   1.0000   1.0000   1.0000   1.0000   1.0000   1.0000   1.0000
     1.0000   1.0000   1.0000   1.0000   1.0000   1.0000   1.0000   1.0000
     1.0000   1.0000   1.0000   1.0000   1.0000   1.0000   1.0000   1.0000
     1.0000   1.0000   1.0000   1.0000   1.0000   1.0000   1.0000   1.0000
     1.0000   1.0000   1.0000   1.0000   1.0000   1.0000   1.0000   1.0000
     1.0000   1.0000   1.0000   1.0000   1.0000   1.0000   1.0000   1.0000

          k = 0.0191 0.0343-0.0132 ( 96724 PWs)   bands (ev):

   -23.9107 -23.9023 -23.8776 -23.8732 -23.5779 -23.5743 -23.5643 -23.5640
   -19.1290 -19.1274 -19.1134 -19.1098 -18.7915 -18.7915 -18.7804 -18.7803
   -18.2164 -18.2008 -17.1795 -17.1502 -17.0486 -17.0482 -16.0202 -16.0115
   -12.0927 -12.0820 -12.0462 -12.0061 -11.8525 -11.8226 -11.7426 -11.7345
    -8.8490  -8.8106  -8.2460  -8.2353  -7.5378  -7.5266  -7.4256  -7.3907
    -6.7772  -6.7622  -6.5667  -6.5185  -6.4809  -6.4531  -6.3576  -6.3232
    -6.0980  -6.0759  -5.9776  -5.9501  -5.8284  -5.8052  -5.7128  -5.7118
    -5.5962  -5.5844  -5.4952  -5.4842  -5.0825  -5.0514  -4.9194  -4.8972
    -4.4474  -4.4405  -4.3547  -4.3322  -4.2034  -4.1517  -3.8471  -3.8218
    -3.6638  -3.6032  -3.5063  -3.4828  -3.1539  -3.1315  -3.0290  -3.0271
    -0.7147  -0.7055  -0.2825  -0.2731  -0.2077  -0.1751  -0.1008  -0.0916
    -0.0565  -0.0351   0.1184   0.1486   0.2322   0.2678   0.3762   0.4068
     0.5858   0.6139   0.6503   0.7045   0.7595   0.7985   0.9260   0.9297
     0.9824   1.0115   1.1343   1.1598   1.2421   1.2963   1.3766   1.3832

     occupation numbers 
     1.0000   1.0000   1.0000   1.0000   1.0000   1.0000   1.0000   1.0000
     1.0000   1.0000   1.0000   1.0000   1.0000   1.0000   1.0000   1.0000
     1.0000   1.0000   1.0000   1.0000   1.0000   1.0000   1.0000   1.0000
     1.0000   1.0000   1.0000   1.0000   1.0000   1.0000   1.0000   1.0000
     1.0000   1.0000   1.0000   1.0000   1.0000   1.0000   1.0000   1.0000
     1.0000   1.0000   1.0000   1.0000   1.0000   1.0000   1.0000   1.0000
     1.0000   1.0000   1.0000   1.0000   1.0000   1.0000   1.0000   1.0000
     1.0000   1.0000   1.0000   1.0000   1.0000   1.0000   1.0000   1.0000
     1.0000   1.0000   1.0000   1.0000   1.0000   1.0000   1.0000   1.0000
     1.0000   1.0000   1.0000   1.0000   1.0000   1.0000   1.0000   1.0000
     1.0000   1.0000   1.0000   1.0000   1.0000   1.0000   1.0000   1.0000
     1.0000   1.0000   1.0000   1.0000   1.0000   1.0000   1.0000   1.0000
     1.0000   1.0000   1.0000   1.0000   1.0000   1.0000   1.0000   1.0000
     1.0000   1.0000   1.0000   1.0000   1.0000   1.0000   1.0000   1.0000

          k = 0.0574 0.0114 0.0302 ( 96702 PWs)   bands (ev):

   -23.9050 -23.8959 -23.8793 -23.8786 -23.5766 -23.5731 -23.5692 -23.5655
   -19.1285 -19.1242 -19.1197 -19.1098 -18.7921 -18.7910 -18.7821 -18.7804
   -18.2156 -18.2151 -17.1643 -17.1621 -17.0467 -17.0445 -16.0222 -16.0199
   -12.0719 -12.0700 -11.9935 -11.9738 -11.8254 -11.8069 -11.7601 -11.7427
    -8.8632  -8.8297  -8.2595  -8.2362  -7.5363  -7.5064  -7.4831  -7.4319
    -6.9559  -6.8848  -6.6488  -6.5240  -6.4449  -6.4035  -6.2381  -6.2025
    -6.1772  -6.1291  -5.9877  -5.9230  -5.8647  -5.8179  -5.7310  -5.7089
    -5.6218  -5.5808  -5.5270  -5.5101  -5.1329  -5.0191  -4.8992  -4.8936
    -4.4161  -4.3959  -4.3513  -4.2979  -4.0262  -3.9698  -3.8003  -3.7648
    -3.7220  -3.6135  -3.5729  -3.5641  -3.1538  -3.1476  -3.0420  -3.0092
    -0.7270  -0.7165  -0.2787  -0.2756  -0.1882  -0.1677  -0.0996  -0.0708
    -0.0414  -0.0154   0.1336   0.1523   0.2246   0.2392   0.3782   0.3987
     0.5973   0.6046   0.6722   0.7228   0.8010   0.8075   0.8952   0.9102
     0.9619   1.0112   1.0357   1.0806   1.2967   1.3287   1.3588   1.3974

     occupation numbers 
     1.0000   1.0000   1.0000   1.0000   1.0000   1.0000   1.0000   1.0000
     1.0000   1.0000   1.0000   1.0000   1.0000   1.0000   1.0000   1.0000
     1.0000   1.0000   1.0000   1.0000   1.0000   1.0000   1.0000   1.0000
     1.0000   1.0000   1.0000   1.0000   1.0000   1.0000   1.0000   1.0000
     1.0000   1.0000   1.0000   1.0000   1.0000   1.0000   1.0000   1.0000
     1.0000   1.0000   1.0000   1.0000   1.0000   1.0000   1.0000   1.0000
     1.0000   1.0000   1.0000   1.0000   1.0000   1.0000   1.0000   1.0000
     1.0000   1.0000   1.0000   1.0000   1.0000   1.0000   1.0000   1.0000
     1.0000   1.0000   1.0000   1.0000   1.0000   1.0000   1.0000   1.0000
     1.0000   1.0000   1.0000   1.0000   1.0000   1.0000   1.0000   1.0000
     1.0000   1.0000   1.0000   1.0000   1.0000   1.0000   1.0000   1.0000
     1.0000   1.0000   1.0000   1.0000   1.0000   1.0000   1.0000   1.0000
     1.0000   1.0000   1.0000   1.0000   1.0000   1.0000   1.0000   1.0000
     1.0000   1.0000   1.0000   1.0000   1.0000   1.0000   1.0000   1.0000

          k = 0.0574 0.0114 0.0650 ( 96759 PWs)   bands (ev):

   -23.9009 -23.8989 -23.8830 -23.8749 -23.5749 -23.5748 -23.5721 -23.5636
   -19.1292 -19.1259 -19.1200 -19.1084 -18.8021 -18.8000 -18.7743 -18.7703
   -18.2312 -18.2060 -17.1849 -17.1395 -17.0364 -17.0324 -16.0385 -16.0189
   -12.0862 -12.0775 -12.0224 -11.9458 -11.8232 -11.7805 -11.7647 -11.7469
    -8.9089  -8.7850  -8.2563  -8.2164  -7.5346  -7.5146  -7.4393  -7.3152
    -7.0580  -6.8317  -6.6550  -6.4792  -6.4664  -6.4142  -6.3952  -6.2924
    -6.2344  -6.1476  -5.9697  -5.9319  -5.8858  -5.8220  -5.7585  -5.7025
    -5.6008  -5.5503  -5.4850  -5.4067  -5.1451  -4.9818  -4.9678  -4.9028
    -4.3645  -4.3506  -4.2877  -4.2465  -3.9820  -3.9479  -3.8953  -3.8619
    -3.7450  -3.6438  -3.5780  -3.4819  -3.1978  -3.1697  -3.0388  -2.9759
    -0.8016  -0.7647  -0.2877  -0.2524  -0.1886  -0.1575  -0.0927  -0.0543
    -0.0043   0.0312   0.1943   0.2249   0.2500   0.2664   0.3430   0.4378
     0.5127   0.5281   0.5747   0.6853   0.8007   0.8287   0.8803   0.9004
     0.9955   1.0348   1.0445   1.0742   1.3096   1.3491   1.3640   1.4093

     occupation numbers 
     1.0000   1.0000   1.0000   1.0000   1.0000   1.0000   1.0000   1.0000
     1.0000   1.0000   1.0000   1.0000   1.0000   1.0000   1.0000   1.0000
     1.0000   1.0000   1.0000   1.0000   1.0000   1.0000   1.0000   1.0000
     1.0000   1.0000   1.0000   1.0000   1.0000   1.0000   1.0000   1.0000
     1.0000   1.0000   1.0000   1.0000   1.0000   1.0000   1.0000   1.0000
     1.0000   1.0000   1.0000   1.0000   1.0000   1.0000   1.0000   1.0000
     1.0000   1.0000   1.0000   1.0000   1.0000   1.0000   1.0000   1.0000
     1.0000   1.0000   1.0000   1.0000   1.0000   1.0000   1.0000   1.0000
     1.0000   1.0000   1.0000   1.0000   1.0000   1.0000   1.0000   1.0000
     1.0000   1.0000   1.0000   1.0000   1.0000   1.0000   1.0000   1.0000
     1.0000   1.0000   1.0000   1.0000   1.0000   1.0000   1.0000   1.0000
     1.0000   1.0000   1.0000   1.0000   1.0000   1.0000   1.0000   1.0000
     1.0000   1.0000   1.0000   1.0000   1.0000   1.0000   1.0000   1.0000
     1.0000   1.0000   1.0000   1.0000   1.0000   1.0000   1.0000   1.0000

          k = 0.0574 0.0114-0.0396 ( 96700 PWs)   bands (ev):

   -23.9033 -23.8970 -23.8846 -23.8728 -23.5783 -23.5773 -23.5678 -23.5621
   -19.1274 -19.1249 -19.1204 -19.1112 -18.8028 -18.8009 -18.7733 -18.7695
   -18.2360 -18.1998 -17.1952 -17.1287 -17.0392 -17.0359 -16.0380 -16.0126
   -12.0925 -12.0793 -12.0445 -11.9239 -11.8392 -11.7669 -11.7597 -11.7486
    -8.9040  -8.7600  -8.2505  -8.2176  -7.5337  -7.5195  -7.4626  -7.3022
    -7.0767  -6.8327  -6.6425  -6.5038  -6.4674  -6.4492  -6.3853  -6.3199
    -6.2380  -6.1637  -5.9542  -5.9013  -5.8434  -5.8303  -5.7592  -5.7171
    -5.5783  -5.5465  -5.4924  -5.4052  -5.1353  -5.0040  -4.9408  -4.8909
    -4.3694  -4.3255  -4.2879  -4.2619  -4.0092  -3.9884  -3.8480  -3.8330
    -3.6959  -3.6759  -3.6337  -3.4872  -3.2026  -3.1646  -3.0343  -2.9816
    -0.7590  -0.7001  -0.2802  -0.2285  -0.2006  -0.1783  -0.0996  -0.0787
    -0.0639  -0.0246   0.1274   0.2187   0.2428   0.2945   0.3055   0.3292
     0.5552   0.6279   0.6608   0.6827   0.7978   0.8283   0.8974   0.9133
     0.9885   1.0182   1.0619   1.1257   1.3250   1.3412   1.3469   1.3738

     occupation numbers 
     1.0000   1.0000   1.0000   1.0000   1.0000   1.0000   1.0000   1.0000
     1.0000   1.0000   1.0000   1.0000   1.0000   1.0000   1.0000   1.0000
     1.0000   1.0000   1.0000   1.0000   1.0000   1.0000   1.0000   1.0000
     1.0000   1.0000   1.0000   1.0000   1.0000   1.0000   1.0000   1.0000
     1.0000   1.0000   1.0000   1.0000   1.0000   1.0000   1.0000   1.0000
     1.0000   1.0000   1.0000   1.0000   1.0000   1.0000   1.0000   1.0000
     1.0000   1.0000   1.0000   1.0000   1.0000   1.0000   1.0000   1.0000
     1.0000   1.0000   1.0000   1.0000   1.0000   1.0000   1.0000   1.0000
     1.0000   1.0000   1.0000   1.0000   1.0000   1.0000   1.0000   1.0000
     1.0000   1.0000   1.0000   1.0000   1.0000   1.0000   1.0000   1.0000
     1.0000   1.0000   1.0000   1.0000   1.0000   1.0000   1.0000   1.0000
     1.0000   1.0000   1.0000   1.0000   1.0000   1.0000   1.0000   1.0000
     1.0000   1.0000   1.0000   1.0000   1.0000   1.0000   1.0000   1.0000
     1.0000   1.0000   1.0000   1.0000   1.0000   1.0000   1.0000   1.0000

          k = 0.0574 0.0114-0.0047 ( 96700 PWs)   bands (ev):

   -23.9061 -23.8953 -23.8831 -23.8742 -23.5791 -23.5757 -23.5657 -23.5640
   -19.1260 -19.1248 -19.1161 -19.1155 -18.7940 -18.7934 -18.7798 -18.7783
   -18.2277 -18.2015 -17.1873 -17.1384 -17.0490 -17.0487 -16.0259 -16.0095
   -12.0797 -12.0701 -12.0329 -11.9343 -11.8491 -11.7837 -11.7536 -11.7482
    -8.8731  -8.7894  -8.2473  -8.2442  -7.5296  -7.5226  -7.5157  -7.4069
    -6.9728  -6.8806  -6.6057  -6.5805  -6.4381  -6.4346  -6.2756  -6.2449
    -6.1607  -6.1517  -5.9261  -5.8875  -5.8340  -5.8078  -5.7431  -5.7349
    -5.6000  -5.5858  -5.5234  -5.5101  -5.0913  -5.0705  -4.8797  -4.8726
    -4.4175  -4.3925  -4.3419  -4.3103  -4.0327  -3.9957  -3.7636  -3.7527
    -3.6888  -3.6616  -3.6129  -3.5598  -3.1696  -3.1338  -3.0353  -3.0160
    -0.6729  -0.6262  -0.2815  -0.2710  -0.1959  -0.1907  -0.1609  -0.1545
    -0.0544  -0.0268   0.0901   0.1585   0.2044   0.2470   0.3488   0.3869
     0.5749   0.6486   0.7378   0.7628   0.7932   0.8304   0.9114   0.9336
     0.9648   0.9778   1.0445   1.1283   1.3138   1.3198   1.3393   1.3591

     occupation numbers 
     1.0000   1.0000   1.0000   1.0000   1.0000   1.0000   1.0000   1.0000
     1.0000   1.0000   1.0000   1.0000   1.0000   1.0000   1.0000   1.0000
     1.0000   1.0000   1.0000   1.0000   1.0000   1.0000   1.0000   1.0000
     1.0000   1.0000   1.0000   1.0000   1.0000   1.0000   1.0000   1.0000
     1.0000   1.0000   1.0000   1.0000   1.0000   1.0000   1.0000   1.0000
     1.0000   1.0000   1.0000   1.0000   1.0000   1.0000   1.0000   1.0000
     1.0000   1.0000   1.0000   1.0000   1.0000   1.0000   1.0000   1.0000
     1.0000   1.0000   1.0000   1.0000   1.0000   1.0000   1.0000   1.0000
     1.0000   1.0000   1.0000   1.0000   1.0000   1.0000   1.0000   1.0000
     1.0000   1.0000   1.0000   1.0000   1.0000   1.0000   1.0000   1.0000
     1.0000   1.0000   1.0000   1.0000   1.0000   1.0000   1.0000   1.0000
     1.0000   1.0000   1.0000   1.0000   1.0000   1.0000   1.0000   1.0000
     1.0000   1.0000   1.0000   1.0000   1.0000   1.0000   1.0000   1.0000
     1.0000   1.0000   1.0000   1.0000   1.0000   1.0000   1.0000   1.0000

          k = 0.0574 0.0343 0.0302 ( 96760 PWs)   bands (ev):

   -23.9021 -23.8983 -23.8795 -23.8790 -23.5747 -23.5733 -23.5689 -23.5674
   -19.1284 -19.1272 -19.1150 -19.1115 -18.7917 -18.7913 -18.7816 -18.7809
   -18.2155 -18.2153 -17.1639 -17.1629 -17.0459 -17.0449 -16.0216 -16.0206
   -12.0715 -12.0707 -11.9863 -11.9779 -11.8219 -11.8141 -11.7548 -11.7476
    -8.8534  -8.8395  -8.2494  -8.2395  -7.5261  -7.5143  -7.4730  -7.4510
    -6.9585  -6.9344  -6.5733  -6.5296  -6.4250  -6.3993  -6.2674  -6.2330
    -6.1657  -6.1378  -5.9594  -5.9330  -5.8549  -5.8318  -5.7329  -5.7104
    -5.6034  -5.5929  -5.5204  -5.5111  -5.1025  -5.0554  -4.9036  -4.9001
    -4.4094  -4.3971  -4.3389  -4.3182  -4.0018  -3.9767  -3.7882  -3.7698
    -3.6972  -3.6501  -3.5713  -3.5640  -3.1515  -3.1482  -3.0365  -3.0222
    -0.7200  -0.7157  -0.2705  -0.2646  -0.2218  -0.2032  -0.0792  -0.0566
    -0.0367  -0.0224   0.1437   0.1628   0.2323   0.2461   0.3763   0.3865
     0.6223   0.6286   0.6511   0.6846   0.7986   0.8042   0.9011   0.9223
     0.9712   1.0043   1.0400   1.0604   1.3068   1.3195   1.3714   1.3868

     occupation numbers 
     1.0000   1.0000   1.0000   1.0000   1.0000   1.0000   1.0000   1.0000
     1.0000   1.0000   1.0000   1.0000   1.0000   1.0000   1.0000   1.0000
     1.0000   1.0000   1.0000   1.0000   1.0000   1.0000   1.0000   1.0000
     1.0000   1.0000   1.0000   1.0000   1.0000   1.0000   1.0000   1.0000
     1.0000   1.0000   1.0000   1.0000   1.0000   1.0000   1.0000   1.0000
     1.0000   1.0000   1.0000   1.0000   1.0000   1.0000   1.0000   1.0000
     1.0000   1.0000   1.0000   1.0000   1.0000   1.0000   1.0000   1.0000
     1.0000   1.0000   1.0000   1.0000   1.0000   1.0000   1.0000   1.0000
     1.0000   1.0000   1.0000   1.0000   1.0000   1.0000   1.0000   1.0000
     1.0000   1.0000   1.0000   1.0000   1.0000   1.0000   1.0000   1.0000
     1.0000   1.0000   1.0000   1.0000   1.0000   1.0000   1.0000   1.0000
     1.0000   1.0000   1.0000   1.0000   1.0000   1.0000   1.0000   1.0000
     1.0000   1.0000   1.0000   1.0000   1.0000   1.0000   1.0000   1.0000
     1.0000   1.0000   1.0000   1.0000   1.0000   1.0000   1.0000   1.0000

          k = 0.0574 0.0343 0.0650 ( 96764 PWs)   bands (ev):

   -23.8999 -23.8992 -23.8811 -23.8777 -23.5748 -23.5747 -23.5697 -23.5661
   -19.1295 -19.1286 -19.1148 -19.1106 -18.8014 -18.8006 -18.7731 -18.7715
   -18.2240 -18.2136 -17.1716 -17.1528 -17.0351 -17.0335 -16.0326 -16.0245
   -12.0867 -12.0836 -11.9973 -11.9668 -11.8094 -11.7920 -11.7597 -11.7524
    -8.8739  -8.8227  -8.2430  -8.2264  -7.5079  -7.4990  -7.4350  -7.3774
    -7.0155  -6.9359  -6.5592  -6.5034  -6.4534  -6.4360  -6.3508  -6.2947
    -6.2179  -6.1655  -5.9490  -5.9282  -5.8742  -5.8475  -5.7737  -5.7373
    -5.5932  -5.5731  -5.4521  -5.4206  -5.1067  -5.0373  -4.9479  -4.9192
    -4.3495  -4.3291  -4.2851  -4.2507  -3.9686  -3.9552  -3.8904  -3.8761
    -3.7221  -3.6865  -3.5426  -3.5059  -3.1902  -3.1787  -3.0209  -2.9948
    -0.7873  -0.7723  -0.2758  -0.2597  -0.2143  -0.2038  -0.0686  -0.0561
     0.0250   0.0384   0.2102   0.2206   0.2647   0.2769   0.3638   0.4092
     0.4966   0.5059   0.6289   0.6853   0.7753   0.8080   0.8915   0.9037
     0.9819   1.0059   1.0692   1.0836   1.3202   1.3359   1.3777   1.3959

     occupation numbers 
     1.0000   1.0000   1.0000   1.0000   1.0000   1.0000   1.0000   1.0000
     1.0000   1.0000   1.0000   1.0000   1.0000   1.0000   1.0000   1.0000
     1.0000   1.0000   1.0000   1.0000   1.0000   1.0000   1.0000   1.0000
     1.0000   1.0000   1.0000   1.0000   1.0000   1.0000   1.0000   1.0000
     1.0000   1.0000   1.0000   1.0000   1.0000   1.0000   1.0000   1.0000
     1.0000   1.0000   1.0000   1.0000   1.0000   1.0000   1.0000   1.0000
     1.0000   1.0000   1.0000   1.0000   1.0000   1.0000   1.0000   1.0000
     1.0000   1.0000   1.0000   1.0000   1.0000   1.0000   1.0000   1.0000
     1.0000   1.0000   1.0000   1.0000   1.0000   1.0000   1.0000   1.0000
     1.0000   1.0000   1.0000   1.0000   1.0000   1.0000   1.0000   1.0000
     1.0000   1.0000   1.0000   1.0000   1.0000   1.0000   1.0000   1.0000
     1.0000   1.0000   1.0000   1.0000   1.0000   1.0000   1.0000   1.0000
     1.0000   1.0000   1.0000   1.0000   1.0000   1.0000   1.0000   1.0000
     1.0000   1.0000   1.0000   1.0000   1.0000   1.0000   1.0000   1.0000

          k = 0.0574 0.0343-0.0396 ( 96729 PWs)   bands (ev):

   -23.9017 -23.8992 -23.8809 -23.8761 -23.5778 -23.5773 -23.5663 -23.5639
   -19.1280 -19.1275 -19.1157 -19.1125 -18.8023 -18.8015 -18.7722 -18.7706
   -18.2258 -18.2108 -17.1754 -17.1479 -17.0384 -17.0371 -16.0303 -16.0198
   -12.0926 -12.0883 -12.0101 -11.9650 -11.8090 -11.7822 -11.7560 -11.7518
    -8.8639  -8.8045  -8.2404  -8.2267  -7.5130  -7.4957  -7.4514  -7.3717
    -7.0217  -6.9336  -6.5582  -6.5165  -6.4669  -6.4461  -6.4006  -6.3434
    -6.1829  -6.1400  -5.9451  -5.9132  -5.8546  -5.8496  -5.7667  -5.7378
    -5.5761  -5.5628  -5.4517  -5.4162  -5.1205  -5.0664  -4.9148  -4.8927
    -4.3689  -4.3514  -4.2559  -4.2392  -4.0000  -3.9922  -3.8460  -3.8401
    -3.7035  -3.6948  -3.5816  -3.5245  -3.1895  -3.1729  -3.0229  -3.0005
    -0.7390  -0.7142  -0.2719  -0.2524  -0.2213  -0.2054  -0.0814  -0.0719
    -0.0388  -0.0138   0.1586   0.1937   0.2503   0.2703   0.3128   0.3353
     0.5807   0.6106   0.6882   0.6949   0.7895   0.8037   0.8871   0.8921
     0.9930   1.0137   1.0899   1.1135   1.3283   1.3364   1.3524   1.3650

     occupation numbers 
     1.0000   1.0000   1.0000   1.0000   1.0000   1.0000   1.0000   1.0000
     1.0000   1.0000   1.0000   1.0000   1.0000   1.0000   1.0000   1.0000
     1.0000   1.0000   1.0000   1.0000   1.0000   1.0000   1.0000   1.0000
     1.0000   1.0000   1.0000   1.0000   1.0000   1.0000   1.0000   1.0000
     1.0000   1.0000   1.0000   1.0000   1.0000   1.0000   1.0000   1.0000
     1.0000   1.0000   1.0000   1.0000   1.0000   1.0000   1.0000   1.0000
     1.0000   1.0000   1.0000   1.0000   1.0000   1.0000   1.0000   1.0000
     1.0000   1.0000   1.0000   1.0000   1.0000   1.0000   1.0000   1.0000
     1.0000   1.0000   1.0000   1.0000   1.0000   1.0000   1.0000   1.0000
     1.0000   1.0000   1.0000   1.0000   1.0000   1.0000   1.0000   1.0000
     1.0000   1.0000   1.0000   1.0000   1.0000   1.0000   1.0000   1.0000
     1.0000   1.0000   1.0000   1.0000   1.0000   1.0000   1.0000   1.0000
     1.0000   1.0000   1.0000   1.0000   1.0000   1.0000   1.0000   1.0000
     1.0000   1.0000   1.0000   1.0000   1.0000   1.0000   1.0000   1.0000

          k = 0.0574 0.0343-0.0047 ( 96724 PWs)   bands (ev):

   -23.9033 -23.8989 -23.8802 -23.8766 -23.5778 -23.5763 -23.5655 -23.5648
   -19.1266 -19.1261 -19.1149 -19.1147 -18.7938 -18.7936 -18.7793 -18.7787
   -18.2203 -18.2095 -17.1729 -17.1527 -17.0489 -17.0488 -16.0210 -16.0142
   -12.0785 -12.0752 -12.0067 -11.9688 -11.8233 -11.7985 -11.7518 -11.7492
    -8.8492  -8.8147  -8.2452  -8.2421  -7.5266  -7.5241  -7.4879  -7.4425
    -6.9603  -6.9234  -6.5655  -6.5546  -6.4260  -6.4193  -6.3313  -6.3187
    -6.1123  -6.1063  -5.9346  -5.9134  -5.8293  -5.8181  -5.7239  -5.7183
    -5.6040  -5.5896  -5.5195  -5.5147  -5.0962  -5.0847  -4.8758  -4.8740
    -4.4189  -4.4026  -4.3383  -4.3142  -4.0091  -3.9932  -3.7646  -3.7613
    -3.6638  -3.6381  -3.6258  -3.5882  -3.1576  -3.1416  -3.0360  -3.0287
    -0.6573  -0.6378  -0.2698  -0.2621  -0.2122  -0.1903  -0.1769  -0.1578
    -0.0552  -0.0344   0.1126   0.1412   0.2262   0.2475   0.3592   0.3799
     0.6065   0.6444   0.7228   0.7466   0.7870   0.8180   0.9182   0.9238
     0.9827   0.9913   1.0594   1.0981   1.3159   1.3174   1.3449   1.3535

     occupation numbers 
     1.0000   1.0000   1.0000   1.0000   1.0000   1.0000   1.0000   1.0000
     1.0000   1.0000   1.0000   1.0000   1.0000   1.0000   1.0000   1.0000
     1.0000   1.0000   1.0000   1.0000   1.0000   1.0000   1.0000   1.0000
     1.0000   1.0000   1.0000   1.0000   1.0000   1.0000   1.0000   1.0000
     1.0000   1.0000   1.0000   1.0000   1.0000   1.0000   1.0000   1.0000
     1.0000   1.0000   1.0000   1.0000   1.0000   1.0000   1.0000   1.0000
     1.0000   1.0000   1.0000   1.0000   1.0000   1.0000   1.0000   1.0000
     1.0000   1.0000   1.0000   1.0000   1.0000   1.0000   1.0000   1.0000
     1.0000   1.0000   1.0000   1.0000   1.0000   1.0000   1.0000   1.0000
     1.0000   1.0000   1.0000   1.0000   1.0000   1.0000   1.0000   1.0000
     1.0000   1.0000   1.0000   1.0000   1.0000   1.0000   1.0000   1.0000
     1.0000   1.0000   1.0000   1.0000   1.0000   1.0000   1.0000   1.0000
     1.0000   1.0000   1.0000   1.0000   1.0000   1.0000   1.0000   1.0000
     1.0000   1.0000   1.0000   1.0000   1.0000   1.0000   1.0000   1.0000

     highest occupied level (ev):     1.4093

!    total energy              =   -1282.01882326 Ry
     Harris-Foulkes estimate   =   -1282.01882399 Ry
     estimated scf accuracy    <       0.00000080 Ry

     total all-electron energy =     -4786.462571 Ry

     The total energy is the sum of the following terms:

     one-electron contribution =    -638.55365518 Ry
     hartree contribution      =     417.72348999 Ry
     xc contribution           =    -260.22049710 Ry
     ewald contribution        =    -470.57443281 Ry
     one-center paw contrib.   =    -330.39372816 Ry

     convergence has been achieved in  21 iterations

     Forces acting on atoms (Ry/au):

     atom    1 type  1   force =    -0.01381461   -0.00777282   -0.01464582
     atom    2 type  4   force =     0.02991784    0.00624355   -0.02224672
     atom    3 type  1   force =    -0.00217198   -0.00859285   -0.01119371
     atom    4 type  1   force =     0.00582236    0.00112554    0.00033138
     atom    5 type  4   force =     0.00256208   -0.02739757    0.03015514
     atom    6 type  1   force =     0.01369018    0.00092868   -0.00486432
     atom    7 type  4   force =    -0.01117061    0.02076999    0.04301697
     atom    8 type  2   force =     0.18120947   -0.11573182    0.05330739
     atom    9 type  3   force =    -0.13525527   -0.06098163   -0.13923057
     atom   10 type  3   force =    -0.04639515    0.18194330    0.08164053
     atom   11 type  4   force =    -0.03425047    0.02167411   -0.01564508
     atom   12 type  2   force =     0.12421852   -0.05317525    0.21230158
     atom   13 type  3   force =    -0.19845850   -0.10111343   -0.06158733
     atom   14 type  3   force =     0.06584516    0.15443955   -0.15372381
     atom   15 type  3   force =     0.06584516   -0.15443955   -0.15372381
     atom   16 type  3   force =    -0.19845850    0.10111343   -0.06158733
     atom   17 type  2   force =     0.12421852    0.05317525    0.21230158
     atom   18 type  4   force =    -0.03425047   -0.02167411   -0.01564508
     atom   19 type  3   force =    -0.04639515   -0.18194330    0.08164053
     atom   20 type  3   force =    -0.13525527    0.06098163   -0.13923057
     atom   21 type  2   force =     0.18120947    0.11573182    0.05330739
     atom   22 type  4   force =    -0.01117061   -0.02076999    0.04301697
     atom   23 type  1   force =     0.01369018   -0.00092868   -0.00486432
     atom   24 type  4   force =     0.00256208    0.02739757    0.03015514
     atom   25 type  1   force =     0.00582236   -0.00112554    0.00033138
     atom   26 type  1   force =    -0.00217198    0.00859285   -0.01119371
     atom   27 type  4   force =     0.02991784   -0.00624355   -0.02224672
     atom   28 type  1   force =    -0.01381461    0.00777282   -0.01464582
     atom   29 type  3   force =    -0.06584516   -0.15443955    0.15372381
     atom   30 type  3   force =     0.19845850    0.10111343    0.06158733
     atom   31 type  2   force =    -0.12421852    0.05317525   -0.21230158
     atom   32 type  4   force =     0.03425047   -0.02167411    0.01564508
     atom   33 type  3   force =     0.04639515   -0.18194330   -0.08164053
     atom   34 type  3   force =     0.13525527    0.06098163    0.13923057
     atom   35 type  2   force =    -0.18120947    0.11573182   -0.05330739
     atom   36 type  4   force =     0.01117061   -0.02076999   -0.04301697
     atom   37 type  1   force =    -0.01369018   -0.00092868    0.00486432
     atom   38 type  4   force =    -0.00256208    0.02739757   -0.03015514
     atom   39 type  1   force =    -0.00582236   -0.00112554   -0.00033138
     atom   40 type  1   force =     0.00217198    0.00859285    0.01119371
     atom   41 type  4   force =    -0.02991784   -0.00624355    0.02224672
     atom   42 type  1   force =     0.01381461    0.00777282    0.01464582
     atom   43 type  3   force =    -0.06584516    0.15443955    0.15372381
     atom   44 type  3   force =     0.19845850   -0.10111343    0.06158733
     atom   45 type  2   force =    -0.12421852   -0.05317525   -0.21230158
     atom   46 type  4   force =     0.03425047    0.02167411    0.01564508
     atom   47 type  3   force =     0.04639515    0.18194330   -0.08164053
     atom   48 type  3   force =     0.13525527   -0.06098163    0.13923057
     atom   49 type  2   force =    -0.18120947   -0.11573182   -0.05330739
     atom   50 type  4   force =     0.01117061    0.02076999   -0.04301697
     atom   51 type  1   force =    -0.01369018    0.00092868    0.00486432
     atom   52 type  4   force =    -0.00256208   -0.02739757   -0.03015514
     atom   53 type  1   force =    -0.00582236    0.00112554   -0.00033138
     atom   54 type  1   force =     0.00217198   -0.00859285    0.01119371
     atom   55 type  4   force =    -0.02991784    0.00624355    0.02224672
     atom   56 type  1   force =     0.01381461   -0.00777282    0.01464582
     The non-local contrib.  to forces
     atom    1 type  1   force =     0.17148372    0.38634751    0.11099407
     atom    2 type  4   force =    -2.40922350   -0.47900565    1.52710047
     atom    3 type  1   force =     0.04307206   -0.03297520    0.05421700
     atom    4 type  1   force =    -0.57537414   -0.41452986   -0.12142558
     atom    5 type  4   force =     0.14683258    1.86248412   -2.22516554
     atom    6 type  1   force =    -0.00447714    0.06334244    0.05254163
     atom    7 type  4   force =     0.53256983   -1.16763276   -2.62406447
     atom    8 type  2   force =     0.64472530   -0.43828793    0.17958554
     atom    9 type  3   force =     0.07927093    0.02750897    0.06972965
     atom   10 type  3   force =     0.02911632   -0.09914233   -0.03936070
     atom   11 type  4   force =     2.27620462   -1.47887760    0.83108073
     atom   12 type  2   force =     0.39020210   -0.18695787    0.69931978
     atom   13 type  3   force =     0.09460769    0.04880585    0.03789495
     atom   14 type  3   force =    -0.02893330   -0.07465105    0.08061919
     atom   15 type  3   force =    -0.02893330    0.07465105    0.08061919
     atom   16 type  3   force =     0.09460769   -0.04880585    0.03789495
     atom   17 type  2   force =     0.39020210    0.18695787    0.69931978
     atom   18 type  4   force =     2.27620462    1.47887760    0.83108073
     atom   19 type  3   force =     0.02911632    0.09914233   -0.03936070
     atom   20 type  3   force =     0.07927093   -0.02750897    0.06972965
     atom   21 type  2   force =     0.64472530    0.43828793    0.17958554
     atom   22 type  4   force =     0.53256983    1.16763276   -2.62406447
     atom   23 type  1   force =    -0.00447714   -0.06334244    0.05254163
     atom   24 type  4   force =     0.14683258   -1.86248412   -2.22516554
     atom   25 type  1   force =    -0.57537414    0.41452986   -0.12142558
     atom   26 type  1   force =     0.04307206    0.03297520    0.05421700
     atom   27 type  4   force =    -2.40922350    0.47900565    1.52710047
     atom   28 type  1   force =     0.17148372   -0.38634751    0.11099407
     atom   29 type  3   force =     0.02893330    0.07465105   -0.08061919
     atom   30 type  3   force =    -0.09460769   -0.04880585   -0.03789495
     atom   31 type  2   force =    -0.39020210    0.18695787   -0.69931978
     atom   32 type  4   force =    -2.27620462    1.47887760   -0.83108073
     atom   33 type  3   force =    -0.02911632    0.09914233    0.03936070
     atom   34 type  3   force =    -0.07927093   -0.02750897   -0.06972965
     atom   35 type  2   force =    -0.64472530    0.43828793   -0.17958554
     atom   36 type  4   force =    -0.53256983    1.16763276    2.62406447
     atom   37 type  1   force =     0.00447714   -0.06334244   -0.05254163
     atom   38 type  4   force =    -0.14683258   -1.86248412    2.22516554
     atom   39 type  1   force =     0.57537414    0.41452986    0.12142558
     atom   40 type  1   force =    -0.04307206    0.03297520   -0.05421700
     atom   41 type  4   force =     2.40922350    0.47900565   -1.52710047
     atom   42 type  1   force =    -0.17148372   -0.38634751   -0.11099407
     atom   43 type  3   force =     0.02893330   -0.07465105   -0.08061919
     atom   44 type  3   force =    -0.09460769    0.04880585   -0.03789495
     atom   45 type  2   force =    -0.39020210   -0.18695787   -0.69931978
     atom   46 type  4   force =    -2.27620462   -1.47887760   -0.83108073
     atom   47 type  3   force =    -0.02911632   -0.09914233    0.03936070
     atom   48 type  3   force =    -0.07927093    0.02750897   -0.06972965
     atom   49 type  2   force =    -0.64472530   -0.43828793   -0.17958554
     atom   50 type  4   force =    -0.53256983   -1.16763276    2.62406447
     atom   51 type  1   force =     0.00447714    0.06334244   -0.05254163
     atom   52 type  4   force =    -0.14683258    1.86248412    2.22516554
     atom   53 type  1   force =     0.57537414   -0.41452986    0.12142558
     atom   54 type  1   force =    -0.04307206   -0.03297520   -0.05421700
     atom   55 type  4   force =     2.40922350   -0.47900565   -1.52710047
     atom   56 type  1   force =    -0.17148372    0.38634751   -0.11099407
     The ionic contribution  to forces
     atom    1 type  1   force =    -3.02387657    0.23660129   -2.00927268
     atom    2 type  4   force =    12.24933486    4.29112474   -5.98154866
     atom    3 type  1   force =    -0.23583075    1.63139269   -0.00479884
     atom    4 type  1   force =     2.74477508    2.79019927    2.01307012
     atom    5 type  4   force =    -1.30946770   -8.59289141   11.32894774
     atom    6 type  1   force =    -0.38423696    0.05779432    1.08471183
     atom    7 type  4   force =    -2.06820689    6.30441879   12.48277303
     atom    8 type  2   force =    -4.04476332    3.23167947   -1.20395388
     atom    9 type  3   force =    -2.26197342   -0.15470241   -2.00865049
     atom   10 type  3   force =    -1.24600772    2.81197799    0.72629677
     atom   11 type  4   force =   -11.15006802    6.18242246   -2.29612313
     atom   12 type  2   force =    -2.86515807    1.00471966   -4.70567984
     atom   13 type  3   force =    -2.62752738   -1.07739290   -1.56905091
     atom   14 type  3   force =     0.24884752    2.04556841   -2.53310746
     atom   15 type  3   force =     0.24884752   -2.04556841   -2.53310746
     atom   16 type  3   force =    -2.62752738    1.07739290   -1.56905091
     atom   17 type  2   force =    -2.86515807   -1.00471966   -4.70567984
     atom   18 type  4   force =   -11.15006802   -6.18242246   -2.29612313
     atom   19 type  3   force =    -1.24600772   -2.81197799    0.72629677
     atom   20 type  3   force =    -2.26197342    0.15470241   -2.00865049
     atom   21 type  2   force =    -4.04476332   -3.23167947   -1.20395388
     atom   22 type  4   force =    -2.06820689   -6.30441879   12.48277303
     atom   23 type  1   force =    -0.38423696   -0.05779432    1.08471183
     atom   24 type  4   force =    -1.30946770    8.59289141   11.32894774
     atom   25 type  1   force =     2.74477508   -2.79019927    2.01307012
     atom   26 type  1   force =    -0.23583075   -1.63139269   -0.00479884
     atom   27 type  4   force =    12.24933486   -4.29112474   -5.98154866
     atom   28 type  1   force =    -3.02387657   -0.23660129   -2.00927268
     atom   29 type  3   force =    -0.24884752   -2.04556841    2.53310746
     atom   30 type  3   force =     2.62752738    1.07739290    1.56905091
     atom   31 type  2   force =     2.86515807   -1.00471966    4.70567984
     atom   32 type  4   force =    11.15006802   -6.18242246    2.29612313
     atom   33 type  3   force =     1.24600772   -2.81197799   -0.72629677
     atom   34 type  3   force =     2.26197342    0.15470241    2.00865049
     atom   35 type  2   force =     4.04476332   -3.23167947    1.20395388
     atom   36 type  4   force =     2.06820689   -6.30441879  -12.48277303
     atom   37 type  1   force =     0.38423696   -0.05779432   -1.08471183
     atom   38 type  4   force =     1.30946770    8.59289141  -11.32894774
     atom   39 type  1   force =    -2.74477508   -2.79019927   -2.01307012
     atom   40 type  1   force =     0.23583075   -1.63139269    0.00479884
     atom   41 type  4   force =   -12.24933486   -4.29112474    5.98154866
     atom   42 type  1   force =     3.02387657   -0.23660129    2.00927268
     atom   43 type  3   force =    -0.24884752    2.04556841    2.53310746
     atom   44 type  3   force =     2.62752738   -1.07739290    1.56905091
     atom   45 type  2   force =     2.86515807    1.00471966    4.70567984
     atom   46 type  4   force =    11.15006802    6.18242246    2.29612313
     atom   47 type  3   force =     1.24600772    2.81197799   -0.72629677
     atom   48 type  3   force =     2.26197342   -0.15470241    2.00865049
     atom   49 type  2   force =     4.04476332    3.23167947    1.20395388
     atom   50 type  4   force =     2.06820689    6.30441879  -12.48277303
     atom   51 type  1   force =     0.38423696    0.05779432   -1.08471183
     atom   52 type  4   force =     1.30946770   -8.59289141  -11.32894774
     atom   53 type  1   force =    -2.74477508    2.79019927   -2.01307012
     atom   54 type  1   force =     0.23583075    1.63139269    0.00479884
     atom   55 type  4   force =   -12.24933486    4.29112474    5.98154866
     atom   56 type  1   force =     3.02387657    0.23660129    2.00927268
     The local contribution  to forces
     atom    1 type  1   force =     2.84166423   -0.62429612    1.88533125
     atom    2 type  4   force =    -9.82875819   -3.80952143    4.44387925
     atom    3 type  1   force =     0.19061605   -1.60874259   -0.06113399
     atom    4 type  1   force =    -2.17289645   -2.38093521   -1.89278354
     atom    5 type  4   force =     1.16653959    6.71738397   -9.09104605
     atom    6 type  1   force =     0.40378646   -0.11887498   -1.14171766
     atom    7 type  4   force =     1.52859159   -5.12493078   -9.83607214
     atom    8 type  2   force =     3.59511337   -2.91906450    1.08253760
     atom    9 type  3   force =     2.04743885    0.06621329    1.79970108
     atom   10 type  3   force =     1.17047367   -2.53087865   -0.60527658
     atom   11 type  4   force =     8.85753042   -4.69350273    1.45603234
     atom   12 type  2   force =     2.60822501   -0.87472929    4.23440547
     atom   13 type  3   force =     2.33448308    0.92747420    1.46955225
     atom   14 type  3   force =    -0.15404022   -1.81648051    2.29875382
     atom   15 type  3   force =    -0.15404022    1.81648051    2.29875382
     atom   16 type  3   force =     2.33448308   -0.92747420    1.46955225
     atom   17 type  2   force =     2.60822501    0.87472929    4.23440547
     atom   18 type  4   force =     8.85753042    4.69350273    1.45603234
     atom   19 type  3   force =     1.17047367    2.53087865   -0.60527658
     atom   20 type  3   force =     2.04743885   -0.06621329    1.79970108
     atom   21 type  2   force =     3.59511337    2.91906450    1.08253760
     atom   22 type  4   force =     1.52859159    5.12493078   -9.83607214
     atom   23 type  1   force =     0.40378646    0.11887498   -1.14171766
     atom   24 type  4   force =     1.16653959   -6.71738397   -9.09104605
     atom   25 type  1   force =    -2.17289645    2.38093521   -1.89278354
     atom   26 type  1   force =     0.19061605    1.60874259   -0.06113399
     atom   27 type  4   force =    -9.82875819    3.80952143    4.44387925
     atom   28 type  1   force =     2.84166423    0.62429612    1.88533125
     atom   29 type  3   force =     0.15404022    1.81648051   -2.29875382
     atom   30 type  3   force =    -2.33448308   -0.92747420   -1.46955225
     atom   31 type  2   force =    -2.60822501    0.87472929   -4.23440547
     atom   32 type  4   force =    -8.85753042    4.69350273   -1.45603234
     atom   33 type  3   force =    -1.17047367    2.53087865    0.60527658
     atom   34 type  3   force =    -2.04743885   -0.06621329   -1.79970108
     atom   35 type  2   force =    -3.59511337    2.91906450   -1.08253760
     atom   36 type  4   force =    -1.52859159    5.12493078    9.83607214
     atom   37 type  1   force =    -0.40378646    0.11887498    1.14171766
     atom   38 type  4   force =    -1.16653959   -6.71738397    9.09104605
     atom   39 type  1   force =     2.17289645    2.38093521    1.89278354
     atom   40 type  1   force =    -0.19061605    1.60874259    0.06113399
     atom   41 type  4   force =     9.82875819    3.80952143   -4.44387925
     atom   42 type  1   force =    -2.84166423    0.62429612   -1.88533125
     atom   43 type  3   force =     0.15404022   -1.81648051   -2.29875382
     atom   44 type  3   force =    -2.33448308    0.92747420   -1.46955225
     atom   45 type  2   force =    -2.60822501   -0.87472929   -4.23440547
     atom   46 type  4   force =    -8.85753042   -4.69350273   -1.45603234
     atom   47 type  3   force =    -1.17047367   -2.53087865    0.60527658
     atom   48 type  3   force =    -2.04743885    0.06621329   -1.79970108
     atom   49 type  2   force =    -3.59511337   -2.91906450   -1.08253760
     atom   50 type  4   force =    -1.52859159   -5.12493078    9.83607214
     atom   51 type  1   force =    -0.40378646   -0.11887498    1.14171766
     atom   52 type  4   force =    -1.16653959    6.71738397    9.09104605
     atom   53 type  1   force =     2.17289645   -2.38093521    1.89278354
     atom   54 type  1   force =    -0.19061605   -1.60874259    0.06113399
     atom   55 type  4   force =     9.82875819   -3.80952143   -4.44387925
     atom   56 type  1   force =    -2.84166423   -0.62429612   -1.88533125
     The core correction contribution to forces
     atom    1 type  1   force =    -0.00298630   -0.00645422   -0.00178586
     atom    2 type  4   force =     0.01875915    0.00366388   -0.01188736
     atom    3 type  1   force =     0.00037103    0.00167941    0.00000603
     atom    4 type  1   force =     0.00926861    0.00629150    0.00158869
     atom    5 type  4   force =    -0.00118695   -0.01437010    0.01737072
     atom    6 type  1   force =    -0.00115028   -0.00155723   -0.00020229
     atom    7 type  4   force =    -0.00409077    0.00889058    0.02024008
     atom    8 type  2   force =    -0.01390728    0.00992538   -0.00481284
     atom    9 type  3   force =     0.00000000    0.00000000    0.00000000
     atom   10 type  3   force =     0.00000000    0.00000000    0.00000000
     atom   11 type  4   force =    -0.01770508    0.01156618   -0.00656485
     atom   12 type  2   force =    -0.00894484    0.00380612   -0.01580567
     atom   13 type  3   force =     0.00000000    0.00000000    0.00000000
     atom   14 type  3   force =     0.00000000    0.00000000    0.00000000
     atom   15 type  3   force =     0.00000000    0.00000000    0.00000000
     atom   16 type  3   force =     0.00000000    0.00000000    0.00000000
     atom   17 type  2   force =    -0.00894484   -0.00380612   -0.01580567
     atom   18 type  4   force =    -0.01770508   -0.01156618   -0.00656485
     atom   19 type  3   force =     0.00000000    0.00000000    0.00000000
     atom   20 type  3   force =     0.00000000    0.00000000    0.00000000
     atom   21 type  2   force =    -0.01390728   -0.00992538   -0.00481284
     atom   22 type  4   force =    -0.00409077   -0.00889058    0.02024008
     atom   23 type  1   force =    -0.00115028    0.00155723   -0.00020229
     atom   24 type  4   force =    -0.00118695    0.01437010    0.01737072
     atom   25 type  1   force =     0.00926861   -0.00629150    0.00158869
     atom   26 type  1   force =     0.00037103   -0.00167941    0.00000603
     atom   27 type  4   force =     0.01875915   -0.00366388   -0.01188736
     atom   28 type  1   force =    -0.00298630    0.00645422   -0.00178586
     atom   29 type  3   force =     0.00000000    0.00000000    0.00000000
     atom   30 type  3   force =     0.00000000    0.00000000    0.00000000
     atom   31 type  2   force =     0.00894484   -0.00380612    0.01580567
     atom   32 type  4   force =     0.01770508   -0.01156618    0.00656485
     atom   33 type  3   force =     0.00000000    0.00000000    0.00000000
     atom   34 type  3   force =     0.00000000    0.00000000    0.00000000
     atom   35 type  2   force =     0.01390728   -0.00992538    0.00481284
     atom   36 type  4   force =     0.00409077   -0.00889058   -0.02024008
     atom   37 type  1   force =     0.00115028    0.00155723    0.00020229
     atom   38 type  4   force =     0.00118695    0.01437010   -0.01737072
     atom   39 type  1   force =    -0.00926861   -0.00629150   -0.00158869
     atom   40 type  1   force =    -0.00037103   -0.00167941   -0.00000603
     atom   41 type  4   force =    -0.01875915   -0.00366388    0.01188736
     atom   42 type  1   force =     0.00298630    0.00645422    0.00178586
     atom   43 type  3   force =     0.00000000    0.00000000    0.00000000
     atom   44 type  3   force =     0.00000000    0.00000000    0.00000000
     atom   45 type  2   force =     0.00894484    0.00380612    0.01580567
     atom   46 type  4   force =     0.01770508    0.01156618    0.00656485
     atom   47 type  3   force =     0.00000000    0.00000000    0.00000000
     atom   48 type  3   force =     0.00000000    0.00000000    0.00000000
     atom   49 type  2   force =     0.01390728    0.00992538    0.00481284
     atom   50 type  4   force =     0.00409077    0.00889058   -0.02024008
     atom   51 type  1   force =     0.00115028   -0.00155723    0.00020229
     atom   52 type  4   force =     0.00118695   -0.01437010   -0.01737072
     atom   53 type  1   force =    -0.00926861    0.00629150   -0.00158869
     atom   54 type  1   force =    -0.00037103    0.00167941   -0.00000603
     atom   55 type  4   force =    -0.01875915    0.00366388    0.01188736
     atom   56 type  1   force =     0.00298630   -0.00645422    0.00178586
     The Hubbard contrib.    to forces
     atom    1 type  1   force =     0.00000000    0.00000000    0.00000000
     atom    2 type  4   force =     0.00000000    0.00000000    0.00000000
     atom    3 type  1   force =     0.00000000    0.00000000    0.00000000
     atom    4 type  1   force =     0.00000000    0.00000000    0.00000000
     atom    5 type  4   force =     0.00000000    0.00000000    0.00000000
     atom    6 type  1   force =     0.00000000    0.00000000    0.00000000
     atom    7 type  4   force =     0.00000000    0.00000000    0.00000000
     atom    8 type  2   force =     0.00000000    0.00000000    0.00000000
     atom    9 type  3   force =     0.00000000    0.00000000    0.00000000
     atom   10 type  3   force =     0.00000000    0.00000000    0.00000000
     atom   11 type  4   force =     0.00000000    0.00000000    0.00000000
     atom   12 type  2   force =     0.00000000    0.00000000    0.00000000
     atom   13 type  3   force =     0.00000000    0.00000000    0.00000000
     atom   14 type  3   force =     0.00000000    0.00000000    0.00000000
     atom   15 type  3   force =     0.00000000    0.00000000    0.00000000
     atom   16 type  3   force =     0.00000000    0.00000000    0.00000000
     atom   17 type  2   force =     0.00000000    0.00000000    0.00000000
     atom   18 type  4   force =     0.00000000    0.00000000    0.00000000
     atom   19 type  3   force =     0.00000000    0.00000000    0.00000000
     atom   20 type  3   force =     0.00000000    0.00000000    0.00000000
     atom   21 type  2   force =     0.00000000    0.00000000    0.00000000
     atom   22 type  4   force =     0.00000000    0.00000000    0.00000000
     atom   23 type  1   force =     0.00000000    0.00000000    0.00000000
     atom   24 type  4   force =     0.00000000    0.00000000    0.00000000
     atom   25 type  1   force =     0.00000000    0.00000000    0.00000000
     atom   26 type  1   force =     0.00000000    0.00000000    0.00000000
     atom   27 type  4   force =     0.00000000    0.00000000    0.00000000
     atom   28 type  1   force =     0.00000000    0.00000000    0.00000000
     atom   29 type  3   force =     0.00000000    0.00000000    0.00000000
     atom   30 type  3   force =     0.00000000    0.00000000    0.00000000
     atom   31 type  2   force =     0.00000000    0.00000000    0.00000000
     atom   32 type  4   force =     0.00000000    0.00000000    0.00000000
     atom   33 type  3   force =     0.00000000    0.00000000    0.00000000
     atom   34 type  3   force =     0.00000000    0.00000000    0.00000000
     atom   35 type  2   force =     0.00000000    0.00000000    0.00000000
     atom   36 type  4   force =     0.00000000    0.00000000    0.00000000
     atom   37 type  1   force =     0.00000000    0.00000000    0.00000000
     atom   38 type  4   force =     0.00000000    0.00000000    0.00000000
     atom   39 type  1   force =     0.00000000    0.00000000    0.00000000
     atom   40 type  1   force =     0.00000000    0.00000000    0.00000000
     atom   41 type  4   force =     0.00000000    0.00000000    0.00000000
     atom   42 type  1   force =     0.00000000    0.00000000    0.00000000
     atom   43 type  3   force =     0.00000000    0.00000000    0.00000000
     atom   44 type  3   force =     0.00000000    0.00000000    0.00000000
     atom   45 type  2   force =     0.00000000    0.00000000    0.00000000
     atom   46 type  4   force =     0.00000000    0.00000000    0.00000000
     atom   47 type  3   force =     0.00000000    0.00000000    0.00000000
     atom   48 type  3   force =     0.00000000    0.00000000    0.00000000
     atom   49 type  2   force =     0.00000000    0.00000000    0.00000000
     atom   50 type  4   force =     0.00000000    0.00000000    0.00000000
     atom   51 type  1   force =     0.00000000    0.00000000    0.00000000
     atom   52 type  4   force =     0.00000000    0.00000000    0.00000000
     atom   53 type  1   force =     0.00000000    0.00000000    0.00000000
     atom   54 type  1   force =     0.00000000    0.00000000    0.00000000
     atom   55 type  4   force =     0.00000000    0.00000000    0.00000000
     atom   56 type  1   force =     0.00000000    0.00000000    0.00000000
     The SCF correction term to forces
     atom    1 type  1   force =    -0.00009968    0.00002873    0.00008741
     atom    2 type  4   force =    -0.00019447   -0.00001800    0.00020958
     atom    3 type  1   force =    -0.00040037    0.00005284    0.00051610
     atom    4 type  1   force =     0.00004927    0.00009985   -0.00011831
     atom    5 type  4   force =    -0.00015542   -0.00000414    0.00004827
     atom    6 type  1   force =    -0.00023190    0.00022413   -0.00019782
     atom    7 type  4   force =    -0.00003437    0.00002416    0.00014047
     atom    8 type  2   force =     0.00004141    0.00001577   -0.00004904
     atom    9 type  3   force =     0.00000838   -0.00000148   -0.00001080
     atom   10 type  3   force =     0.00002258   -0.00001372   -0.00001897
     atom   11 type  4   force =    -0.00021242    0.00006579   -0.00007016
     atom   12 type  2   force =    -0.00010568   -0.00001387    0.00006184
     atom   13 type  3   force =    -0.00002189   -0.00000058    0.00001638
     atom   14 type  3   force =    -0.00002884    0.00000270    0.00001064
     atom   15 type  3   force =    -0.00002884   -0.00000270    0.00001064
     atom   16 type  3   force =    -0.00002189    0.00000058    0.00001638
     atom   17 type  2   force =    -0.00010568    0.00001387    0.00006184
     atom   18 type  4   force =    -0.00021242   -0.00006579   -0.00007016
     atom   19 type  3   force =     0.00002258    0.00001372   -0.00001897
     atom   20 type  3   force =     0.00000838    0.00000148   -0.00001080
     atom   21 type  2   force =     0.00004141   -0.00001577   -0.00004904
     atom   22 type  4   force =    -0.00003437   -0.00002416    0.00014047
     atom   23 type  1   force =    -0.00023190   -0.00022413   -0.00019782
     atom   24 type  4   force =    -0.00015542    0.00000414    0.00004827
     atom   25 type  1   force =     0.00004927   -0.00009985   -0.00011831
     atom   26 type  1   force =    -0.00040037   -0.00005284    0.00051610
     atom   27 type  4   force =    -0.00019447    0.00001800    0.00020958
     atom   28 type  1   force =    -0.00009968   -0.00002873    0.00008741
     atom   29 type  3   force =     0.00002884   -0.00000270   -0.00001064
     atom   30 type  3   force =     0.00002189    0.00000058   -0.00001638
     atom   31 type  2   force =     0.00010568    0.00001387   -0.00006184
     atom   32 type  4   force =     0.00021242   -0.00006579    0.00007016
     atom   33 type  3   force =    -0.00002258    0.00001372    0.00001897
     atom   34 type  3   force =    -0.00000838    0.00000148    0.00001080
     atom   35 type  2   force =    -0.00004141   -0.00001577    0.00004904
     atom   36 type  4   force =     0.00003437   -0.00002416   -0.00014047
     atom   37 type  1   force =     0.00023190   -0.00022413    0.00019782
     atom   38 type  4   force =     0.00015542    0.00000414   -0.00004827
     atom   39 type  1   force =    -0.00004927   -0.00009985    0.00011831
     atom   40 type  1   force =     0.00040037   -0.00005284   -0.00051610
     atom   41 type  4   force =     0.00019447    0.00001800   -0.00020958
     atom   42 type  1   force =     0.00009968   -0.00002873   -0.00008741
     atom   43 type  3   force =     0.00002884    0.00000270   -0.00001064
     atom   44 type  3   force =     0.00002189   -0.00000058   -0.00001638
     atom   45 type  2   force =     0.00010568   -0.00001387   -0.00006184
     atom   46 type  4   force =     0.00021242    0.00006579    0.00007016
     atom   47 type  3   force =    -0.00002258   -0.00001372    0.00001897
     atom   48 type  3   force =    -0.00000838   -0.00000148    0.00001080
     atom   49 type  2   force =    -0.00004141    0.00001577    0.00004904
     atom   50 type  4   force =     0.00003437    0.00002416   -0.00014047
     atom   51 type  1   force =     0.00023190    0.00022413    0.00019782
     atom   52 type  4   force =     0.00015542   -0.00000414   -0.00004827
     atom   53 type  1   force =    -0.00004927    0.00009985    0.00011831
     atom   54 type  1   force =     0.00040037    0.00005284   -0.00051610
     atom   55 type  4   force =     0.00019447   -0.00001800   -0.00020958
     atom   56 type  1   force =     0.00009968    0.00002873   -0.00008741

     Total force =     1.112203     Total SCF correction =     0.001816


     entering subroutine stress ...

          total   stress  (Ry/bohr**3)                   (kbar)     P=  139.34
   0.00097122   0.00000000   0.00012159        142.87      0.00     17.89
   0.00000000   0.00096631   0.00000000          0.00    142.15      0.00
   0.00012159   0.00000000   0.00090413         17.89      0.00    133.00

     kinetic stress (kbar)  15226.65      0.00    328.72
                                0.00  15649.68      0.00
                              328.72      0.00  15198.06

     local   stress (kbar) -15768.17      0.00   7885.61
                                0.00  -8793.10     -0.00
                             7885.61     -0.00 -11881.25

     nonloc. stress (kbar)   1032.25      0.00     11.09
                                0.00   1042.74      0.00
                               11.09      0.00   1003.07

     hartree stress (kbar)   7095.51     -0.00  -2882.11
                               -0.00   5049.64     -0.00
                            -2882.11     -0.00   5624.19

     exc-cor stress (kbar)  -2196.96     -0.00    -10.91
                               -0.00  -2217.43     -0.00
                              -10.91     -0.00  -2202.92

     corecor stress (kbar)  -1141.55      0.00     -2.78
                                0.00  -1143.59      0.00
                               -2.78      0.00  -1141.24

     ewald   stress (kbar)  -4104.85     -0.00  -5311.74
                               -0.00  -9445.78     -0.00
                            -5311.74     -0.00  -6466.90

     hubbard stress (kbar)      0.00      0.00      0.00
                                0.00      0.00      0.00
                                0.00      0.00      0.00

     london  stress (kbar)      0.00      0.00      0.00
                                0.00      0.00      0.00
                                0.00      0.00      0.00

     XDM     stress (kbar)      0.00      0.00      0.00
                                0.00      0.00      0.00
                                0.00      0.00      0.00

     dft-nl  stress (kbar)      0.00      0.00      0.00
                                0.00      0.00      0.00
                                0.00      0.00      0.00

     TS-vdW  stress (kbar)      0.00      0.00      0.00
                                0.00      0.00      0.00
                                0.00      0.00      0.00



     Writing output data file scf.pbe.ec-140.kp-444.HMX-792931.np-8.default-conv-thr.save

     init_run     :    635.70s CPU    672.87s WALL (       1 calls)
     electrons    :  23157.06s CPU  25596.75s WALL (       1 calls)
     forces       :    305.92s CPU    326.28s WALL (       1 calls)
     stress       :   1046.21s CPU   1074.96s WALL (       1 calls)

     Called by init_run:
     wfcinit      :    429.82s CPU    459.66s WALL (       1 calls)
     potinit      :     69.97s CPU     71.76s WALL (       1 calls)

     Called by electrons:
     c_bands      :  19448.26s CPU  21247.75s WALL (      21 calls)
     sum_band     :   3225.55s CPU   3796.00s WALL (      21 calls)
     v_of_rho     :     96.97s CPU    105.16s WALL (      22 calls)
     v_h          :     10.19s CPU     11.04s WALL (      22 calls)
     v_xc         :     94.33s CPU    102.30s WALL (      24 calls)
     newd         :    360.88s CPU    419.59s WALL (      22 calls)
     PAW_pot      :     14.94s CPU     15.66s WALL (      22 calls)
     mix_rho      :     20.81s CPU     21.99s WALL (      21 calls)

     Called by c_bands:
     init_us_2    :    118.71s CPU    121.38s WALL (     720 calls)
     cegterg      :  19279.91s CPU  21056.88s WALL (     336 calls)

     Called by sum_band:
     sum_band:bec :      0.33s CPU      0.37s WALL (     336 calls)
     addusdens    :    619.63s CPU   1017.96s WALL (      21 calls)

     Called by *egterg:
     h_psi        :  11270.79s CPU  12206.66s WALL (    1496 calls)
     s_psi        :   2188.48s CPU   2326.24s WALL (    1496 calls)
     g_psi        :     15.25s CPU     20.89s WALL (    1144 calls)
     cdiaghg      :    355.03s CPU    371.43s WALL (    1480 calls)
     cegterg:over :   2108.06s CPU   2356.78s WALL (    1144 calls)
     cegterg:upda :   1299.92s CPU   1352.71s WALL (    1144 calls)
     cegterg:last :    783.57s CPU    848.06s WALL (     352 calls)

     Called by h_psi:
     h_psi:vloc   :   6972.75s CPU   7569.30s WALL (    1496 calls)
     h_psi:vnl    :   4241.82s CPU   4579.31s WALL (    1496 calls)
     add_vuspsi   :   2205.06s CPU   2375.03s WALL (    1496 calls)

     General routines
     calbec       :   2883.20s CPU   3112.24s WALL (    1912 calls)
     fft          :    110.90s CPU    145.55s WALL (     373 calls)
     ffts         :      2.05s CPU      2.29s WALL (      43 calls)
     fftw         :   4462.99s CPU   5151.33s WALL (  255010 calls)
     interpolate  :     17.24s CPU     18.63s WALL (      43 calls)
     davcio       :      1.05s CPU     31.01s WALL (      16 calls)

     Parallel routines
     fft_scatter  :   1884.94s CPU   2588.07s WALL (  255426 calls)

     PAW routines
     PAW_pot      :     14.94s CPU     15.66s WALL (      22 calls)
     PAW_symme    :      0.03s CPU      0.07s WALL (      43 calls)

     PWSCF        :     6h59m CPU        7h41m WALL


   This run was terminated on:   0: 1:44  26Jun2016            

=------------------------------------------------------------------------------=
   JOB DONE.
=------------------------------------------------------------------------------=
