
     Program PWSCF v.5.3.0 (svn rev. 11974) starts on 25Jun2016 at  9: 9: 5 

     This program is part of the open-source Quantum ESPRESSO suite
     for quantum simulation of materials; please cite
         "P. Giannozzi et al., J. Phys.:Condens. Matter 21 395502 (2009);
          URL http://www.quantum-espresso.org", 
     in publications or presentations arising from this work. More details at
     http://www.quantum-espresso.org/quote

     Parallel version (MPI), running on     8 processors
     R & G space division:  proc/nbgrp/npool/nimage =       8
     Waiting for input...
     Reading input from standard input
Warning: card    &IONS ignored
Warning: card TRUST_RADIUS_MAX=0.2 ignored
Warning: card / ignored
Warning: card     &CELL ignored
Warning: card CELL_DYNAMICS='BFGS' ignored
Warning: card / ignored

     Current dimensions of program PWSCF are:
     Max number of different atomic species (ntypx) = 10
     Max number of k-points (npk) =  40000
     Max angular momentum in pseudopotentials (lmaxx) =  3
               file N.pbe-n-kjpaw_psl.1.0.0.UPF: wavefunction(s)  2S renormalized
               file C.pbe-n-kjpaw_psl.1.0.0.UPF: wavefunction(s)  2S 2P renormalized
               file H.pbe-kjpaw_psl.1.0.0.UPF: wavefunction(s)  1S renormalized
               file O.pbe-n-kjpaw_psl.1.0.0.UPF: wavefunction(s)  2S 2P renormalized

     Subspace diagonalization in iterative solution of the eigenvalue problem:
     a serial algorithm will be used


     Parallelization info
     --------------------
     sticks:   dense  smooth     PW     G-vecs:    dense   smooth      PW
     Min        2540    1017    269               230816    58398    7997
     Max        2541    1018    270               230818    58413    7999
     Sum       20321    8137   2159              1846531   467243   63985


     Title: 
     HMX-scf--kp-444-ec-100-default-conv-thr                                    


     bravais-lattice index     =            0
     lattice parameter (alat)  =       1.8897  a.u.
     unit-cell volume          =    3458.1628 (a.u.)^3
     number of atoms/cell      =           56
     number of atomic types    =            4
     number of electrons       =       224.00
     number of Kohn-Sham states=          112
     kinetic-energy cutoff     =     100.0000  Ry
     charge density cutoff     =    1000.0000  Ry
     convergence threshold     =      1.0E-06
     mixing beta               =       0.7000
     number of iterations used =            8  plain     mixing
     Exchange-correlation      =  SLA  PW   PBX  PBC ( 1  4  3  4 0 0)

     celldm(1)=   1.889726  celldm(2)=   0.000000  celldm(3)=   0.000000
     celldm(4)=   0.000000  celldm(5)=   0.000000  celldm(6)=   0.000000

     crystal axes: (cart. coord. in units of alat)
               a(1) = (   6.533400   0.000000   0.000000 )  
               a(2) = (   0.000000  10.941900   0.000000 )  
               a(3) = (  -1.587995   0.000000   7.168312 )  

     reciprocal axes: (cart. coord. in units 2 pi/alat)
               b(1) = (  0.153060 -0.000000  0.033907 )  
               b(2) = (  0.000000  0.091392 -0.000000 )  
               b(3) = (  0.000000  0.000000  0.139503 )  


     PseudoPot. # 1 for  N read from file:
     /users/majewski/.data/PSEUDOPOTENTIALS/N.pbe-n-kjpaw_psl.1.0.0.UPF
     MD5 check sum: c21df8f53e59d08c3548513d559cdda6
     Pseudo is Projector augmented-wave + core cor, Zval =  5.0
     Generated using "atomic" code by A. Dal Corso  v.5.3.0 svn rev. 11974
     Shape of augmentation charge: PSQ
     Using radial grid of 1085 points,  4 beta functions with: 
                l(1) =   0
                l(2) =   0
                l(3) =   1
                l(4) =   1
     Q(r) pseudized with 0 coefficients 


     PseudoPot. # 2 for  C read from file:
     /users/majewski/.data/PSEUDOPOTENTIALS/C.pbe-n-kjpaw_psl.1.0.0.UPF
     MD5 check sum: 2ba8448e293caca687844dde9a1b88a8
     Pseudo is Projector augmented-wave + core cor, Zval =  4.0
     Generated using "atomic" code by A. Dal Corso  v.5.3.0 svn rev. 11974
     Shape of augmentation charge: PSQ
     Using radial grid of 1073 points,  4 beta functions with: 
                l(1) =   0
                l(2) =   0
                l(3) =   1
                l(4) =   1
     Q(r) pseudized with 0 coefficients 


     PseudoPot. # 3 for  H read from file:
     /users/majewski/.data/PSEUDOPOTENTIALS/H.pbe-kjpaw_psl.1.0.0.UPF
     MD5 check sum: bc0feb48a24907a0b97fa6ee2d589a29
     Pseudo is Projector augmented-wave, Zval =  1.0
     Generated using "atomic" code by A. Dal Corso  v.5.3.0 svn rev. 11974
     Shape of augmentation charge: PSQ
     Using radial grid of  929 points,  2 beta functions with: 
                l(1) =   0
                l(2) =   0
     Q(r) pseudized with 0 coefficients 


     PseudoPot. # 4 for  O read from file:
     /users/majewski/.data/PSEUDOPOTENTIALS/O.pbe-n-kjpaw_psl.1.0.0.UPF
     MD5 check sum: 9c0ade6c043cf4a781bde3908a3a8206
     Pseudo is Projector augmented-wave + core cor, Zval =  6.0
     Generated using "atomic" code by A. Dal Corso  v.5.3.0 svn rev. 11974
     Shape of augmentation charge: PSQ
     Using radial grid of 1095 points,  4 beta functions with: 
                l(1) =   0
                l(2) =   0
                l(3) =   1
                l(4) =   1
     Q(r) pseudized with 0 coefficients 


     atomic species   valence    mass     pseudopotential
        N              5.00    14.00670      N( 1.00)
        C              4.00    12.01100      C( 1.00)
        H              1.00     1.00790      H( 1.00)
        O              6.00    15.99940      O( 1.00)

      2 Sym. Ops., with inversion, found
          (note:  2 additional sym.ops. were found but ignored
           their fractional translations are incommensurate with FFT grid)

                                    s                        frac. trans.

      isym =  1     identity                                     

 cryst.   s( 1) = (     1          0          0      )
                  (     0          1          0      )
                  (     0          0          1      )

 cart.    s( 1) = (  1.0000000  0.0000000 -0.0000000 )
                  (  0.0000000  1.0000000  0.0000000 )
                  (  0.0000000  0.0000000  1.0000000 )


      isym =  2     inversion                                    

 cryst.   s( 2) = (    -1          0          0      )
                  (     0         -1          0      )
                  (     0          0         -1      )

 cart.    s( 2) = ( -1.0000000  0.0000000  0.0000000 )
                  (  0.0000000 -1.0000000  0.0000000 )
                  (  0.0000000  0.0000000 -1.0000000 )


   Cartesian axes

     site n.     atom                  positions (alat units)
         1           N   tau(   1) = (   5.6814794   6.8168037   3.3020831  )
         2           O   tau(   2) = (   7.6183148   7.8804658   3.1253842  )
         3           N   tau(   3) = (   6.6082701   7.6958759   3.8021446  )
         4           N   tau(   4) = (   4.4798552   5.7522662   5.0624773  )
         5           O   tau(   5) = (   3.2857644   4.6925432   6.6169259  )
         6           N   tau(   6) = (   3.2951569   5.4937092   5.6876975  )
         7           O   tau(   7) = (   6.3726433   8.1839941   4.8967459  )
         8           C   tau(   8) = (   4.4063896   6.7367090   3.9631449  )
         9           H   tau(   9) = (   3.7167939   6.4655687   3.3210792  )
        10           H   tau(  10) = (   4.1629820   7.6155624   4.3210587  )
        11           O   tau(  11) = (   2.3219113   6.1379682   5.2879207  )
        12           C   tau(  12) = (   5.9434862   6.1864408   2.0140807  )
        13           H   tau(  13) = (   5.1221590   5.7598162   1.7254128  )
        14           H   tau(  14) = (   6.2073440   6.8277456   1.3361734  )
        15           H   tau(  15) = (   3.7346417  -1.3567956  -2.2479828  )
        16           H   tau(  16) = (   2.6494567  -0.2888662  -1.8587434  )
        17           C   tau(  17) = (   3.4707838  -0.7154908  -1.5700755  )
        18           O   tau(  18) = (  -0.1507911  -0.6670182   1.7037645  )
        19           H   tau(  19) = (   1.6902797  -2.1446124   0.7369025  )
        20           H   tau(  20) = (   1.2440915  -0.9946187  -0.2630771  )
        21           C   tau(  21) = (   1.9336873  -1.2657590   0.3789887  )
        22           O   tau(  22) = (   3.8999409  -2.7130441   1.3125897  )
        23           N   tau(  23) = (   0.8224546  -0.0227592   2.1035413  )
        24           O   tau(  24) = (   0.8130621   0.7784068   3.0327696  )
        25           N   tau(  25) = (   2.0071529  -0.2813162   1.4783211  )
        26           N   tau(  26) = (   4.1355678  -2.2249259   0.2179884  )
        27           O   tau(  27) = (   5.1456125  -2.4095158  -0.4587720  )
        28           N   tau(  28) = (   3.2087771  -1.3458537  -0.2820731  )
        29           H   tau(  29) = (   5.2714607   4.1141544   5.8321390  )
        30           H   tau(  30) = (   6.3566457   5.1820838   5.4428996  )
        31           C   tau(  31) = (   5.5353185   4.7554592   5.1542317  )
        32           O   tau(  32) = (   9.1568934   4.8039318   1.8803917  )
        33           H   tau(  33) = (   7.3158227   3.3263376   2.8472537  )
        34           H   tau(  34) = (   7.7620108   4.4763313   3.8472333  )
        35           C   tau(  35) = (   7.0724151   4.2051910   3.2051675  )
        36           O   tau(  36) = (   5.1061614   2.7579059   2.2715665  )
        37           N   tau(  37) = (   8.1836478   5.4481908   1.4806149  )
        38           O   tau(  38) = (   8.1930402   6.2493568   0.5513866  )
        39           N   tau(  39) = (   6.9989495   5.1896338   2.1058351  )
        40           N   tau(  40) = (   4.8705346   3.2460241   3.3661678  )
        41           O   tau(  41) = (   3.8604898   3.0614342   4.0429282  )
        42           N   tau(  42) = (   5.7973253   4.1250963   3.8662293  )
        43           H   tau(  43) = (   2.7987583   1.3567956   2.2479828  )
        44           H   tau(  44) = (   3.8839433   0.2888662   1.8587434  )
        45           C   tau(  45) = (   3.0626162   0.7154908   1.5700755  )
        46           O   tau(  46) = (   6.6841911   0.6670182  -1.7037645  )
        47           H   tau(  47) = (   4.8431203   2.1446124  -0.7369025  )
        48           H   tau(  48) = (   5.2893085   0.9946187   0.2630771  )
        49           C   tau(  49) = (   4.5997127   1.2657590  -0.3789887  )
        50           O   tau(  50) = (   2.6334591   2.7130441  -1.3125897  )
        51           N   tau(  51) = (   5.7109454   0.0227592  -2.1035413  )
        52           O   tau(  52) = (   5.7203379  -0.7784068  -3.0327696  )
        53           N   tau(  53) = (   4.5262471   0.2813162  -1.4783211  )
        54           N   tau(  54) = (   2.3978322   2.2249259  -0.2179884  )
        55           O   tau(  55) = (   1.3877875   2.4095158   0.4587720  )
        56           N   tau(  56) = (   3.3246229   1.3458537   0.2820731  )

   Crystallographic axes

     site n.     atom                  positions (cryst. coord.)
         1           N   tau(   1) = (  0.9815700  0.6230000  0.4606500  )
         2           O   tau(   2) = (  1.2720300  0.7202100  0.4360000  )
         3           N   tau(   3) = (  1.1403800  0.7033400  0.5304100  )
         4           N   tau(   4) = (  0.8573400  0.5257100  0.7062300  )
         5           O   tau(   5) = (  0.7272800  0.4288600  0.9230800  )
         6           N   tau(   6) = (  0.6972100  0.5020800  0.7934500  )
         7           O   tau(   7) = (  1.1414300  0.7479500  0.6831100  )
         8           C   tau(   8) = (  0.8088200  0.6156800  0.5528700  )
         9           H   tau(   9) = (  0.6815000  0.5909000  0.4633000  )
        10           H   tau(  10) = (  0.7837000  0.6960000  0.6028000  )
        11           O   tau(  11) = (  0.5346900  0.5609600  0.7376800  )
        12           C   tau(  12) = (  0.9780000  0.5653900  0.2809700  )
        13           H   tau(  13) = (  0.8425000  0.5264000  0.2407000  )
        14           H   tau(  14) = (  0.9954000  0.6240000  0.1864000  )
        15           H   tau(  15) = (  0.4954000 -0.1240000 -0.3136000  )
        16           H   tau(  16) = (  0.3425000 -0.0264000 -0.2593000  )
        17           C   tau(  17) = (  0.4780000 -0.0653900 -0.2190300  )
        18           O   tau(  18) = (  0.0346900 -0.0609600  0.2376800  )
        19           H   tau(  19) = (  0.2837000 -0.1960000  0.1028000  )
        20           H   tau(  20) = (  0.1815000 -0.0909000 -0.0367000  )
        21           C   tau(  21) = (  0.3088200 -0.1156800  0.0528700  )
        22           O   tau(  22) = (  0.6414300 -0.2479500  0.1831100  )
        23           N   tau(  23) = (  0.1972100 -0.0020800  0.2934500  )
        24           O   tau(  24) = (  0.2272800  0.0711400  0.4230800  )
        25           N   tau(  25) = (  0.3573400 -0.0257100  0.2062300  )
        26           N   tau(  26) = (  0.6403800 -0.2033400  0.0304100  )
        27           O   tau(  27) = (  0.7720300 -0.2202100 -0.0640000  )
        28           N   tau(  28) = (  0.4815700 -0.1230000 -0.0393500  )
        29           H   tau(  29) = (  1.0046000  0.3760000  0.8136000  )
        30           H   tau(  30) = (  1.1575000  0.4736000  0.7593000  )
        31           C   tau(  31) = (  1.0220000  0.4346100  0.7190300  )
        32           O   tau(  32) = (  1.4653100  0.4390400  0.2623200  )
        33           H   tau(  33) = (  1.2163000  0.3040000  0.3972000  )
        34           H   tau(  34) = (  1.3185000  0.4091000  0.5367000  )
        35           C   tau(  35) = (  1.1911800  0.3843200  0.4471300  )
        36           O   tau(  36) = (  0.8585700  0.2520500  0.3168900  )
        37           N   tau(  37) = (  1.3027900  0.4979200  0.2065500  )
        38           O   tau(  38) = (  1.2727200  0.5711400  0.0769200  )
        39           N   tau(  39) = (  1.1426600  0.4742900  0.2937700  )
        40           N   tau(  40) = (  0.8596200  0.2966600  0.4695900  )
        41           O   tau(  41) = (  0.7279700  0.2797900  0.5640000  )
        42           N   tau(  42) = (  1.0184300  0.3770000  0.5393500  )
        43           H   tau(  43) = (  0.5046000  0.1240000  0.3136000  )
        44           H   tau(  44) = (  0.6575000  0.0264000  0.2593000  )
        45           C   tau(  45) = (  0.5220000  0.0653900  0.2190300  )
        46           O   tau(  46) = (  0.9653100  0.0609600 -0.2376800  )
        47           H   tau(  47) = (  0.7163000  0.1960000 -0.1028000  )
        48           H   tau(  48) = (  0.8185000  0.0909000  0.0367000  )
        49           C   tau(  49) = (  0.6911800  0.1156800 -0.0528700  )
        50           O   tau(  50) = (  0.3585700  0.2479500 -0.1831100  )
        51           N   tau(  51) = (  0.8027900  0.0020800 -0.2934500  )
        52           O   tau(  52) = (  0.7727200 -0.0711400 -0.4230800  )
        53           N   tau(  53) = (  0.6426600  0.0257100 -0.2062300  )
        54           N   tau(  54) = (  0.3596200  0.2033400 -0.0304100  )
        55           O   tau(  55) = (  0.2279700  0.2202100  0.0640000  )
        56           N   tau(  56) = (  0.5184300  0.1230000  0.0393500  )

     number of k points=    32
                       cart. coord. in units 2pi/alat
        k(    1) = (   0.0191325   0.0114240   0.0216763), wk =   0.0625000
        k(    2) = (   0.0191325   0.0114240   0.0565520), wk =   0.0625000
        k(    3) = (   0.0191325   0.0114240  -0.0480752), wk =   0.0625000
        k(    4) = (   0.0191325   0.0114240  -0.0131994), wk =   0.0625000
        k(    5) = (   0.0191325   0.0342719   0.0216763), wk =   0.0625000
        k(    6) = (   0.0191325   0.0342719   0.0565520), wk =   0.0625000
        k(    7) = (   0.0191325   0.0342719  -0.0480752), wk =   0.0625000
        k(    8) = (   0.0191325   0.0342719  -0.0131994), wk =   0.0625000
        k(    9) = (   0.0573974   0.0114240   0.0301531), wk =   0.0625000
        k(   10) = (   0.0573974   0.0114240   0.0650288), wk =   0.0625000
        k(   11) = (   0.0573974   0.0114240  -0.0395983), wk =   0.0625000
        k(   12) = (   0.0573974   0.0114240  -0.0047226), wk =   0.0625000
        k(   13) = (   0.0573974   0.0342719   0.0301531), wk =   0.0625000
        k(   14) = (   0.0573974   0.0342719   0.0650288), wk =   0.0625000
        k(   15) = (   0.0573974   0.0342719  -0.0395983), wk =   0.0625000
        k(   16) = (   0.0573974   0.0342719  -0.0047226), wk =   0.0625000
        k(   17) = (  -0.0191325   0.0114240  -0.0216763), wk =   0.0625000
        k(   18) = (  -0.0191325   0.0114240  -0.0565520), wk =   0.0625000
        k(   19) = (  -0.0191325   0.0114240   0.0480752), wk =   0.0625000
        k(   20) = (  -0.0191325   0.0114240   0.0131994), wk =   0.0625000
        k(   21) = (  -0.0191325   0.0342719  -0.0216763), wk =   0.0625000
        k(   22) = (  -0.0191325   0.0342719  -0.0565520), wk =   0.0625000
        k(   23) = (  -0.0191325   0.0342719   0.0480752), wk =   0.0625000
        k(   24) = (  -0.0191325   0.0342719   0.0131994), wk =   0.0625000
        k(   25) = (  -0.0573974   0.0114240  -0.0301531), wk =   0.0625000
        k(   26) = (  -0.0573974   0.0114240  -0.0650288), wk =   0.0625000
        k(   27) = (  -0.0573974   0.0114240   0.0395983), wk =   0.0625000
        k(   28) = (  -0.0573974   0.0114240   0.0047226), wk =   0.0625000
        k(   29) = (  -0.0573974   0.0342719  -0.0301531), wk =   0.0625000
        k(   30) = (  -0.0573974   0.0342719  -0.0650288), wk =   0.0625000
        k(   31) = (  -0.0573974   0.0342719   0.0395983), wk =   0.0625000
        k(   32) = (  -0.0573974   0.0342719   0.0047226), wk =   0.0625000

                       cryst. coord.
        k(    1) = (   0.1250000   0.1250000   0.1250000), wk =   0.0625000
        k(    2) = (   0.1250000   0.1250000   0.3750000), wk =   0.0625000
        k(    3) = (   0.1250000   0.1250000  -0.3750000), wk =   0.0625000
        k(    4) = (   0.1250000   0.1250000  -0.1250000), wk =   0.0625000
        k(    5) = (   0.1250000   0.3750000   0.1250000), wk =   0.0625000
        k(    6) = (   0.1250000   0.3750000   0.3750000), wk =   0.0625000
        k(    7) = (   0.1250000   0.3750000  -0.3750000), wk =   0.0625000
        k(    8) = (   0.1250000   0.3750000  -0.1250000), wk =   0.0625000
        k(    9) = (   0.3750000   0.1250000   0.1250000), wk =   0.0625000
        k(   10) = (   0.3750000   0.1250000   0.3750000), wk =   0.0625000
        k(   11) = (   0.3750000   0.1250000  -0.3750000), wk =   0.0625000
        k(   12) = (   0.3750000   0.1250000  -0.1250000), wk =   0.0625000
        k(   13) = (   0.3750000   0.3750000   0.1250000), wk =   0.0625000
        k(   14) = (   0.3750000   0.3750000   0.3750000), wk =   0.0625000
        k(   15) = (   0.3750000   0.3750000  -0.3750000), wk =   0.0625000
        k(   16) = (   0.3750000   0.3750000  -0.1250000), wk =   0.0625000
        k(   17) = (  -0.1250000   0.1250000  -0.1250000), wk =   0.0625000
        k(   18) = (  -0.1250000   0.1250000  -0.3750000), wk =   0.0625000
        k(   19) = (  -0.1250000   0.1250000   0.3750000), wk =   0.0625000
        k(   20) = (  -0.1250000   0.1250000   0.1250000), wk =   0.0625000
        k(   21) = (  -0.1250000   0.3750000  -0.1250000), wk =   0.0625000
        k(   22) = (  -0.1250000   0.3750000  -0.3750000), wk =   0.0625000
        k(   23) = (  -0.1250000   0.3750000   0.3750000), wk =   0.0625000
        k(   24) = (  -0.1250000   0.3750000   0.1250000), wk =   0.0625000
        k(   25) = (  -0.3750000   0.1250000  -0.1250000), wk =   0.0625000
        k(   26) = (  -0.3750000   0.1250000  -0.3750000), wk =   0.0625000
        k(   27) = (  -0.3750000   0.1250000   0.3750000), wk =   0.0625000
        k(   28) = (  -0.3750000   0.1250000   0.1250000), wk =   0.0625000
        k(   29) = (  -0.3750000   0.3750000  -0.1250000), wk =   0.0625000
        k(   30) = (  -0.3750000   0.3750000  -0.3750000), wk =   0.0625000
        k(   31) = (  -0.3750000   0.3750000   0.3750000), wk =   0.0625000
        k(   32) = (  -0.3750000   0.3750000   0.1250000), wk =   0.0625000

     Dense  grid:  1846531 G-vectors     FFT dimensions: ( 125, 216, 144)

     Smooth grid:   467243 G-vectors     FFT dimensions: (  80, 135,  90)

     Largest allocated arrays     est. size (Mb)     dimensions
        Kohn-Sham Wavefunctions        12.58 Mb     (    7360,  112)
        NL pseudopotentials            39.53 Mb     (    7360,  352)
        Each V/rho on FFT grid          7.42 Mb     (  486000)
        Each G-vector array             1.76 Mb     (  230818)
        G-vector shells                 1.62 Mb     (  212594)
     Largest temporary arrays     est. size (Mb)     dimensions
        Auxiliary wavefunctions        50.31 Mb     (    7360,  448)
        Each subspace H/S matrix        3.06 Mb     (     448,  448)
        Each <psi_i|beta_j> matrix      0.60 Mb     (     352,  112)
        Arrays for rho mixing          59.33 Mb     (  486000,    8)

     Initial potential from superposition of free atoms

     starting charge  223.99937, renormalised to  224.00000
     Starting wfc are  176 randomized atomic wfcs
     Checking if some PAW data can be deallocated... 
       node    0, deallocated PAW data for type:  2
       node    0, deallocated PAW data for type:  3
       node    1, deallocated PAW data for type:  1
       node    2, deallocated PAW data for type:  1
       node    3, deallocated PAW data for type:  2
       node    3, deallocated PAW data for type:  3
       node    4, deallocated PAW data for type:  1
       node    5, deallocated PAW data for type:  2
       node    5, deallocated PAW data for type:  3
       node    6, deallocated PAW data for type:  1
       node    7, deallocated PAW data for type:  2
       node    7, deallocated PAW data for type:  3

     total cpu time spent up to now is      631.1 secs

     per-process dynamical memory:   604.7 Mb

     Self-consistent Calculation

     iteration #  1     ecut=   100.00 Ry     beta=0.70
     Davidson diagonalization with overlap
     ethr =  1.00E-02,  avg # of iterations =  3.0

     total cpu time spent up to now is     2181.6 secs

     total energy              =   -1279.63433447 Ry
     Harris-Foulkes estimate   =   -1283.96715692 Ry
     estimated scf accuracy    <       6.67399773 Ry

     iteration #  2     ecut=   100.00 Ry     beta=0.70
     Davidson diagonalization with overlap
     ethr =  2.98E-03,  avg # of iterations =  4.0

     total cpu time spent up to now is     4019.9 secs

     total energy              =   -1280.28968605 Ry
     Harris-Foulkes estimate   =   -1283.82554389 Ry
     estimated scf accuracy    <       7.15638170 Ry

     iteration #  3     ecut=   100.00 Ry     beta=0.70
     Davidson diagonalization with overlap
     ethr =  2.98E-03,  avg # of iterations =  4.6

     total cpu time spent up to now is     5332.7 secs

     total energy              =   -1281.81980136 Ry
     Harris-Foulkes estimate   =   -1282.06055655 Ry
     estimated scf accuracy    <       0.44752129 Ry

     iteration #  4     ecut=   100.00 Ry     beta=0.70
     Davidson diagonalization with overlap
     ethr =  2.00E-04,  avg # of iterations =  5.0

     total cpu time spent up to now is     7061.6 secs

     total energy              =   -1281.96835518 Ry
     Harris-Foulkes estimate   =   -1282.06254306 Ry
     estimated scf accuracy    <       0.21075236 Ry

     iteration #  5     ecut=   100.00 Ry     beta=0.70
     Davidson diagonalization with overlap
     ethr =  9.41E-05,  avg # of iterations =  4.0

     total cpu time spent up to now is     8394.3 secs

     total energy              =   -1282.01076955 Ry
     Harris-Foulkes estimate   =   -1282.02000064 Ry
     estimated scf accuracy    <       0.02264737 Ry

     iteration #  6     ecut=   100.00 Ry     beta=0.70
     Davidson diagonalization with overlap
     ethr =  1.01E-05,  avg # of iterations =  7.2

     total cpu time spent up to now is     9600.9 secs

     total energy              =   -1282.01410291 Ry
     Harris-Foulkes estimate   =   -1282.01573780 Ry
     estimated scf accuracy    <       0.00371041 Ry

     iteration #  7     ecut=   100.00 Ry     beta=0.70
     Davidson diagonalization with overlap
     ethr =  1.66E-06,  avg # of iterations =  4.4

     total cpu time spent up to now is    11344.1 secs

     total energy              =   -1282.01585191 Ry
     Harris-Foulkes estimate   =   -1282.01631593 Ry
     estimated scf accuracy    <       0.00112571 Ry

     iteration #  8     ecut=   100.00 Ry     beta=0.70
     Davidson diagonalization with overlap
     ethr =  5.03E-07,  avg # of iterations =  8.3

     total cpu time spent up to now is    12558.7 secs

     total energy              =   -1282.01600846 Ry
     Harris-Foulkes estimate   =   -1282.01604114 Ry
     estimated scf accuracy    <       0.00009851 Ry

     iteration #  9     ecut=   100.00 Ry     beta=0.70
     Davidson diagonalization with overlap
     ethr =  4.40E-08,  avg # of iterations =  4.3

     total cpu time spent up to now is    14504.3 secs

     total energy              =   -1282.01609451 Ry
     Harris-Foulkes estimate   =   -1282.01613022 Ry
     estimated scf accuracy    <       0.00011087 Ry

     iteration # 10     ecut=   100.00 Ry     beta=0.70
     Davidson diagonalization with overlap
     ethr =  4.40E-08,  avg # of iterations =  1.0

     total cpu time spent up to now is    15478.2 secs

     total energy              =   -1282.01607313 Ry
     Harris-Foulkes estimate   =   -1282.01609747 Ry
     estimated scf accuracy    <       0.00005217 Ry

     iteration # 11     ecut=   100.00 Ry     beta=0.70
     Davidson diagonalization with overlap
     ethr =  2.33E-08,  avg # of iterations =  5.0

     total cpu time spent up to now is    17267.9 secs

     total energy              =   -1282.01611224 Ry
     Harris-Foulkes estimate   =   -1282.01612831 Ry
     estimated scf accuracy    <       0.00010328 Ry

     iteration # 12     ecut=   100.00 Ry     beta=0.70
     Davidson diagonalization with overlap
     ethr =  2.33E-08,  avg # of iterations =  1.0

     total cpu time spent up to now is    18258.3 secs

     total energy              =   -1282.01609205 Ry
     Harris-Foulkes estimate   =   -1282.01611274 Ry
     estimated scf accuracy    <       0.00007727 Ry

     iteration # 13     ecut=   100.00 Ry     beta=0.70
     Davidson diagonalization with overlap
     ethr =  2.33E-08,  avg # of iterations =  5.0

     total cpu time spent up to now is    19585.3 secs

     total energy              =   -1282.01610781 Ry
     Harris-Foulkes estimate   =   -1282.01610968 Ry
     estimated scf accuracy    <       0.00000673 Ry

     iteration # 14     ecut=   100.00 Ry     beta=0.70
     Davidson diagonalization with overlap
     ethr =  3.00E-09,  avg # of iterations =  5.6

     total cpu time spent up to now is    20657.8 secs

     total energy              =   -1282.01610788 Ry
     Harris-Foulkes estimate   =   -1282.01610833 Ry
     estimated scf accuracy    <       0.00000163 Ry

     iteration # 15     ecut=   100.00 Ry     beta=0.70
     Davidson diagonalization with overlap
     ethr =  7.28E-10,  avg # of iterations =  4.7

     total cpu time spent up to now is    22162.3 secs

     total energy              =   -1282.01610850 Ry
     Harris-Foulkes estimate   =   -1282.01610890 Ry
     estimated scf accuracy    <       0.00000212 Ry

     iteration # 16     ecut=   100.00 Ry     beta=0.70
     Davidson diagonalization with overlap
     ethr =  7.28E-10,  avg # of iterations =  1.0

     total cpu time spent up to now is    23111.5 secs

     total energy              =   -1282.01610805 Ry
     Harris-Foulkes estimate   =   -1282.01610851 Ry
     estimated scf accuracy    <       0.00000147 Ry

     iteration # 17     ecut=   100.00 Ry     beta=0.70
     Davidson diagonalization with overlap
     ethr =  6.55E-10,  avg # of iterations =  5.0

     total cpu time spent up to now is    24436.4 secs

     End of self-consistent calculation

          k = 0.0191 0.0114 0.0217 ( 58390 PWs)   bands (ev):

   -23.9151 -23.8932 -23.8824 -23.8726 -23.5785 -23.5684 -23.5672 -23.5656
   -19.1303 -19.1247 -19.1182 -19.1054 -18.7881 -18.7875 -18.7846 -18.7833
   -18.2222 -18.1953 -17.1913 -17.1396 -17.0464 -17.0436 -16.0260 -16.0126
   -12.0797 -12.0747 -12.0682 -11.9563 -11.8963 -11.8195 -11.7496 -11.7276
    -8.8632  -8.8227  -8.2592  -8.2226  -7.5381  -7.4950  -7.4203  -7.4200
    -6.8328  -6.7300  -6.5785  -6.5004  -6.4804  -6.3853  -6.3320  -6.2440
    -6.1085  -6.0775  -6.0489  -5.9161  -5.8701  -5.7927  -5.7238  -5.6865
    -5.6333  -5.6102  -5.5281  -5.4899  -5.1198  -5.0050  -4.9126  -4.9032
    -4.4351  -4.4198  -4.3891  -4.3436  -4.2102  -4.1083  -3.8572  -3.8496
    -3.6856  -3.5629  -3.5060  -3.4670  -3.1601  -3.1161  -3.0406  -3.0188
    -0.7728  -0.7691  -0.2995  -0.2944  -0.1945  -0.1435  -0.0788  -0.0530
     0.0038   0.0290   0.1902   0.2230   0.2377   0.2685   0.3945   0.4090
     0.4556   0.4769   0.6464   0.7049   0.7875   0.8438   0.8945   0.9114
     0.9479   1.0493   1.0807   1.1428   1.2172   1.3591   1.3798   1.4015

     occupation numbers 
     1.0000   1.0000   1.0000   1.0000   1.0000   1.0000   1.0000   1.0000
     1.0000   1.0000   1.0000   1.0000   1.0000   1.0000   1.0000   1.0000
     1.0000   1.0000   1.0000   1.0000   1.0000   1.0000   1.0000   1.0000
     1.0000   1.0000   1.0000   1.0000   1.0000   1.0000   1.0000   1.0000
     1.0000   1.0000   1.0000   1.0000   1.0000   1.0000   1.0000   1.0000
     1.0000   1.0000   1.0000   1.0000   1.0000   1.0000   1.0000   1.0000
     1.0000   1.0000   1.0000   1.0000   1.0000   1.0000   1.0000   1.0000
     1.0000   1.0000   1.0000   1.0000   1.0000   1.0000   1.0000   1.0000
     1.0000   1.0000   1.0000   1.0000   1.0000   1.0000   1.0000   1.0000
     1.0000   1.0000   1.0000   1.0000   1.0000   1.0000   1.0000   1.0000
     1.0000   1.0000   1.0000   1.0000   1.0000   1.0000   1.0000   1.0000
     1.0000   1.0000   1.0000   1.0000   1.0000   1.0000   1.0000   1.0000
     1.0000   1.0000   1.0000   1.0000   1.0000   1.0000   1.0000   1.0000
     1.0000   1.0000   1.0000   1.0000   1.0000   1.0000   1.0000   1.0000

          k = 0.0191 0.0114 0.0566 ( 58417 PWs)   bands (ev):

   -23.9073 -23.8987 -23.8786 -23.8775 -23.5788 -23.5755 -23.5652 -23.5615
   -19.1288 -19.1238 -19.1188 -19.1088 -18.7938 -18.7932 -18.7796 -18.7776
   -18.2105 -18.2099 -17.1666 -17.1640 -17.0413 -17.0384 -16.0217 -16.0197
   -12.0839 -12.0796 -12.0235 -12.0020 -11.8529 -11.8403 -11.7583 -11.7477
    -8.8434  -8.8071  -8.2422  -8.2166  -7.5488  -7.4974  -7.4018  -7.3236
    -6.8815  -6.7562  -6.5694  -6.5324  -6.5198  -6.4070  -6.3551  -6.3199
    -6.1632  -6.1390  -5.9275  -5.8768  -5.8626  -5.8001  -5.7716  -5.7357
    -5.6857  -5.6326  -5.4499  -5.4051  -5.1231  -5.0440  -4.9102  -4.8729
    -4.3904  -4.3820  -4.3374  -4.2568  -4.1329  -4.1059  -3.9706  -3.9681
    -3.6641  -3.6101  -3.4467  -3.4352  -3.1827  -3.1775  -3.0226  -2.9956
    -0.7377  -0.7064  -0.3130  -0.3019  -0.2023  -0.1663  -0.1172  -0.0854
    -0.0554  -0.0162   0.0959   0.1574   0.2592   0.3104   0.3645   0.3779
     0.5602   0.6191   0.6718   0.7095   0.7998   0.8135   0.8540   0.9083
     1.0019   1.0483   1.1188   1.1406   1.2348   1.3096   1.3825   1.4055

     occupation numbers 
     1.0000   1.0000   1.0000   1.0000   1.0000   1.0000   1.0000   1.0000
     1.0000   1.0000   1.0000   1.0000   1.0000   1.0000   1.0000   1.0000
     1.0000   1.0000   1.0000   1.0000   1.0000   1.0000   1.0000   1.0000
     1.0000   1.0000   1.0000   1.0000   1.0000   1.0000   1.0000   1.0000
     1.0000   1.0000   1.0000   1.0000   1.0000   1.0000   1.0000   1.0000
     1.0000   1.0000   1.0000   1.0000   1.0000   1.0000   1.0000   1.0000
     1.0000   1.0000   1.0000   1.0000   1.0000   1.0000   1.0000   1.0000
     1.0000   1.0000   1.0000   1.0000   1.0000   1.0000   1.0000   1.0000
     1.0000   1.0000   1.0000   1.0000   1.0000   1.0000   1.0000   1.0000
     1.0000   1.0000   1.0000   1.0000   1.0000   1.0000   1.0000   1.0000
     1.0000   1.0000   1.0000   1.0000   1.0000   1.0000   1.0000   1.0000
     1.0000   1.0000   1.0000   1.0000   1.0000   1.0000   1.0000   1.0000
     1.0000   1.0000   1.0000   1.0000   1.0000   1.0000   1.0000   1.0000
     1.0000   1.0000   1.0000   1.0000   1.0000   1.0000   1.0000   1.0000

          k = 0.0191 0.0114-0.0481 ( 58395 PWs)   bands (ev):

   -23.9085 -23.8978 -23.8823 -23.8734 -23.5803 -23.5773 -23.5623 -23.5610
   -19.1262 -19.1249 -19.1150 -19.1143 -18.7952 -18.7949 -18.7779 -18.7761
   -18.2225 -18.1965 -17.1890 -17.1413 -17.0439 -17.0420 -16.0254 -16.0092
   -12.0995 -12.0781 -12.0521 -11.9687 -11.8801 -11.8079 -11.7602 -11.7487
    -8.8528  -8.7675  -8.2299  -8.2251  -7.5439  -7.5275  -7.4137  -7.2971
    -6.8927  -6.7797  -6.5663  -6.5345  -6.4800  -6.4575  -6.3662  -6.3322
    -6.1891  -6.1589  -5.9279  -5.8994  -5.8024  -5.7663  -5.7541  -5.7385
    -5.6886  -5.6189  -5.4558  -5.3992  -5.1175  -5.0423  -4.8970  -4.8670
    -4.4240  -4.3522  -4.3173  -4.2537  -4.1709  -4.1227  -3.9790  -3.9242
    -3.6668  -3.6152  -3.4991  -3.4164  -3.1902  -3.1639  -3.0165  -3.0038
    -0.6716  -0.6128  -0.3019  -0.2926  -0.2597  -0.2259  -0.1529  -0.1319
    -0.0712  -0.0605   0.0621   0.1491   0.2750   0.3149   0.3214   0.3698
     0.6000   0.6849   0.7068   0.7247   0.7662   0.8644   0.8658   0.8909
     1.0015   1.0555   1.1249   1.1792   1.2440   1.2740   1.3691   1.3918

     occupation numbers 
     1.0000   1.0000   1.0000   1.0000   1.0000   1.0000   1.0000   1.0000
     1.0000   1.0000   1.0000   1.0000   1.0000   1.0000   1.0000   1.0000
     1.0000   1.0000   1.0000   1.0000   1.0000   1.0000   1.0000   1.0000
     1.0000   1.0000   1.0000   1.0000   1.0000   1.0000   1.0000   1.0000
     1.0000   1.0000   1.0000   1.0000   1.0000   1.0000   1.0000   1.0000
     1.0000   1.0000   1.0000   1.0000   1.0000   1.0000   1.0000   1.0000
     1.0000   1.0000   1.0000   1.0000   1.0000   1.0000   1.0000   1.0000
     1.0000   1.0000   1.0000   1.0000   1.0000   1.0000   1.0000   1.0000
     1.0000   1.0000   1.0000   1.0000   1.0000   1.0000   1.0000   1.0000
     1.0000   1.0000   1.0000   1.0000   1.0000   1.0000   1.0000   1.0000
     1.0000   1.0000   1.0000   1.0000   1.0000   1.0000   1.0000   1.0000
     1.0000   1.0000   1.0000   1.0000   1.0000   1.0000   1.0000   1.0000
     1.0000   1.0000   1.0000   1.0000   1.0000   1.0000   1.0000   1.0000
     1.0000   1.0000   1.0000   1.0000   1.0000   1.0000   1.0000   1.0000

          k = 0.0191 0.0114-0.0132 ( 58408 PWs)   bands (ev):

   -23.9157 -23.8933 -23.8834 -23.8708 -23.5805 -23.5720 -23.5641 -23.5631
   -19.1291 -19.1235 -19.1183 -19.1079 -18.7914 -18.7913 -18.7804 -18.7802
   -18.2268 -18.1893 -17.2005 -17.1300 -17.0486 -17.0476 -16.0264 -16.0055
   -12.1047 -12.0746 -12.0650 -11.9517 -11.8970 -11.8079 -11.7488 -11.7292
    -8.8744  -8.7815  -8.2521  -8.2261  -7.5433  -7.5196  -7.4555  -7.3677
    -6.8011  -6.7886  -6.5755  -6.4870  -6.4816  -6.4305  -6.3359  -6.2635
    -6.1584  -6.1148  -5.9714  -5.9212  -5.8348  -5.7904  -5.7048  -5.6792
    -5.6437  -5.6026  -5.5054  -5.4932  -5.0857  -5.0400  -4.9091  -4.8749
    -4.4358  -4.4132  -4.3839  -4.3621  -4.2185  -4.1166  -3.8674  -3.8060
    -3.7154  -3.5721  -3.5194  -3.4649  -3.1664  -3.1110  -3.0325  -3.0267
    -0.7246  -0.7026  -0.2886  -0.2834  -0.1954  -0.1626  -0.0880  -0.0711
    -0.0570  -0.0177   0.0842   0.1511   0.2074   0.2861   0.3385   0.4094
     0.5731   0.6147   0.6429   0.7268   0.7793   0.8456   0.9058   0.9232
     0.9542   1.0282   1.1043   1.1688   1.2130   1.3399   1.3669   1.3898

     occupation numbers 
     1.0000   1.0000   1.0000   1.0000   1.0000   1.0000   1.0000   1.0000
     1.0000   1.0000   1.0000   1.0000   1.0000   1.0000   1.0000   1.0000
     1.0000   1.0000   1.0000   1.0000   1.0000   1.0000   1.0000   1.0000
     1.0000   1.0000   1.0000   1.0000   1.0000   1.0000   1.0000   1.0000
     1.0000   1.0000   1.0000   1.0000   1.0000   1.0000   1.0000   1.0000
     1.0000   1.0000   1.0000   1.0000   1.0000   1.0000   1.0000   1.0000
     1.0000   1.0000   1.0000   1.0000   1.0000   1.0000   1.0000   1.0000
     1.0000   1.0000   1.0000   1.0000   1.0000   1.0000   1.0000   1.0000
     1.0000   1.0000   1.0000   1.0000   1.0000   1.0000   1.0000   1.0000
     1.0000   1.0000   1.0000   1.0000   1.0000   1.0000   1.0000   1.0000
     1.0000   1.0000   1.0000   1.0000   1.0000   1.0000   1.0000   1.0000
     1.0000   1.0000   1.0000   1.0000   1.0000   1.0000   1.0000   1.0000
     1.0000   1.0000   1.0000   1.0000   1.0000   1.0000   1.0000   1.0000
     1.0000   1.0000   1.0000   1.0000   1.0000   1.0000   1.0000   1.0000

          k = 0.0191 0.0343 0.0217 ( 58387 PWs)   bands (ev):

   -23.9100 -23.9016 -23.8776 -23.8743 -23.5750 -23.5706 -23.5671 -23.5667
   -19.1300 -19.1283 -19.1125 -19.1078 -18.7880 -18.7877 -18.7841 -18.7836
   -18.2146 -18.2035 -17.1761 -17.1547 -17.0455 -17.0443 -16.0220 -16.0165
   -12.0763 -12.0753 -12.0476 -12.0059 -11.8578 -11.8315 -11.7431 -11.7340
    -8.8524  -8.8356  -8.2491  -8.2339  -7.5299  -7.5117  -7.4119  -7.4118
    -6.8108  -6.7647  -6.5260  -6.4944  -6.4894  -6.4352  -6.3068  -6.2775
    -6.1213  -6.1006  -5.9690  -5.9295  -5.8718  -5.8313  -5.7363  -5.7208
    -5.5964  -5.5813  -5.5079  -5.4875  -5.0745  -5.0069  -4.9598  -4.9350
    -4.4424  -4.4336  -4.3525  -4.3326  -4.1927  -4.1421  -3.8518  -3.8455
    -3.6513  -3.5975  -3.4953  -3.4760  -3.1512  -3.1337  -3.0302  -3.0222
    -0.7683  -0.7662  -0.2913  -0.2825  -0.2077  -0.1735  -0.0976  -0.0910
     0.0366   0.0447   0.2163   0.2259   0.2594   0.2668   0.4116   0.4205
     0.4309   0.4631   0.6579   0.6875   0.7745   0.7974   0.9128   0.9338
     0.9721   1.0191   1.1078   1.1311   1.2570   1.3142   1.3898   1.3965

     occupation numbers 
     1.0000   1.0000   1.0000   1.0000   1.0000   1.0000   1.0000   1.0000
     1.0000   1.0000   1.0000   1.0000   1.0000   1.0000   1.0000   1.0000
     1.0000   1.0000   1.0000   1.0000   1.0000   1.0000   1.0000   1.0000
     1.0000   1.0000   1.0000   1.0000   1.0000   1.0000   1.0000   1.0000
     1.0000   1.0000   1.0000   1.0000   1.0000   1.0000   1.0000   1.0000
     1.0000   1.0000   1.0000   1.0000   1.0000   1.0000   1.0000   1.0000
     1.0000   1.0000   1.0000   1.0000   1.0000   1.0000   1.0000   1.0000
     1.0000   1.0000   1.0000   1.0000   1.0000   1.0000   1.0000   1.0000
     1.0000   1.0000   1.0000   1.0000   1.0000   1.0000   1.0000   1.0000
     1.0000   1.0000   1.0000   1.0000   1.0000   1.0000   1.0000   1.0000
     1.0000   1.0000   1.0000   1.0000   1.0000   1.0000   1.0000   1.0000
     1.0000   1.0000   1.0000   1.0000   1.0000   1.0000   1.0000   1.0000
     1.0000   1.0000   1.0000   1.0000   1.0000   1.0000   1.0000   1.0000
     1.0000   1.0000   1.0000   1.0000   1.0000   1.0000   1.0000   1.0000

          k = 0.0191 0.0343 0.0566 ( 58417 PWs)   bands (ev):

   -23.9045 -23.9009 -23.8788 -23.8782 -23.5773 -23.5759 -23.5646 -23.5630
   -19.1286 -19.1271 -19.1140 -19.1104 -18.7936 -18.7934 -18.7790 -18.7782
   -18.2104 -18.2101 -17.1662 -17.1652 -17.0401 -17.0389 -16.0211 -16.0203
   -12.0819 -12.0798 -12.0204 -12.0111 -11.8460 -11.8403 -11.7566 -11.7521
    -8.8330  -8.8179  -8.2352  -8.2245  -7.5326  -7.5118  -7.3781  -7.3468
    -6.8618  -6.8156  -6.5536  -6.5418  -6.4690  -6.4208  -6.3654  -6.3440
    -6.1225  -6.0915  -5.9485  -5.8976  -5.8429  -5.8088  -5.7738  -5.7574
    -5.6750  -5.6395  -5.4569  -5.4348  -5.0588  -5.0057  -4.9611  -4.9217
    -4.3664  -4.3490  -4.3281  -4.2881  -4.1337  -4.1218  -3.9693  -3.9683
    -3.6423  -3.6194  -3.4455  -3.4401  -3.1776  -3.1735  -3.0218  -3.0090
    -0.7273  -0.7145  -0.3049  -0.2960  -0.2140  -0.1864  -0.1271  -0.1092
    -0.0300  -0.0132   0.1454   0.1658   0.2643   0.2894   0.3557   0.3688
     0.5772   0.6028   0.6832   0.7008   0.8048   0.8205   0.8527   0.8902
     1.0066   1.0307   1.1297   1.1382   1.2609   1.2910   1.3881   1.3975

     occupation numbers 
     1.0000   1.0000   1.0000   1.0000   1.0000   1.0000   1.0000   1.0000
     1.0000   1.0000   1.0000   1.0000   1.0000   1.0000   1.0000   1.0000
     1.0000   1.0000   1.0000   1.0000   1.0000   1.0000   1.0000   1.0000
     1.0000   1.0000   1.0000   1.0000   1.0000   1.0000   1.0000   1.0000
     1.0000   1.0000   1.0000   1.0000   1.0000   1.0000   1.0000   1.0000
     1.0000   1.0000   1.0000   1.0000   1.0000   1.0000   1.0000   1.0000
     1.0000   1.0000   1.0000   1.0000   1.0000   1.0000   1.0000   1.0000
     1.0000   1.0000   1.0000   1.0000   1.0000   1.0000   1.0000   1.0000
     1.0000   1.0000   1.0000   1.0000   1.0000   1.0000   1.0000   1.0000
     1.0000   1.0000   1.0000   1.0000   1.0000   1.0000   1.0000   1.0000
     1.0000   1.0000   1.0000   1.0000   1.0000   1.0000   1.0000   1.0000
     1.0000   1.0000   1.0000   1.0000   1.0000   1.0000   1.0000   1.0000
     1.0000   1.0000   1.0000   1.0000   1.0000   1.0000   1.0000   1.0000
     1.0000   1.0000   1.0000   1.0000   1.0000   1.0000   1.0000   1.0000

          k = 0.0191 0.0343-0.0481 ( 58419 PWs)   bands (ev):

   -23.9056 -23.9012 -23.8795 -23.8759 -23.5790 -23.5777 -23.5623 -23.5617
   -19.1267 -19.1263 -19.1138 -19.1135 -18.7951 -18.7950 -18.7774 -18.7767
   -18.2151 -18.2044 -17.1751 -17.1553 -17.0432 -17.0424 -16.0206 -16.0139
   -12.0932 -12.0847 -12.0347 -12.0032 -11.8487 -11.8216 -11.7571 -11.7521
    -8.8289  -8.7936  -8.2299  -8.2276  -7.5353  -7.5297  -7.3827  -7.3333
    -6.8581  -6.8105  -6.5714  -6.5451  -6.4671  -6.4534  -6.3975  -6.3770
    -6.1015  -6.0855  -5.9640  -5.9368  -5.7959  -5.7783  -5.7561  -5.7318
    -5.6781  -5.6401  -5.4469  -5.4174  -5.0901  -5.0374  -4.9224  -4.8883
    -4.4093  -4.3786  -4.2767  -4.2516  -4.1664  -4.1455  -3.9630  -3.9405
    -3.6440  -3.6224  -3.4756  -3.4412  -3.1771  -3.1649  -3.0216  -3.0170
    -0.6551  -0.6311  -0.3021  -0.2964  -0.2296  -0.2118  -0.1775  -0.1546
    -0.0839  -0.0739   0.1148   0.1488   0.2779   0.2954   0.3332   0.3599
     0.6234   0.6577   0.7261   0.7408   0.7674   0.8149   0.8791   0.8906
     1.0144   1.0311   1.1506   1.1702   1.2506   1.2638   1.3751   1.3849

     occupation numbers 
     1.0000   1.0000   1.0000   1.0000   1.0000   1.0000   1.0000   1.0000
     1.0000   1.0000   1.0000   1.0000   1.0000   1.0000   1.0000   1.0000
     1.0000   1.0000   1.0000   1.0000   1.0000   1.0000   1.0000   1.0000
     1.0000   1.0000   1.0000   1.0000   1.0000   1.0000   1.0000   1.0000
     1.0000   1.0000   1.0000   1.0000   1.0000   1.0000   1.0000   1.0000
     1.0000   1.0000   1.0000   1.0000   1.0000   1.0000   1.0000   1.0000
     1.0000   1.0000   1.0000   1.0000   1.0000   1.0000   1.0000   1.0000
     1.0000   1.0000   1.0000   1.0000   1.0000   1.0000   1.0000   1.0000
     1.0000   1.0000   1.0000   1.0000   1.0000   1.0000   1.0000   1.0000
     1.0000   1.0000   1.0000   1.0000   1.0000   1.0000   1.0000   1.0000
     1.0000   1.0000   1.0000   1.0000   1.0000   1.0000   1.0000   1.0000
     1.0000   1.0000   1.0000   1.0000   1.0000   1.0000   1.0000   1.0000
     1.0000   1.0000   1.0000   1.0000   1.0000   1.0000   1.0000   1.0000
     1.0000   1.0000   1.0000   1.0000   1.0000   1.0000   1.0000   1.0000

          k = 0.0191 0.0343-0.0132 ( 58403 PWs)   bands (ev):

   -23.9106 -23.9022 -23.8775 -23.8731 -23.5776 -23.5740 -23.5641 -23.5637
   -19.1288 -19.1272 -19.1132 -19.1096 -18.7914 -18.7914 -18.7803 -18.7802
   -18.2163 -18.2008 -17.1795 -17.1503 -17.0485 -17.0480 -16.0201 -16.0114
   -12.0927 -12.0820 -12.0462 -12.0060 -11.8524 -11.8225 -11.7425 -11.7344
    -8.8490  -8.8106  -8.2460  -8.2353  -7.5377  -7.5265  -7.4256  -7.3907
    -6.7770  -6.7621  -6.5667  -6.5184  -6.4808  -6.4530  -6.3576  -6.3232
    -6.0981  -6.0759  -5.9775  -5.9500  -5.8284  -5.8052  -5.7128  -5.7119
    -5.5961  -5.5843  -5.4950  -5.4841  -5.0824  -5.0513  -4.9194  -4.8972
    -4.4473  -4.4405  -4.3547  -4.3322  -4.2034  -4.1517  -3.8471  -3.8218
    -3.6638  -3.6032  -3.5063  -3.4828  -3.1539  -3.1315  -3.0289  -3.0271
    -0.7147  -0.7056  -0.2824  -0.2730  -0.2076  -0.1750  -0.1007  -0.0915
    -0.0564  -0.0350   0.1185   0.1486   0.2319   0.2675   0.3762   0.4067
     0.5857   0.6138   0.6504   0.7045   0.7594   0.7984   0.9261   0.9297
     0.9826   1.0116   1.1343   1.1597   1.2420   1.2962   1.3766   1.3832

     occupation numbers 
     1.0000   1.0000   1.0000   1.0000   1.0000   1.0000   1.0000   1.0000
     1.0000   1.0000   1.0000   1.0000   1.0000   1.0000   1.0000   1.0000
     1.0000   1.0000   1.0000   1.0000   1.0000   1.0000   1.0000   1.0000
     1.0000   1.0000   1.0000   1.0000   1.0000   1.0000   1.0000   1.0000
     1.0000   1.0000   1.0000   1.0000   1.0000   1.0000   1.0000   1.0000
     1.0000   1.0000   1.0000   1.0000   1.0000   1.0000   1.0000   1.0000
     1.0000   1.0000   1.0000   1.0000   1.0000   1.0000   1.0000   1.0000
     1.0000   1.0000   1.0000   1.0000   1.0000   1.0000   1.0000   1.0000
     1.0000   1.0000   1.0000   1.0000   1.0000   1.0000   1.0000   1.0000
     1.0000   1.0000   1.0000   1.0000   1.0000   1.0000   1.0000   1.0000
     1.0000   1.0000   1.0000   1.0000   1.0000   1.0000   1.0000   1.0000
     1.0000   1.0000   1.0000   1.0000   1.0000   1.0000   1.0000   1.0000
     1.0000   1.0000   1.0000   1.0000   1.0000   1.0000   1.0000   1.0000
     1.0000   1.0000   1.0000   1.0000   1.0000   1.0000   1.0000   1.0000

          k = 0.0574 0.0114 0.0302 ( 58386 PWs)   bands (ev):

   -23.9049 -23.8959 -23.8792 -23.8785 -23.5764 -23.5729 -23.5689 -23.5653
   -19.1283 -19.1240 -19.1195 -19.1096 -18.7920 -18.7909 -18.7820 -18.7803
   -18.2155 -18.2151 -17.1643 -17.1621 -17.0466 -17.0443 -16.0221 -16.0198
   -12.0719 -12.0699 -11.9935 -11.9738 -11.8253 -11.8069 -11.7600 -11.7426
    -8.8632  -8.8297  -8.2595  -8.2361  -7.5362  -7.5064  -7.4831  -7.4319
    -6.9559  -6.8847  -6.6487  -6.5238  -6.4447  -6.4034  -6.2382  -6.2025
    -6.1771  -6.1291  -5.9877  -5.9231  -5.8646  -5.8180  -5.7310  -5.7089
    -5.6217  -5.5808  -5.5268  -5.5099  -5.1328  -5.0191  -4.8992  -4.8936
    -4.4160  -4.3958  -4.3512  -4.2979  -4.0263  -3.9699  -3.8003  -3.7648
    -3.7221  -3.6135  -3.5730  -3.5641  -3.1538  -3.1475  -3.0419  -3.0091
    -0.7271  -0.7166  -0.2787  -0.2755  -0.1881  -0.1675  -0.0995  -0.0707
    -0.0412  -0.0153   0.1335   0.1522   0.2244   0.2390   0.3782   0.3986
     0.5975   0.6047   0.6723   0.7228   0.8008   0.8076   0.8954   0.9103
     0.9618   1.0113   1.0358   1.0807   1.2965   1.3286   1.3587   1.3973

     occupation numbers 
     1.0000   1.0000   1.0000   1.0000   1.0000   1.0000   1.0000   1.0000
     1.0000   1.0000   1.0000   1.0000   1.0000   1.0000   1.0000   1.0000
     1.0000   1.0000   1.0000   1.0000   1.0000   1.0000   1.0000   1.0000
     1.0000   1.0000   1.0000   1.0000   1.0000   1.0000   1.0000   1.0000
     1.0000   1.0000   1.0000   1.0000   1.0000   1.0000   1.0000   1.0000
     1.0000   1.0000   1.0000   1.0000   1.0000   1.0000   1.0000   1.0000
     1.0000   1.0000   1.0000   1.0000   1.0000   1.0000   1.0000   1.0000
     1.0000   1.0000   1.0000   1.0000   1.0000   1.0000   1.0000   1.0000
     1.0000   1.0000   1.0000   1.0000   1.0000   1.0000   1.0000   1.0000
     1.0000   1.0000   1.0000   1.0000   1.0000   1.0000   1.0000   1.0000
     1.0000   1.0000   1.0000   1.0000   1.0000   1.0000   1.0000   1.0000
     1.0000   1.0000   1.0000   1.0000   1.0000   1.0000   1.0000   1.0000
     1.0000   1.0000   1.0000   1.0000   1.0000   1.0000   1.0000   1.0000
     1.0000   1.0000   1.0000   1.0000   1.0000   1.0000   1.0000   1.0000

          k = 0.0574 0.0114 0.0650 ( 58414 PWs)   bands (ev):

   -23.9008 -23.8989 -23.8829 -23.8749 -23.5747 -23.5746 -23.5719 -23.5633
   -19.1290 -19.1257 -19.1199 -19.1082 -18.8020 -18.7999 -18.7742 -18.7702
   -18.2311 -18.2060 -17.1850 -17.1395 -17.0362 -17.0322 -16.0384 -16.0188
   -12.0861 -12.0775 -12.0223 -11.9457 -11.8231 -11.7804 -11.7646 -11.7468
    -8.9089  -8.7849  -8.2563  -8.2164  -7.5345  -7.5146  -7.4393  -7.3152
    -7.0579  -6.8316  -6.6549  -6.4790  -6.4663  -6.4141  -6.3952  -6.2925
    -6.2343  -6.1476  -5.9697  -5.9321  -5.8858  -5.8219  -5.7584  -5.7024
    -5.6008  -5.5503  -5.4849  -5.4066  -5.1450  -4.9818  -4.9678  -4.9027
    -4.3643  -4.3505  -4.2876  -4.2465  -3.9820  -3.9480  -3.8954  -3.8620
    -3.7450  -3.6438  -3.5780  -3.4819  -3.1978  -3.1696  -3.0387  -2.9759
    -0.8017  -0.7647  -0.2877  -0.2524  -0.1884  -0.1574  -0.0926  -0.0541
    -0.0041   0.0311   0.1941   0.2246   0.2499   0.2663   0.3430   0.4377
     0.5128   0.5281   0.5749   0.6855   0.8007   0.8287   0.8804   0.9004
     0.9955   1.0349   1.0445   1.0743   1.3095   1.3490   1.3639   1.4092

     occupation numbers 
     1.0000   1.0000   1.0000   1.0000   1.0000   1.0000   1.0000   1.0000
     1.0000   1.0000   1.0000   1.0000   1.0000   1.0000   1.0000   1.0000
     1.0000   1.0000   1.0000   1.0000   1.0000   1.0000   1.0000   1.0000
     1.0000   1.0000   1.0000   1.0000   1.0000   1.0000   1.0000   1.0000
     1.0000   1.0000   1.0000   1.0000   1.0000   1.0000   1.0000   1.0000
     1.0000   1.0000   1.0000   1.0000   1.0000   1.0000   1.0000   1.0000
     1.0000   1.0000   1.0000   1.0000   1.0000   1.0000   1.0000   1.0000
     1.0000   1.0000   1.0000   1.0000   1.0000   1.0000   1.0000   1.0000
     1.0000   1.0000   1.0000   1.0000   1.0000   1.0000   1.0000   1.0000
     1.0000   1.0000   1.0000   1.0000   1.0000   1.0000   1.0000   1.0000
     1.0000   1.0000   1.0000   1.0000   1.0000   1.0000   1.0000   1.0000
     1.0000   1.0000   1.0000   1.0000   1.0000   1.0000   1.0000   1.0000
     1.0000   1.0000   1.0000   1.0000   1.0000   1.0000   1.0000   1.0000
     1.0000   1.0000   1.0000   1.0000   1.0000   1.0000   1.0000   1.0000

          k = 0.0574 0.0114-0.0396 ( 58381 PWs)   bands (ev):

   -23.9032 -23.8969 -23.8845 -23.8727 -23.5780 -23.5770 -23.5675 -23.5618
   -19.1272 -19.1247 -19.1202 -19.1110 -18.8028 -18.8008 -18.7732 -18.7694
   -18.2359 -18.1998 -17.1952 -17.1287 -17.0391 -17.0358 -16.0379 -16.0125
   -12.0924 -12.0792 -12.0444 -11.9238 -11.8392 -11.7668 -11.7596 -11.7485
    -8.9039  -8.7600  -8.2504  -8.2176  -7.5337  -7.5194  -7.4625  -7.3021
    -7.0766  -6.8326  -6.6424  -6.5036  -6.4673  -6.4492  -6.3853  -6.3200
    -6.2379  -6.1637  -5.9542  -5.9014  -5.8433  -5.8303  -5.7590  -5.7171
    -5.5783  -5.5465  -5.4923  -5.4052  -5.1352  -5.0040  -4.9408  -4.8909
    -4.3692  -4.3254  -4.2879  -4.2618  -4.0093  -3.9885  -3.8480  -3.8330
    -3.6960  -3.6758  -3.6337  -3.4872  -3.2026  -3.1646  -3.0343  -2.9816
    -0.7591  -0.7001  -0.2801  -0.2284  -0.2005  -0.1783  -0.0995  -0.0788
    -0.0637  -0.0244   0.1272   0.2187   0.2428   0.2945   0.3053   0.3290
     0.5554   0.6279   0.6607   0.6829   0.7978   0.8284   0.8976   0.9132
     0.9886   1.0184   1.0619   1.1256   1.3249   1.3410   1.3468   1.3737

     occupation numbers 
     1.0000   1.0000   1.0000   1.0000   1.0000   1.0000   1.0000   1.0000
     1.0000   1.0000   1.0000   1.0000   1.0000   1.0000   1.0000   1.0000
     1.0000   1.0000   1.0000   1.0000   1.0000   1.0000   1.0000   1.0000
     1.0000   1.0000   1.0000   1.0000   1.0000   1.0000   1.0000   1.0000
     1.0000   1.0000   1.0000   1.0000   1.0000   1.0000   1.0000   1.0000
     1.0000   1.0000   1.0000   1.0000   1.0000   1.0000   1.0000   1.0000
     1.0000   1.0000   1.0000   1.0000   1.0000   1.0000   1.0000   1.0000
     1.0000   1.0000   1.0000   1.0000   1.0000   1.0000   1.0000   1.0000
     1.0000   1.0000   1.0000   1.0000   1.0000   1.0000   1.0000   1.0000
     1.0000   1.0000   1.0000   1.0000   1.0000   1.0000   1.0000   1.0000
     1.0000   1.0000   1.0000   1.0000   1.0000   1.0000   1.0000   1.0000
     1.0000   1.0000   1.0000   1.0000   1.0000   1.0000   1.0000   1.0000
     1.0000   1.0000   1.0000   1.0000   1.0000   1.0000   1.0000   1.0000
     1.0000   1.0000   1.0000   1.0000   1.0000   1.0000   1.0000   1.0000

          k = 0.0574 0.0114-0.0047 ( 58354 PWs)   bands (ev):

   -23.9061 -23.8952 -23.8830 -23.8742 -23.5789 -23.5754 -23.5654 -23.5637
   -19.1259 -19.1246 -19.1159 -19.1153 -18.7940 -18.7933 -18.7797 -18.7782
   -18.2277 -18.2015 -17.1873 -17.1385 -17.0488 -17.0486 -16.0258 -16.0094
   -12.0796 -12.0700 -12.0329 -11.9343 -11.8490 -11.7837 -11.7535 -11.7481
    -8.8730  -8.7894  -8.2473  -8.2442  -7.5296  -7.5226  -7.5157  -7.4069
    -6.9727  -6.8805  -6.6055  -6.5804  -6.4380  -6.4345  -6.2757  -6.2449
    -6.1606  -6.1517  -5.9261  -5.8874  -5.8339  -5.8080  -5.7431  -5.7349
    -5.6000  -5.5858  -5.5232  -5.5100  -5.0912  -5.0704  -4.8797  -4.8726
    -4.4173  -4.3924  -4.3419  -4.3102  -4.0328  -3.9958  -3.7637  -3.7527
    -3.6888  -3.6616  -3.6129  -3.5598  -3.1695  -3.1337  -3.0353  -3.0160
    -0.6730  -0.6263  -0.2815  -0.2710  -0.1958  -0.1906  -0.1607  -0.1544
    -0.0543  -0.0266   0.0901   0.1586   0.2041   0.2467   0.3487   0.3868
     0.5750   0.6489   0.7379   0.7625   0.7933   0.8303   0.9116   0.9337
     0.9650   0.9778   1.0446   1.1282   1.3136   1.3196   1.3393   1.3591

     occupation numbers 
     1.0000   1.0000   1.0000   1.0000   1.0000   1.0000   1.0000   1.0000
     1.0000   1.0000   1.0000   1.0000   1.0000   1.0000   1.0000   1.0000
     1.0000   1.0000   1.0000   1.0000   1.0000   1.0000   1.0000   1.0000
     1.0000   1.0000   1.0000   1.0000   1.0000   1.0000   1.0000   1.0000
     1.0000   1.0000   1.0000   1.0000   1.0000   1.0000   1.0000   1.0000
     1.0000   1.0000   1.0000   1.0000   1.0000   1.0000   1.0000   1.0000
     1.0000   1.0000   1.0000   1.0000   1.0000   1.0000   1.0000   1.0000
     1.0000   1.0000   1.0000   1.0000   1.0000   1.0000   1.0000   1.0000
     1.0000   1.0000   1.0000   1.0000   1.0000   1.0000   1.0000   1.0000
     1.0000   1.0000   1.0000   1.0000   1.0000   1.0000   1.0000   1.0000
     1.0000   1.0000   1.0000   1.0000   1.0000   1.0000   1.0000   1.0000
     1.0000   1.0000   1.0000   1.0000   1.0000   1.0000   1.0000   1.0000
     1.0000   1.0000   1.0000   1.0000   1.0000   1.0000   1.0000   1.0000
     1.0000   1.0000   1.0000   1.0000   1.0000   1.0000   1.0000   1.0000

          k = 0.0574 0.0343 0.0302 ( 58384 PWs)   bands (ev):

   -23.9020 -23.8982 -23.8794 -23.8790 -23.5745 -23.5731 -23.5687 -23.5671
   -19.1282 -19.1271 -19.1148 -19.1113 -18.7917 -18.7912 -18.7815 -18.7808
   -18.2154 -18.2152 -17.1639 -17.1630 -17.0457 -17.0448 -16.0215 -16.0205
   -12.0714 -12.0706 -11.9862 -11.9779 -11.8218 -11.8141 -11.7547 -11.7475
    -8.8534  -8.8395  -8.2494  -8.2395  -7.5260  -7.5142  -7.4730  -7.4509
    -6.9585  -6.9343  -6.5731  -6.5294  -6.4249  -6.3992  -6.2674  -6.2331
    -6.1657  -6.1378  -5.9594  -5.9331  -5.8549  -5.8318  -5.7330  -5.7104
    -5.6034  -5.5928  -5.5203  -5.5109  -5.1024  -5.0554  -4.9036  -4.9001
    -4.4093  -4.3970  -4.3389  -4.3181  -4.0019  -3.9768  -3.7882  -3.7699
    -3.6972  -3.6501  -3.5713  -3.5640  -3.1515  -3.1482  -3.0364  -3.0221
    -0.7202  -0.7158  -0.2704  -0.2645  -0.2216  -0.2031  -0.0791  -0.0564
    -0.0366  -0.0224   0.1437   0.1627   0.2321   0.2458   0.3763   0.3865
     0.6224   0.6288   0.6511   0.6847   0.7986   0.8041   0.9012   0.9224
     0.9712   1.0044   1.0400   1.0605   1.3066   1.3194   1.3713   1.3867

     occupation numbers 
     1.0000   1.0000   1.0000   1.0000   1.0000   1.0000   1.0000   1.0000
     1.0000   1.0000   1.0000   1.0000   1.0000   1.0000   1.0000   1.0000
     1.0000   1.0000   1.0000   1.0000   1.0000   1.0000   1.0000   1.0000
     1.0000   1.0000   1.0000   1.0000   1.0000   1.0000   1.0000   1.0000
     1.0000   1.0000   1.0000   1.0000   1.0000   1.0000   1.0000   1.0000
     1.0000   1.0000   1.0000   1.0000   1.0000   1.0000   1.0000   1.0000
     1.0000   1.0000   1.0000   1.0000   1.0000   1.0000   1.0000   1.0000
     1.0000   1.0000   1.0000   1.0000   1.0000   1.0000   1.0000   1.0000
     1.0000   1.0000   1.0000   1.0000   1.0000   1.0000   1.0000   1.0000
     1.0000   1.0000   1.0000   1.0000   1.0000   1.0000   1.0000   1.0000
     1.0000   1.0000   1.0000   1.0000   1.0000   1.0000   1.0000   1.0000
     1.0000   1.0000   1.0000   1.0000   1.0000   1.0000   1.0000   1.0000
     1.0000   1.0000   1.0000   1.0000   1.0000   1.0000   1.0000   1.0000
     1.0000   1.0000   1.0000   1.0000   1.0000   1.0000   1.0000   1.0000

          k = 0.0574 0.0343 0.0650 ( 58426 PWs)   bands (ev):

   -23.8999 -23.8991 -23.8810 -23.8776 -23.5745 -23.5744 -23.5695 -23.5659
   -19.1293 -19.1284 -19.1146 -19.1104 -18.8014 -18.8005 -18.7730 -18.7714
   -18.2240 -18.2136 -17.1716 -17.1528 -17.0350 -17.0333 -16.0325 -16.0244
   -12.0867 -12.0835 -11.9973 -11.9668 -11.8093 -11.7919 -11.7596 -11.7522
    -8.8739  -8.8226  -8.2430  -8.2264  -7.5079  -7.4990  -7.4349  -7.3774
    -7.0155  -6.9358  -6.5591  -6.5033  -6.4533  -6.4359  -6.3507  -6.2948
    -6.2178  -6.1654  -5.9491  -5.9283  -5.8741  -5.8474  -5.7736  -5.7373
    -5.5931  -5.5731  -5.4520  -5.4205  -5.1066  -5.0372  -4.9479  -4.9192
    -4.3494  -4.3290  -4.2850  -4.2507  -3.9686  -3.9553  -3.8905  -3.8762
    -3.7221  -3.6865  -3.5426  -3.5060  -3.1902  -3.1787  -3.0209  -2.9948
    -0.7874  -0.7723  -0.2758  -0.2597  -0.2142  -0.2037  -0.0685  -0.0560
     0.0252   0.0386   0.2099   0.2203   0.2645   0.2768   0.3637   0.4091
     0.4967   0.5060   0.6290   0.6854   0.7755   0.8080   0.8916   0.9038
     0.9819   1.0059   1.0693   1.0837   1.3201   1.3358   1.3776   1.3958

     occupation numbers 
     1.0000   1.0000   1.0000   1.0000   1.0000   1.0000   1.0000   1.0000
     1.0000   1.0000   1.0000   1.0000   1.0000   1.0000   1.0000   1.0000
     1.0000   1.0000   1.0000   1.0000   1.0000   1.0000   1.0000   1.0000
     1.0000   1.0000   1.0000   1.0000   1.0000   1.0000   1.0000   1.0000
     1.0000   1.0000   1.0000   1.0000   1.0000   1.0000   1.0000   1.0000
     1.0000   1.0000   1.0000   1.0000   1.0000   1.0000   1.0000   1.0000
     1.0000   1.0000   1.0000   1.0000   1.0000   1.0000   1.0000   1.0000
     1.0000   1.0000   1.0000   1.0000   1.0000   1.0000   1.0000   1.0000
     1.0000   1.0000   1.0000   1.0000   1.0000   1.0000   1.0000   1.0000
     1.0000   1.0000   1.0000   1.0000   1.0000   1.0000   1.0000   1.0000
     1.0000   1.0000   1.0000   1.0000   1.0000   1.0000   1.0000   1.0000
     1.0000   1.0000   1.0000   1.0000   1.0000   1.0000   1.0000   1.0000
     1.0000   1.0000   1.0000   1.0000   1.0000   1.0000   1.0000   1.0000
     1.0000   1.0000   1.0000   1.0000   1.0000   1.0000   1.0000   1.0000

          k = 0.0574 0.0343-0.0396 ( 58418 PWs)   bands (ev):

   -23.9016 -23.8991 -23.8808 -23.8760 -23.5775 -23.5771 -23.5661 -23.5636
   -19.1278 -19.1273 -19.1156 -19.1123 -18.8022 -18.8014 -18.7721 -18.7705
   -18.2258 -18.2108 -17.1754 -17.1479 -17.0382 -17.0369 -16.0302 -16.0197
   -12.0925 -12.0882 -12.0101 -11.9649 -11.8089 -11.7821 -11.7559 -11.7517
    -8.8639  -8.8045  -8.2404  -8.2267  -7.5129  -7.4956  -7.4514  -7.3717
    -7.0216  -6.9335  -6.5581  -6.5164  -6.4668  -6.4461  -6.4006  -6.3434
    -6.1828  -6.1400  -5.9451  -5.9132  -5.8547  -5.8496  -5.7666  -5.7377
    -5.5761  -5.5628  -5.4517  -5.4162  -5.1204  -5.0663  -4.9148  -4.8926
    -4.3688  -4.3513  -4.2558  -4.2391  -4.0000  -3.9922  -3.8460  -3.8401
    -3.7035  -3.6948  -3.5817  -3.5246  -3.1894  -3.1728  -3.0229  -3.0004
    -0.7391  -0.7143  -0.2719  -0.2524  -0.2212  -0.2053  -0.0813  -0.0718
    -0.0387  -0.0137   0.1586   0.1939   0.2500   0.2700   0.3127   0.3351
     0.5808   0.6106   0.6881   0.6951   0.7896   0.8038   0.8873   0.8922
     0.9930   1.0138   1.0900   1.1135   1.3282   1.3362   1.3523   1.3648

     occupation numbers 
     1.0000   1.0000   1.0000   1.0000   1.0000   1.0000   1.0000   1.0000
     1.0000   1.0000   1.0000   1.0000   1.0000   1.0000   1.0000   1.0000
     1.0000   1.0000   1.0000   1.0000   1.0000   1.0000   1.0000   1.0000
     1.0000   1.0000   1.0000   1.0000   1.0000   1.0000   1.0000   1.0000
     1.0000   1.0000   1.0000   1.0000   1.0000   1.0000   1.0000   1.0000
     1.0000   1.0000   1.0000   1.0000   1.0000   1.0000   1.0000   1.0000
     1.0000   1.0000   1.0000   1.0000   1.0000   1.0000   1.0000   1.0000
     1.0000   1.0000   1.0000   1.0000   1.0000   1.0000   1.0000   1.0000
     1.0000   1.0000   1.0000   1.0000   1.0000   1.0000   1.0000   1.0000
     1.0000   1.0000   1.0000   1.0000   1.0000   1.0000   1.0000   1.0000
     1.0000   1.0000   1.0000   1.0000   1.0000   1.0000   1.0000   1.0000
     1.0000   1.0000   1.0000   1.0000   1.0000   1.0000   1.0000   1.0000
     1.0000   1.0000   1.0000   1.0000   1.0000   1.0000   1.0000   1.0000
     1.0000   1.0000   1.0000   1.0000   1.0000   1.0000   1.0000   1.0000

          k = 0.0574 0.0343-0.0047 ( 58376 PWs)   bands (ev):

   -23.9032 -23.8988 -23.8801 -23.8765 -23.5775 -23.5760 -23.5653 -23.5645
   -19.1264 -19.1259 -19.1148 -19.1145 -18.7938 -18.7935 -18.7793 -18.7786
   -18.2202 -18.2094 -17.1729 -17.1527 -17.0487 -17.0486 -16.0209 -16.0141
   -12.0784 -12.0751 -12.0067 -11.9688 -11.8232 -11.7984 -11.7517 -11.7491
    -8.8492  -8.8146  -8.2452  -8.2421  -7.5266  -7.5241  -7.4879  -7.4425
    -6.9602  -6.9234  -6.5653  -6.5545  -6.4259  -6.4192  -6.3313  -6.3187
    -6.1123  -6.1063  -5.9346  -5.9133  -5.8294  -5.8182  -5.7238  -5.7183
    -5.6040  -5.5895  -5.5194  -5.5146  -5.0961  -5.0846  -4.8758  -4.8740
    -4.4188  -4.4025  -4.3383  -4.3142  -4.0092  -3.9932  -3.7646  -3.7613
    -3.6638  -3.6382  -3.6258  -3.5882  -3.1575  -3.1416  -3.0359  -3.0286
    -0.6574  -0.6379  -0.2697  -0.2620  -0.2120  -0.1901  -0.1768  -0.1577
    -0.0551  -0.0343   0.1127   0.1413   0.2260   0.2472   0.3591   0.3799
     0.6066   0.6445   0.7229   0.7469   0.7867   0.8177   0.9183   0.9239
     0.9828   0.9914   1.0594   1.0980   1.3158   1.3173   1.3449   1.3534

     occupation numbers 
     1.0000   1.0000   1.0000   1.0000   1.0000   1.0000   1.0000   1.0000
     1.0000   1.0000   1.0000   1.0000   1.0000   1.0000   1.0000   1.0000
     1.0000   1.0000   1.0000   1.0000   1.0000   1.0000   1.0000   1.0000
     1.0000   1.0000   1.0000   1.0000   1.0000   1.0000   1.0000   1.0000
     1.0000   1.0000   1.0000   1.0000   1.0000   1.0000   1.0000   1.0000
     1.0000   1.0000   1.0000   1.0000   1.0000   1.0000   1.0000   1.0000
     1.0000   1.0000   1.0000   1.0000   1.0000   1.0000   1.0000   1.0000
     1.0000   1.0000   1.0000   1.0000   1.0000   1.0000   1.0000   1.0000
     1.0000   1.0000   1.0000   1.0000   1.0000   1.0000   1.0000   1.0000
     1.0000   1.0000   1.0000   1.0000   1.0000   1.0000   1.0000   1.0000
     1.0000   1.0000   1.0000   1.0000   1.0000   1.0000   1.0000   1.0000
     1.0000   1.0000   1.0000   1.0000   1.0000   1.0000   1.0000   1.0000
     1.0000   1.0000   1.0000   1.0000   1.0000   1.0000   1.0000   1.0000
     1.0000   1.0000   1.0000   1.0000   1.0000   1.0000   1.0000   1.0000

          k =-0.0191 0.0114-0.0217 ( 58390 PWs)   bands (ev):

   -23.9151 -23.8932 -23.8824 -23.8726 -23.5785 -23.5683 -23.5672 -23.5656
   -19.1303 -19.1247 -19.1182 -19.1054 -18.7881 -18.7875 -18.7846 -18.7833
   -18.2222 -18.1953 -17.1913 -17.1396 -17.0464 -17.0436 -16.0260 -16.0126
   -12.0797 -12.0747 -12.0682 -11.9563 -11.8963 -11.8195 -11.7496 -11.7276
    -8.8632  -8.8227  -8.2591  -8.2226  -7.5381  -7.4950  -7.4203  -7.4200
    -6.8328  -6.7300  -6.5785  -6.5004  -6.4804  -6.3853  -6.3320  -6.2440
    -6.1085  -6.0774  -6.0489  -5.9161  -5.8701  -5.7928  -5.7238  -5.6864
    -5.6333  -5.6102  -5.5281  -5.4899  -5.1198  -5.0050  -4.9126  -4.9031
    -4.4351  -4.4199  -4.3891  -4.3436  -4.2102  -4.1083  -3.8572  -3.8496
    -3.6856  -3.5629  -3.5060  -3.4670  -3.1601  -3.1161  -3.0406  -3.0188
    -0.7728  -0.7691  -0.2995  -0.2944  -0.1945  -0.1435  -0.0788  -0.0530
     0.0037   0.0289   0.1902   0.2230   0.2377   0.2685   0.3945   0.4090
     0.4555   0.4770   0.6464   0.7049   0.7875   0.8437   0.8944   0.9114
     0.9479   1.0493   1.0807   1.1428   1.2172   1.3591   1.3798   1.4015

     occupation numbers 
     1.0000   1.0000   1.0000   1.0000   1.0000   1.0000   1.0000   1.0000
     1.0000   1.0000   1.0000   1.0000   1.0000   1.0000   1.0000   1.0000
     1.0000   1.0000   1.0000   1.0000   1.0000   1.0000   1.0000   1.0000
     1.0000   1.0000   1.0000   1.0000   1.0000   1.0000   1.0000   1.0000
     1.0000   1.0000   1.0000   1.0000   1.0000   1.0000   1.0000   1.0000
     1.0000   1.0000   1.0000   1.0000   1.0000   1.0000   1.0000   1.0000
     1.0000   1.0000   1.0000   1.0000   1.0000   1.0000   1.0000   1.0000
     1.0000   1.0000   1.0000   1.0000   1.0000   1.0000   1.0000   1.0000
     1.0000   1.0000   1.0000   1.0000   1.0000   1.0000   1.0000   1.0000
     1.0000   1.0000   1.0000   1.0000   1.0000   1.0000   1.0000   1.0000
     1.0000   1.0000   1.0000   1.0000   1.0000   1.0000   1.0000   1.0000
     1.0000   1.0000   1.0000   1.0000   1.0000   1.0000   1.0000   1.0000
     1.0000   1.0000   1.0000   1.0000   1.0000   1.0000   1.0000   1.0000
     1.0000   1.0000   1.0000   1.0000   1.0000   1.0000   1.0000   1.0000

          k =-0.0191 0.0114-0.0566 ( 58417 PWs)   bands (ev):

   -23.9072 -23.8987 -23.8786 -23.8775 -23.5788 -23.5755 -23.5652 -23.5615
   -19.1288 -19.1238 -19.1188 -19.1088 -18.7938 -18.7932 -18.7796 -18.7776
   -18.2105 -18.2099 -17.1666 -17.1640 -17.0413 -17.0384 -16.0217 -16.0197
   -12.0839 -12.0796 -12.0235 -12.0020 -11.8530 -11.8403 -11.7583 -11.7477
    -8.8434  -8.8071  -8.2422  -8.2166  -7.5488  -7.4974  -7.4018  -7.3236
    -6.8815  -6.7562  -6.5694  -6.5323  -6.5198  -6.4070  -6.3551  -6.3200
    -6.1632  -6.1390  -5.9275  -5.8769  -5.8626  -5.8001  -5.7716  -5.7357
    -5.6857  -5.6326  -5.4499  -5.4051  -5.1231  -5.0440  -4.9102  -4.8729
    -4.3905  -4.3819  -4.3374  -4.2568  -4.1329  -4.1059  -3.9706  -3.9681
    -3.6641  -3.6101  -3.4467  -3.4352  -3.1827  -3.1776  -3.0226  -2.9956
    -0.7377  -0.7064  -0.3130  -0.3019  -0.2023  -0.1663  -0.1172  -0.0853
    -0.0555  -0.0163   0.0959   0.1574   0.2592   0.3104   0.3645   0.3779
     0.5602   0.6190   0.6717   0.7095   0.7998   0.8135   0.8540   0.9083
     1.0019   1.0483   1.1188   1.1406   1.2348   1.3096   1.3825   1.4055

     occupation numbers 
     1.0000   1.0000   1.0000   1.0000   1.0000   1.0000   1.0000   1.0000
     1.0000   1.0000   1.0000   1.0000   1.0000   1.0000   1.0000   1.0000
     1.0000   1.0000   1.0000   1.0000   1.0000   1.0000   1.0000   1.0000
     1.0000   1.0000   1.0000   1.0000   1.0000   1.0000   1.0000   1.0000
     1.0000   1.0000   1.0000   1.0000   1.0000   1.0000   1.0000   1.0000
     1.0000   1.0000   1.0000   1.0000   1.0000   1.0000   1.0000   1.0000
     1.0000   1.0000   1.0000   1.0000   1.0000   1.0000   1.0000   1.0000
     1.0000   1.0000   1.0000   1.0000   1.0000   1.0000   1.0000   1.0000
     1.0000   1.0000   1.0000   1.0000   1.0000   1.0000   1.0000   1.0000
     1.0000   1.0000   1.0000   1.0000   1.0000   1.0000   1.0000   1.0000
     1.0000   1.0000   1.0000   1.0000   1.0000   1.0000   1.0000   1.0000
     1.0000   1.0000   1.0000   1.0000   1.0000   1.0000   1.0000   1.0000
     1.0000   1.0000   1.0000   1.0000   1.0000   1.0000   1.0000   1.0000
     1.0000   1.0000   1.0000   1.0000   1.0000   1.0000   1.0000   1.0000

          k =-0.0191 0.0114 0.0481 ( 58395 PWs)   bands (ev):

   -23.9085 -23.8978 -23.8823 -23.8734 -23.5803 -23.5773 -23.5623 -23.5610
   -19.1262 -19.1249 -19.1150 -19.1143 -18.7952 -18.7949 -18.7779 -18.7761
   -18.2225 -18.1965 -17.1890 -17.1413 -17.0439 -17.0420 -16.0254 -16.0092
   -12.0995 -12.0781 -12.0520 -11.9687 -11.8801 -11.8079 -11.7602 -11.7487
    -8.8528  -8.7675  -8.2299  -8.2251  -7.5439  -7.5275  -7.4137  -7.2971
    -6.8927  -6.7797  -6.5663  -6.5346  -6.4801  -6.4575  -6.3663  -6.3321
    -6.1891  -6.1589  -5.9279  -5.8994  -5.8025  -5.7662  -5.7541  -5.7385
    -5.6886  -5.6189  -5.4558  -5.3992  -5.1175  -5.0423  -4.8970  -4.8670
    -4.4239  -4.3523  -4.3173  -4.2537  -4.1709  -4.1226  -3.9790  -3.9242
    -3.6668  -3.6152  -3.4991  -3.4165  -3.1902  -3.1638  -3.0165  -3.0038
    -0.6716  -0.6128  -0.3019  -0.2926  -0.2597  -0.2259  -0.1529  -0.1319
    -0.0712  -0.0605   0.0620   0.1491   0.2751   0.3148   0.3213   0.3698
     0.6000   0.6848   0.7069   0.7247   0.7662   0.8643   0.8659   0.8909
     1.0015   1.0555   1.1249   1.1792   1.2440   1.2740   1.3691   1.3918

     occupation numbers 
     1.0000   1.0000   1.0000   1.0000   1.0000   1.0000   1.0000   1.0000
     1.0000   1.0000   1.0000   1.0000   1.0000   1.0000   1.0000   1.0000
     1.0000   1.0000   1.0000   1.0000   1.0000   1.0000   1.0000   1.0000
     1.0000   1.0000   1.0000   1.0000   1.0000   1.0000   1.0000   1.0000
     1.0000   1.0000   1.0000   1.0000   1.0000   1.0000   1.0000   1.0000
     1.0000   1.0000   1.0000   1.0000   1.0000   1.0000   1.0000   1.0000
     1.0000   1.0000   1.0000   1.0000   1.0000   1.0000   1.0000   1.0000
     1.0000   1.0000   1.0000   1.0000   1.0000   1.0000   1.0000   1.0000
     1.0000   1.0000   1.0000   1.0000   1.0000   1.0000   1.0000   1.0000
     1.0000   1.0000   1.0000   1.0000   1.0000   1.0000   1.0000   1.0000
     1.0000   1.0000   1.0000   1.0000   1.0000   1.0000   1.0000   1.0000
     1.0000   1.0000   1.0000   1.0000   1.0000   1.0000   1.0000   1.0000
     1.0000   1.0000   1.0000   1.0000   1.0000   1.0000   1.0000   1.0000
     1.0000   1.0000   1.0000   1.0000   1.0000   1.0000   1.0000   1.0000

          k =-0.0191 0.0114 0.0132 ( 58408 PWs)   bands (ev):

   -23.9157 -23.8933 -23.8834 -23.8708 -23.5805 -23.5720 -23.5641 -23.5631
   -19.1291 -19.1235 -19.1183 -19.1079 -18.7914 -18.7913 -18.7804 -18.7802
   -18.2268 -18.1893 -17.2005 -17.1300 -17.0485 -17.0476 -16.0264 -16.0055
   -12.1047 -12.0747 -12.0649 -11.9517 -11.8970 -11.8079 -11.7488 -11.7292
    -8.8744  -8.7815  -8.2521  -8.2261  -7.5433  -7.5196  -7.4555  -7.3677
    -6.8011  -6.7886  -6.5755  -6.4871  -6.4815  -6.4305  -6.3360  -6.2635
    -6.1584  -6.1148  -5.9713  -5.9212  -5.8347  -5.7905  -5.7048  -5.6792
    -5.6437  -5.6026  -5.5054  -5.4932  -5.0857  -5.0400  -4.9091  -4.8749
    -4.4358  -4.4132  -4.3839  -4.3622  -4.2185  -4.1166  -3.8674  -3.8061
    -3.7154  -3.5721  -3.5194  -3.4649  -3.1664  -3.1110  -3.0325  -3.0266
    -0.7246  -0.7026  -0.2886  -0.2834  -0.1955  -0.1626  -0.0880  -0.0711
    -0.0570  -0.0177   0.0842   0.1511   0.2074   0.2861   0.3385   0.4094
     0.5731   0.6147   0.6429   0.7268   0.7793   0.8457   0.9058   0.9232
     0.9542   1.0282   1.1042   1.1688   1.2130   1.3400   1.3669   1.3898

     occupation numbers 
     1.0000   1.0000   1.0000   1.0000   1.0000   1.0000   1.0000   1.0000
     1.0000   1.0000   1.0000   1.0000   1.0000   1.0000   1.0000   1.0000
     1.0000   1.0000   1.0000   1.0000   1.0000   1.0000   1.0000   1.0000
     1.0000   1.0000   1.0000   1.0000   1.0000   1.0000   1.0000   1.0000
     1.0000   1.0000   1.0000   1.0000   1.0000   1.0000   1.0000   1.0000
     1.0000   1.0000   1.0000   1.0000   1.0000   1.0000   1.0000   1.0000
     1.0000   1.0000   1.0000   1.0000   1.0000   1.0000   1.0000   1.0000
     1.0000   1.0000   1.0000   1.0000   1.0000   1.0000   1.0000   1.0000
     1.0000   1.0000   1.0000   1.0000   1.0000   1.0000   1.0000   1.0000
     1.0000   1.0000   1.0000   1.0000   1.0000   1.0000   1.0000   1.0000
     1.0000   1.0000   1.0000   1.0000   1.0000   1.0000   1.0000   1.0000
     1.0000   1.0000   1.0000   1.0000   1.0000   1.0000   1.0000   1.0000
     1.0000   1.0000   1.0000   1.0000   1.0000   1.0000   1.0000   1.0000
     1.0000   1.0000   1.0000   1.0000   1.0000   1.0000   1.0000   1.0000

          k =-0.0191 0.0343-0.0217 ( 58387 PWs)   bands (ev):

   -23.9100 -23.9016 -23.8776 -23.8743 -23.5750 -23.5706 -23.5671 -23.5667
   -19.1300 -19.1283 -19.1125 -19.1078 -18.7879 -18.7877 -18.7841 -18.7836
   -18.2146 -18.2035 -17.1761 -17.1547 -17.0455 -17.0443 -16.0220 -16.0165
   -12.0763 -12.0753 -12.0476 -12.0059 -11.8578 -11.8315 -11.7431 -11.7340
    -8.8524  -8.8356  -8.2491  -8.2340  -7.5299  -7.5117  -7.4120  -7.4117
    -6.8108  -6.7647  -6.5260  -6.4944  -6.4894  -6.4352  -6.3068  -6.2776
    -6.1213  -6.1005  -5.9690  -5.9295  -5.8717  -5.8314  -5.7363  -5.7208
    -5.5963  -5.5813  -5.5079  -5.4875  -5.0745  -5.0068  -4.9598  -4.9350
    -4.4425  -4.4336  -4.3524  -4.3325  -4.1927  -4.1421  -3.8518  -3.8454
    -3.6513  -3.5975  -3.4954  -3.4760  -3.1512  -3.1337  -3.0302  -3.0222
    -0.7683  -0.7662  -0.2913  -0.2825  -0.2078  -0.1735  -0.0976  -0.0910
     0.0366   0.0447   0.2163   0.2259   0.2594   0.2668   0.4117   0.4205
     0.4309   0.4631   0.6579   0.6875   0.7746   0.7973   0.9128   0.9338
     0.9721   1.0191   1.1078   1.1311   1.2570   1.3141   1.3899   1.3965

     occupation numbers 
     1.0000   1.0000   1.0000   1.0000   1.0000   1.0000   1.0000   1.0000
     1.0000   1.0000   1.0000   1.0000   1.0000   1.0000   1.0000   1.0000
     1.0000   1.0000   1.0000   1.0000   1.0000   1.0000   1.0000   1.0000
     1.0000   1.0000   1.0000   1.0000   1.0000   1.0000   1.0000   1.0000
     1.0000   1.0000   1.0000   1.0000   1.0000   1.0000   1.0000   1.0000
     1.0000   1.0000   1.0000   1.0000   1.0000   1.0000   1.0000   1.0000
     1.0000   1.0000   1.0000   1.0000   1.0000   1.0000   1.0000   1.0000
     1.0000   1.0000   1.0000   1.0000   1.0000   1.0000   1.0000   1.0000
     1.0000   1.0000   1.0000   1.0000   1.0000   1.0000   1.0000   1.0000
     1.0000   1.0000   1.0000   1.0000   1.0000   1.0000   1.0000   1.0000
     1.0000   1.0000   1.0000   1.0000   1.0000   1.0000   1.0000   1.0000
     1.0000   1.0000   1.0000   1.0000   1.0000   1.0000   1.0000   1.0000
     1.0000   1.0000   1.0000   1.0000   1.0000   1.0000   1.0000   1.0000
     1.0000   1.0000   1.0000   1.0000   1.0000   1.0000   1.0000   1.0000

          k =-0.0191 0.0343-0.0566 ( 58417 PWs)   bands (ev):

   -23.9045 -23.9009 -23.8787 -23.8782 -23.5773 -23.5759 -23.5646 -23.5630
   -19.1286 -19.1271 -19.1139 -19.1104 -18.7936 -18.7934 -18.7790 -18.7782
   -18.2104 -18.2101 -17.1662 -17.1652 -17.0401 -17.0389 -16.0211 -16.0203
   -12.0819 -12.0798 -12.0204 -12.0111 -11.8460 -11.8403 -11.7566 -11.7521
    -8.8330  -8.8179  -8.2352  -8.2245  -7.5326  -7.5118  -7.3781  -7.3468
    -6.8618  -6.8156  -6.5536  -6.5418  -6.4691  -6.4207  -6.3654  -6.3440
    -6.1225  -6.0914  -5.9485  -5.8976  -5.8429  -5.8088  -5.7738  -5.7573
    -5.6750  -5.6395  -5.4569  -5.4348  -5.0588  -5.0058  -4.9611  -4.9217
    -4.3664  -4.3490  -4.3281  -4.2881  -4.1337  -4.1217  -3.9693  -3.9682
    -3.6423  -3.6194  -3.4456  -3.4400  -3.1776  -3.1736  -3.0218  -3.0089
    -0.7273  -0.7145  -0.3049  -0.2960  -0.2140  -0.1864  -0.1271  -0.1091
    -0.0300  -0.0132   0.1454   0.1659   0.2643   0.2894   0.3558   0.3687
     0.5772   0.6027   0.6832   0.7008   0.8049   0.8204   0.8527   0.8902
     1.0067   1.0307   1.1297   1.1382   1.2609   1.2909   1.3881   1.3975

     occupation numbers 
     1.0000   1.0000   1.0000   1.0000   1.0000   1.0000   1.0000   1.0000
     1.0000   1.0000   1.0000   1.0000   1.0000   1.0000   1.0000   1.0000
     1.0000   1.0000   1.0000   1.0000   1.0000   1.0000   1.0000   1.0000
     1.0000   1.0000   1.0000   1.0000   1.0000   1.0000   1.0000   1.0000
     1.0000   1.0000   1.0000   1.0000   1.0000   1.0000   1.0000   1.0000
     1.0000   1.0000   1.0000   1.0000   1.0000   1.0000   1.0000   1.0000
     1.0000   1.0000   1.0000   1.0000   1.0000   1.0000   1.0000   1.0000
     1.0000   1.0000   1.0000   1.0000   1.0000   1.0000   1.0000   1.0000
     1.0000   1.0000   1.0000   1.0000   1.0000   1.0000   1.0000   1.0000
     1.0000   1.0000   1.0000   1.0000   1.0000   1.0000   1.0000   1.0000
     1.0000   1.0000   1.0000   1.0000   1.0000   1.0000   1.0000   1.0000
     1.0000   1.0000   1.0000   1.0000   1.0000   1.0000   1.0000   1.0000
     1.0000   1.0000   1.0000   1.0000   1.0000   1.0000   1.0000   1.0000
     1.0000   1.0000   1.0000   1.0000   1.0000   1.0000   1.0000   1.0000

          k =-0.0191 0.0343 0.0481 ( 58419 PWs)   bands (ev):

   -23.9056 -23.9012 -23.8795 -23.8759 -23.5790 -23.5777 -23.5623 -23.5617
   -19.1267 -19.1263 -19.1138 -19.1135 -18.7951 -18.7950 -18.7774 -18.7767
   -18.2151 -18.2044 -17.1751 -17.1553 -17.0432 -17.0424 -16.0206 -16.0139
   -12.0931 -12.0847 -12.0346 -12.0032 -11.8487 -11.8216 -11.7571 -11.7521
    -8.8289  -8.7936  -8.2299  -8.2276  -7.5353  -7.5297  -7.3827  -7.3333
    -6.8581  -6.8105  -6.5714  -6.5451  -6.4671  -6.4534  -6.3975  -6.3770
    -6.1016  -6.0855  -5.9640  -5.9368  -5.7960  -5.7783  -5.7561  -5.7318
    -5.6781  -5.6401  -5.4470  -5.4174  -5.0901  -5.0375  -4.9224  -4.8883
    -4.4092  -4.3786  -4.2767  -4.2516  -4.1665  -4.1454  -3.9630  -3.9405
    -3.6440  -3.6224  -3.4756  -3.4412  -3.1771  -3.1648  -3.0216  -3.0170
    -0.6551  -0.6311  -0.3021  -0.2964  -0.2296  -0.2118  -0.1775  -0.1546
    -0.0840  -0.0739   0.1148   0.1488   0.2780   0.2953   0.3332   0.3600
     0.6235   0.6576   0.7262   0.7407   0.7674   0.8149   0.8792   0.8906
     1.0144   1.0312   1.1505   1.1702   1.2505   1.2638   1.3751   1.3849

     occupation numbers 
     1.0000   1.0000   1.0000   1.0000   1.0000   1.0000   1.0000   1.0000
     1.0000   1.0000   1.0000   1.0000   1.0000   1.0000   1.0000   1.0000
     1.0000   1.0000   1.0000   1.0000   1.0000   1.0000   1.0000   1.0000
     1.0000   1.0000   1.0000   1.0000   1.0000   1.0000   1.0000   1.0000
     1.0000   1.0000   1.0000   1.0000   1.0000   1.0000   1.0000   1.0000
     1.0000   1.0000   1.0000   1.0000   1.0000   1.0000   1.0000   1.0000
     1.0000   1.0000   1.0000   1.0000   1.0000   1.0000   1.0000   1.0000
     1.0000   1.0000   1.0000   1.0000   1.0000   1.0000   1.0000   1.0000
     1.0000   1.0000   1.0000   1.0000   1.0000   1.0000   1.0000   1.0000
     1.0000   1.0000   1.0000   1.0000   1.0000   1.0000   1.0000   1.0000
     1.0000   1.0000   1.0000   1.0000   1.0000   1.0000   1.0000   1.0000
     1.0000   1.0000   1.0000   1.0000   1.0000   1.0000   1.0000   1.0000
     1.0000   1.0000   1.0000   1.0000   1.0000   1.0000   1.0000   1.0000
     1.0000   1.0000   1.0000   1.0000   1.0000   1.0000   1.0000   1.0000

          k =-0.0191 0.0343 0.0132 ( 58403 PWs)   bands (ev):

   -23.9106 -23.9022 -23.8775 -23.8731 -23.5776 -23.5740 -23.5641 -23.5637
   -19.1288 -19.1272 -19.1132 -19.1096 -18.7914 -18.7914 -18.7803 -18.7802
   -18.2163 -18.2008 -17.1795 -17.1503 -17.0484 -17.0480 -16.0201 -16.0114
   -12.0926 -12.0820 -12.0462 -12.0060 -11.8525 -11.8225 -11.7425 -11.7344
    -8.8490  -8.8106  -8.2460  -8.2353  -7.5377  -7.5265  -7.4256  -7.3907
    -6.7770  -6.7621  -6.5667  -6.5183  -6.4808  -6.4531  -6.3576  -6.3232
    -6.0980  -6.0760  -5.9774  -5.9500  -5.8284  -5.8053  -5.7128  -5.7119
    -5.5961  -5.5843  -5.4950  -5.4841  -5.0824  -5.0513  -4.9194  -4.8972
    -4.4473  -4.4405  -4.3547  -4.3322  -4.2034  -4.1517  -3.8471  -3.8218
    -3.6638  -3.6032  -3.5064  -3.4828  -3.1539  -3.1315  -3.0290  -3.0270
    -0.7147  -0.7056  -0.2824  -0.2730  -0.2076  -0.1750  -0.1007  -0.0915
    -0.0564  -0.0350   0.1185   0.1486   0.2320   0.2675   0.3761   0.4068
     0.5858   0.6138   0.6504   0.7045   0.7594   0.7984   0.9261   0.9298
     0.9826   1.0117   1.1343   1.1598   1.2420   1.2962   1.3766   1.3833

     occupation numbers 
[...]
     atom   38 type  4   force =    -1.16636262   -6.71737930    9.09093236
     atom   39 type  1   force =     2.17280693    2.38072176    1.89300046
     atom   40 type  1   force =    -0.19029107    1.60870740    0.06066404
     atom   41 type  4   force =     9.82906605    3.80958742   -4.44419813
     atom   42 type  1   force =    -2.84153131    0.62428062   -1.88546419
     atom   43 type  3   force =     0.15407068   -1.81645077   -2.29876014
     atom   44 type  3   force =    -2.33442946    0.92746957   -1.46957339
     atom   45 type  2   force =    -2.60810266   -0.87471013   -4.23449419
     atom   46 type  4   force =    -8.85715263   -4.69333908   -1.45584974
     atom   47 type  3   force =    -1.17048533   -2.53089136    0.60530248
     atom   48 type  3   force =    -2.04742667    0.06620204   -1.79967503
     atom   49 type  2   force =    -3.59513991   -2.91907950   -1.08246881
     atom   50 type  4   force =    -1.52859543   -5.12490138    9.83590747
     atom   51 type  1   force =    -0.40345081   -0.11862861    1.14198973
     atom   52 type  4   force =    -1.16633394    6.71732185    9.09098156
     atom   53 type  1   force =     2.17284312   -2.38081731    1.89299640
     atom   54 type  1   force =    -0.19044846   -1.60871394    0.06088928
     atom   55 type  4   force =     9.82888576   -3.80954161   -4.44401777
     atom   56 type  1   force =    -2.84154351   -0.62428364   -1.88537389
     The core correction contribution to forces
     atom    1 type  1   force =    -0.00298580   -0.00645247   -0.00178609
     atom    2 type  4   force =     0.01877543    0.00366750   -0.01189845
     atom    3 type  1   force =     0.00036013    0.00166553   -0.00000810
     atom    4 type  1   force =     0.00926842    0.00629207    0.00159168
     atom    5 type  4   force =    -0.00118686   -0.01438322    0.01738506
     atom    6 type  1   force =    -0.00112902   -0.00155675   -0.00021012
     atom    7 type  4   force =    -0.00409413    0.00889742    0.02025539
     atom    8 type  2   force =    -0.01391004    0.00993178   -0.00481810
     atom    9 type  3   force =     0.00000000    0.00000000    0.00000000
     atom   10 type  3   force =     0.00000000    0.00000000    0.00000000
     atom   11 type  4   force =    -0.01771795    0.01157533   -0.00656966
     atom   12 type  2   force =    -0.00894807    0.00380629   -0.01581110
     atom   13 type  3   force =     0.00000000    0.00000000    0.00000000
     atom   14 type  3   force =     0.00000000    0.00000000    0.00000000
     atom   15 type  3   force =     0.00000000    0.00000000    0.00000000
     atom   16 type  3   force =     0.00000000    0.00000000    0.00000000
     atom   17 type  2   force =    -0.00894585   -0.00380617   -0.01581033
     atom   18 type  4   force =    -0.01771798   -0.01157543   -0.00656973
     atom   19 type  3   force =     0.00000000    0.00000000    0.00000000
     atom   20 type  3   force =     0.00000000    0.00000000    0.00000000
     atom   21 type  2   force =    -0.01390552   -0.00993169   -0.00481732
     atom   22 type  4   force =    -0.00409462   -0.00889743    0.02025580
     atom   23 type  1   force =    -0.00112961    0.00155614   -0.00021079
     atom   24 type  4   force =    -0.00118681    0.01438306    0.01738498
     atom   25 type  1   force =     0.00926840   -0.00629195    0.00159148
     atom   26 type  1   force =     0.00035962   -0.00166524   -0.00000826
     atom   27 type  4   force =     0.01877523   -0.00366759   -0.01189818
     atom   28 type  1   force =    -0.00298576    0.00645247   -0.00178601
     atom   29 type  3   force =     0.00000000    0.00000000    0.00000000
     atom   30 type  3   force =     0.00000000    0.00000000    0.00000000
     atom   31 type  2   force =     0.00894807   -0.00380629    0.01581110
     atom   32 type  4   force =     0.01771795   -0.01157533    0.00656966
     atom   33 type  3   force =     0.00000000    0.00000000    0.00000000
     atom   34 type  3   force =     0.00000000    0.00000000    0.00000000
     atom   35 type  2   force =     0.01391004   -0.00993178    0.00481810
     atom   36 type  4   force =     0.00409413   -0.00889742   -0.02025539
     atom   37 type  1   force =     0.00112902    0.00155675    0.00021012
     atom   38 type  4   force =     0.00118686    0.01438322   -0.01738506
     atom   39 type  1   force =    -0.00926842   -0.00629207   -0.00159168
     atom   40 type  1   force =    -0.00036013   -0.00166553    0.00000810
     atom   41 type  4   force =    -0.01877543   -0.00366750    0.01189845
     atom   42 type  1   force =     0.00298580    0.00645247    0.00178609
     atom   43 type  3   force =     0.00000000    0.00000000    0.00000000
     atom   44 type  3   force =     0.00000000    0.00000000    0.00000000
     atom   45 type  2   force =     0.00894585    0.00380617    0.01581033
     atom   46 type  4   force =     0.01771798    0.01157543    0.00656973
     atom   47 type  3   force =     0.00000000    0.00000000    0.00000000
     atom   48 type  3   force =     0.00000000    0.00000000    0.00000000
     atom   49 type  2   force =     0.01390552    0.00993169    0.00481732
     atom   50 type  4   force =     0.00409462    0.00889743   -0.02025580
     atom   51 type  1   force =     0.00112961   -0.00155614    0.00021079
     atom   52 type  4   force =     0.00118681   -0.01438306   -0.01738498
     atom   53 type  1   force =    -0.00926840    0.00629195   -0.00159148
     atom   54 type  1   force =    -0.00035962    0.00166524    0.00000826
     atom   55 type  4   force =    -0.01877523    0.00366759    0.01189818
     atom   56 type  1   force =     0.00298576   -0.00645247    0.00178601
     The Hubbard contrib.    to forces
     atom    1 type  1   force =     0.00000000    0.00000000    0.00000000
     atom    2 type  4   force =     0.00000000    0.00000000    0.00000000
     atom    3 type  1   force =     0.00000000    0.00000000    0.00000000
     atom    4 type  1   force =     0.00000000    0.00000000    0.00000000
     atom    5 type  4   force =     0.00000000    0.00000000    0.00000000
     atom    6 type  1   force =     0.00000000    0.00000000    0.00000000
     atom    7 type  4   force =     0.00000000    0.00000000    0.00000000
     atom    8 type  2   force =     0.00000000    0.00000000    0.00000000
     atom    9 type  3   force =     0.00000000    0.00000000    0.00000000
     atom   10 type  3   force =     0.00000000    0.00000000    0.00000000
     atom   11 type  4   force =     0.00000000    0.00000000    0.00000000
     atom   12 type  2   force =     0.00000000    0.00000000    0.00000000
     atom   13 type  3   force =     0.00000000    0.00000000    0.00000000
     atom   14 type  3   force =     0.00000000    0.00000000    0.00000000
     atom   15 type  3   force =     0.00000000    0.00000000    0.00000000
     atom   16 type  3   force =     0.00000000    0.00000000    0.00000000
     atom   17 type  2   force =     0.00000000    0.00000000    0.00000000
     atom   18 type  4   force =     0.00000000    0.00000000    0.00000000
     atom   19 type  3   force =     0.00000000    0.00000000    0.00000000
     atom   20 type  3   force =     0.00000000    0.00000000    0.00000000
     atom   21 type  2   force =     0.00000000    0.00000000    0.00000000
     atom   22 type  4   force =     0.00000000    0.00000000    0.00000000
     atom   23 type  1   force =     0.00000000    0.00000000    0.00000000
     atom   24 type  4   force =     0.00000000    0.00000000    0.00000000
     atom   25 type  1   force =     0.00000000    0.00000000    0.00000000
     atom   26 type  1   force =     0.00000000    0.00000000    0.00000000
     atom   27 type  4   force =     0.00000000    0.00000000    0.00000000
     atom   28 type  1   force =     0.00000000    0.00000000    0.00000000
     atom   29 type  3   force =     0.00000000    0.00000000    0.00000000
     atom   30 type  3   force =     0.00000000    0.00000000    0.00000000
     atom   31 type  2   force =     0.00000000    0.00000000    0.00000000
     atom   32 type  4   force =     0.00000000    0.00000000    0.00000000
     atom   33 type  3   force =     0.00000000    0.00000000    0.00000000
     atom   34 type  3   force =     0.00000000    0.00000000    0.00000000
     atom   35 type  2   force =     0.00000000    0.00000000    0.00000000
     atom   36 type  4   force =     0.00000000    0.00000000    0.00000000
     atom   37 type  1   force =     0.00000000    0.00000000    0.00000000
     atom   38 type  4   force =     0.00000000    0.00000000    0.00000000
     atom   39 type  1   force =     0.00000000    0.00000000    0.00000000
     atom   40 type  1   force =     0.00000000    0.00000000    0.00000000
     atom   41 type  4   force =     0.00000000    0.00000000    0.00000000
     atom   42 type  1   force =     0.00000000    0.00000000    0.00000000
     atom   43 type  3   force =     0.00000000    0.00000000    0.00000000
     atom   44 type  3   force =     0.00000000    0.00000000    0.00000000
     atom   45 type  2   force =     0.00000000    0.00000000    0.00000000
     atom   46 type  4   force =     0.00000000    0.00000000    0.00000000
     atom   47 type  3   force =     0.00000000    0.00000000    0.00000000
     atom   48 type  3   force =     0.00000000    0.00000000    0.00000000
     atom   49 type  2   force =     0.00000000    0.00000000    0.00000000
     atom   50 type  4   force =     0.00000000    0.00000000    0.00000000
     atom   51 type  1   force =     0.00000000    0.00000000    0.00000000
     atom   52 type  4   force =     0.00000000    0.00000000    0.00000000
     atom   53 type  1   force =     0.00000000    0.00000000    0.00000000
     atom   54 type  1   force =     0.00000000    0.00000000    0.00000000
     atom   55 type  4   force =     0.00000000    0.00000000    0.00000000
     atom   56 type  1   force =     0.00000000    0.00000000    0.00000000
     The SCF correction term to forces
     atom    1 type  1   force =     0.00001980   -0.00000516   -0.00006906
     atom    2 type  4   force =     0.00012859    0.00003842   -0.00015152
     atom    3 type  1   force =     0.00014424    0.00002452   -0.00017445
     atom    4 type  1   force =    -0.00002787   -0.00010824    0.00011784
     atom    5 type  4   force =     0.00005529   -0.00000498   -0.00006774
     atom    6 type  1   force =     0.00018288   -0.00029565    0.00024368
     atom    7 type  4   force =     0.00000836    0.00003815    0.00000107
     atom    8 type  2   force =    -0.00000528    0.00000993   -0.00000900
     atom    9 type  3   force =     0.00000102    0.00001167   -0.00000712
     atom   10 type  3   force =    -0.00000310    0.00001204   -0.00000605
     atom   11 type  4   force =     0.00017743   -0.00018091    0.00013373
     atom   12 type  2   force =     0.00004550    0.00001338   -0.00006473
     atom   13 type  3   force =     0.00001089    0.00000533   -0.00001655
     atom   14 type  3   force =     0.00001621   -0.00000767   -0.00000554
     atom   15 type  3   force =     0.00000811    0.00001288   -0.00001300
     atom   16 type  3   force =     0.00001470    0.00000461   -0.00001153
     atom   17 type  2   force =     0.00003097    0.00003054   -0.00004521
     atom   18 type  4   force =     0.00016666    0.00008706    0.00013791
     atom   19 type  3   force =     0.00000891   -0.00001561    0.00001303
     atom   20 type  3   force =     0.00001174   -0.00000744    0.00000438
     atom   21 type  2   force =     0.00003967   -0.00002621    0.00004426
     atom   22 type  4   force =    -0.00006773   -0.00001413    0.00002059
     atom   23 type  1   force =     0.00018826    0.00014909    0.00020053
     atom   24 type  4   force =     0.00008806   -0.00005583   -0.00000795
     atom   25 type  1   force =     0.00001063    0.00001205    0.00011074
     atom   26 type  1   force =    -0.00007217   -0.00002101    0.00009299
     atom   27 type  4   force =    -0.00004847    0.00000456    0.00003046
     atom   28 type  1   force =     0.00000863   -0.00000123    0.00002826
     atom   29 type  3   force =    -0.00001621    0.00000767    0.00000554
     atom   30 type  3   force =    -0.00001089   -0.00000533    0.00001655
     atom   31 type  2   force =    -0.00004550   -0.00001338    0.00006473
     atom   32 type  4   force =    -0.00017743    0.00018091   -0.00013373
     atom   33 type  3   force =     0.00000310   -0.00001204    0.00000605
     atom   34 type  3   force =    -0.00000102   -0.00001167    0.00000712
     atom   35 type  2   force =     0.00000528   -0.00000993    0.00000900
     atom   36 type  4   force =    -0.00000836   -0.00003815   -0.00000107
     atom   37 type  1   force =    -0.00018288    0.00029565   -0.00024368
     atom   38 type  4   force =    -0.00005529    0.00000498    0.00006774
     atom   39 type  1   force =     0.00002787    0.00010824   -0.00011784
     atom   40 type  1   force =    -0.00014424   -0.00002452    0.00017445
     atom   41 type  4   force =    -0.00012859   -0.00003842    0.00015152
     atom   42 type  1   force =    -0.00001980    0.00000516    0.00006906
     atom   43 type  3   force =    -0.00000811   -0.00001288    0.00001300
     atom   44 type  3   force =    -0.00001470   -0.00000461    0.00001153
     atom   45 type  2   force =    -0.00003097   -0.00003054    0.00004521
     atom   46 type  4   force =    -0.00016666   -0.00008706   -0.00013791
     atom   47 type  3   force =    -0.00000891    0.00001561   -0.00001303
     atom   48 type  3   force =    -0.00001174    0.00000744   -0.00000438
     atom   49 type  2   force =    -0.00003967    0.00002621   -0.00004426
     atom   50 type  4   force =     0.00006773    0.00001413   -0.00002059
     atom   51 type  1   force =    -0.00018826   -0.00014909   -0.00020053
     atom   52 type  4   force =    -0.00008806    0.00005583    0.00000795
     atom   53 type  1   force =    -0.00001063   -0.00001205   -0.00011074
     atom   54 type  1   force =     0.00007217    0.00002101   -0.00009299
     atom   55 type  4   force =     0.00004847   -0.00000456   -0.00003046
     atom   56 type  1   force =    -0.00000863    0.00000123   -0.00002826

     Total force =     1.112260     Total SCF correction =     0.001107


     entering subroutine stress ...

          total   stress  (Ry/bohr**3)                   (kbar)     P=  139.11
   0.00096950   0.00000004   0.00012101        142.62      0.01     17.80
   0.00000004   0.00096475  -0.00000010          0.01    141.92     -0.02
   0.00012101  -0.00000010   0.00090260         17.80     -0.02    132.78

     kinetic stress (kbar)  15226.26      0.00    328.72
                                0.00  15649.33     -0.00
                              328.72     -0.00  15197.73

     local   stress (kbar) -15768.38      0.01   7885.40
                                0.01  -8793.18     -0.04
                             7885.40     -0.04 -11881.31

     nonloc. stress (kbar)   1032.68      0.00     11.06
                                0.00   1043.13     -0.01
                               11.06     -0.01   1003.46

     hartree stress (kbar)   7095.57     -0.01  -2881.95
                               -0.01   5049.58      0.03
                            -2881.95      0.03   5624.11

     exc-cor stress (kbar)  -2197.01      0.00    -10.91
                                0.00  -2217.48     -0.00
                              -10.91     -0.00  -2202.97

     corecor stress (kbar)  -1141.65     -0.00     -2.78
                               -0.00  -1143.69      0.00
                               -2.78      0.00  -1141.35

     ewald   stress (kbar)  -4104.85     -0.00  -5311.74
                               -0.00  -9445.78      0.00
                            -5311.74      0.00  -6466.90

     hubbard stress (kbar)      0.00      0.00      0.00
                                0.00      0.00      0.00
                                0.00      0.00      0.00

     london  stress (kbar)      0.00      0.00      0.00
                                0.00      0.00      0.00
                                0.00      0.00      0.00

     XDM     stress (kbar)      0.00      0.00      0.00
                                0.00      0.00      0.00
                                0.00      0.00      0.00

     dft-nl  stress (kbar)      0.00      0.00      0.00
                                0.00      0.00      0.00
                                0.00      0.00      0.00

     TS-vdW  stress (kbar)      0.00      0.00      0.00
                                0.00      0.00      0.00
                                0.00      0.00      0.00



     Writing output data file scf.pbe.ec-100.kp-444.HMX-792931.np-8.default-conv-thr.save

     init_run     :    586.18s CPU    630.00s WALL (       1 calls)
     electrons    :  21494.36s CPU  23807.73s WALL (       1 calls)
     forces       :    276.59s CPU    297.93s WALL (       1 calls)
     stress       :   1044.49s CPU   1063.98s WALL (       1 calls)

     Called by init_run:
     wfcinit      :    471.44s CPU    508.19s WALL (       1 calls)
     potinit      :     36.91s CPU     37.82s WALL (       1 calls)

     Called by electrons:
     c_bands      :  18715.66s CPU  20652.55s WALL (      17 calls)
     sum_band     :   2555.06s CPU   2897.35s WALL (      17 calls)
     v_of_rho     :     37.44s CPU     40.53s WALL (      18 calls)
     v_h          :      3.50s CPU      3.74s WALL (      18 calls)
     v_xc         :     37.80s CPU     40.89s WALL (      20 calls)
     newd         :    172.84s CPU    202.35s WALL (      18 calls)
     PAW_pot      :     12.22s CPU     13.09s WALL (      18 calls)
     mix_rho      :      8.44s CPU      8.94s WALL (      17 calls)

     Called by c_bands:
     init_us_2    :    100.83s CPU    103.87s WALL (    1184 calls)
     cegterg      :  18558.04s CPU  20462.29s WALL (     544 calls)

     Called by sum_band:
     sum_band:bec :      0.55s CPU      0.56s WALL (     544 calls)
     addusdens    :    290.76s CPU    484.16s WALL (      17 calls)

     Called by *egterg:
     h_psi        :  10163.13s CPU  11132.62s WALL (    2913 calls)
     s_psi        :   2215.59s CPU   2346.15s WALL (    2913 calls)
     g_psi        :     15.50s CPU     20.09s WALL (    2337 calls)
     cdiaghg      :    687.06s CPU    714.86s WALL (    2881 calls)
     cegterg:over :   2204.49s CPU   2529.29s WALL (    2337 calls)
     cegterg:upda :   1365.17s CPU   1419.92s WALL (    2337 calls)
     cegterg:last :    684.28s CPU    740.67s WALL (     544 calls)

     Called by h_psi:
     h_psi:vloc   :   5794.74s CPU   6379.74s WALL (    2913 calls)
     h_psi:vnl    :   4314.72s CPU   4697.40s WALL (    2913 calls)
     add_vuspsi   :   2234.09s CPU   2410.87s WALL (    2913 calls)

     General routines
     calbec       :   2952.91s CPU   3227.07s WALL (    3617 calls)
     fft          :     50.20s CPU     76.59s WALL (     309 calls)
     ffts         :      0.68s CPU      0.89s WALL (      35 calls)
     fftw         :   4058.39s CPU   4694.51s WALL (  422344 calls)
     interpolate  :      6.62s CPU      7.13s WALL (      35 calls)
     davcio       :      1.02s CPU     39.05s WALL (      32 calls)

     Parallel routines
     fft_scatter  :   1645.00s CPU   2286.28s WALL (  422688 calls)

     PAW routines
     PAW_pot      :     12.22s CPU     13.09s WALL (      18 calls)
     PAW_symme    :      0.02s CPU      0.04s WALL (      35 calls)

     PWSCF        :     6h30m CPU        7h10m WALL


   This run was terminated on:  16:19:50  25Jun2016            

=------------------------------------------------------------------------------=
   JOB DONE.
=------------------------------------------------------------------------------=
