
     Program PWSCF v.5.3.0 (svn rev. 11974) starts on 25Jun2016 at  7:18: 3 

     This program is part of the open-source Quantum ESPRESSO suite
     for quantum simulation of materials; please cite
         "P. Giannozzi et al., J. Phys.:Condens. Matter 21 395502 (2009);
          URL http://www.quantum-espresso.org", 
     in publications or presentations arising from this work. More details at
     http://www.quantum-espresso.org/quote

     Parallel version (MPI), running on     8 processors
     R & G space division:  proc/nbgrp/npool/nimage =       8
     Waiting for input...
     Reading input from standard input
Warning: card    &IONS ignored
Warning: card TRUST_RADIUS_MAX=0.2 ignored
Warning: card / ignored
Warning: card     &CELL ignored
Warning: card CELL_DYNAMICS='BFGS' ignored
Warning: card / ignored

     Current dimensions of program PWSCF are:
     Max number of different atomic species (ntypx) = 10
     Max number of k-points (npk) =  40000
     Max angular momentum in pseudopotentials (lmaxx) =  3
               file N.pbe-n-kjpaw_psl.1.0.0.UPF: wavefunction(s)  2S renormalized
               file C.pbe-n-kjpaw_psl.1.0.0.UPF: wavefunction(s)  2S 2P renormalized
               file H.pbe-kjpaw_psl.1.0.0.UPF: wavefunction(s)  1S renormalized
               file O.pbe-n-kjpaw_psl.1.0.0.UPF: wavefunction(s)  2S 2P renormalized

     Subspace diagonalization in iterative solution of the eigenvalue problem:
     a serial algorithm will be used


     Parallelization info
     --------------------
     sticks:   dense  smooth     PW     G-vecs:    dense   smooth      PW
     Min        1524     610    164               107269    27139    3816
     Max        1525     611    165               107272    27151    3817
     Sum       12193    4881   1319               858157   217169   30533


     Title: 
     HMX-scf--kp-444-ec-60-default-conv-thr                                     


     bravais-lattice index     =            0
     lattice parameter (alat)  =       1.8897  a.u.
     unit-cell volume          =    3458.1628 (a.u.)^3
     number of atoms/cell      =           56
     number of atomic types    =            4
     number of electrons       =       224.00
     number of Kohn-Sham states=          112
     kinetic-energy cutoff     =      60.0000  Ry
     charge density cutoff     =     600.0000  Ry
     convergence threshold     =      1.0E-06
     mixing beta               =       0.7000
     number of iterations used =            8  plain     mixing
     Exchange-correlation      =  SLA  PW   PBX  PBC ( 1  4  3  4 0 0)

     celldm(1)=   1.889726  celldm(2)=   0.000000  celldm(3)=   0.000000
     celldm(4)=   0.000000  celldm(5)=   0.000000  celldm(6)=   0.000000

     crystal axes: (cart. coord. in units of alat)
               a(1) = (   6.533400   0.000000   0.000000 )  
               a(2) = (   0.000000  10.941900   0.000000 )  
               a(3) = (  -1.587995   0.000000   7.168312 )  

     reciprocal axes: (cart. coord. in units 2 pi/alat)
               b(1) = (  0.153060 -0.000000  0.033907 )  
               b(2) = (  0.000000  0.091392 -0.000000 )  
               b(3) = (  0.000000  0.000000  0.139503 )  


     PseudoPot. # 1 for  N read from file:
     /users/majewski/.data/PSEUDOPOTENTIALS/N.pbe-n-kjpaw_psl.1.0.0.UPF
     MD5 check sum: c21df8f53e59d08c3548513d559cdda6
     Pseudo is Projector augmented-wave + core cor, Zval =  5.0
     Generated using "atomic" code by A. Dal Corso  v.5.3.0 svn rev. 11974
     Shape of augmentation charge: PSQ
     Using radial grid of 1085 points,  4 beta functions with: 
                l(1) =   0
                l(2) =   0
                l(3) =   1
                l(4) =   1
     Q(r) pseudized with 0 coefficients 


     PseudoPot. # 2 for  C read from file:
     /users/majewski/.data/PSEUDOPOTENTIALS/C.pbe-n-kjpaw_psl.1.0.0.UPF
     MD5 check sum: 2ba8448e293caca687844dde9a1b88a8
     Pseudo is Projector augmented-wave + core cor, Zval =  4.0
     Generated using "atomic" code by A. Dal Corso  v.5.3.0 svn rev. 11974
     Shape of augmentation charge: PSQ
     Using radial grid of 1073 points,  4 beta functions with: 
                l(1) =   0
                l(2) =   0
                l(3) =   1
                l(4) =   1
     Q(r) pseudized with 0 coefficients 


     PseudoPot. # 3 for  H read from file:
     /users/majewski/.data/PSEUDOPOTENTIALS/H.pbe-kjpaw_psl.1.0.0.UPF
     MD5 check sum: bc0feb48a24907a0b97fa6ee2d589a29
     Pseudo is Projector augmented-wave, Zval =  1.0
     Generated using "atomic" code by A. Dal Corso  v.5.3.0 svn rev. 11974
     Shape of augmentation charge: PSQ
     Using radial grid of  929 points,  2 beta functions with: 
                l(1) =   0
                l(2) =   0
     Q(r) pseudized with 0 coefficients 


     PseudoPot. # 4 for  O read from file:
     /users/majewski/.data/PSEUDOPOTENTIALS/O.pbe-n-kjpaw_psl.1.0.0.UPF
     MD5 check sum: 9c0ade6c043cf4a781bde3908a3a8206
     Pseudo is Projector augmented-wave + core cor, Zval =  6.0
     Generated using "atomic" code by A. Dal Corso  v.5.3.0 svn rev. 11974
     Shape of augmentation charge: PSQ
     Using radial grid of 1095 points,  4 beta functions with: 
                l(1) =   0
                l(2) =   0
                l(3) =   1
                l(4) =   1
     Q(r) pseudized with 0 coefficients 


     atomic species   valence    mass     pseudopotential
        N              5.00    14.00670      N( 1.00)
        C              4.00    12.01100      C( 1.00)
        H              1.00     1.00790      H( 1.00)
        O              6.00    15.99940      O( 1.00)

      4 Sym. Ops., with inversion, found ( 2 have fractional translation)


                                    s                        frac. trans.

      isym =  1     identity                                     

 cryst.   s( 1) = (     1          0          0      )
                  (     0          1          0      )
                  (     0          0          1      )

 cart.    s( 1) = (  1.0000000  0.0000000 -0.0000000 )
                  (  0.0000000  1.0000000  0.0000000 )
                  (  0.0000000  0.0000000  1.0000000 )


      isym =  2     180 deg rotation - cart. axis [0,1,0]        

 cryst.   s( 2) = (    -1          0          0      )    f =( -0.5000000 )
                  (     0          1          0      )       (  0.5000000 )
                  (     0          0         -1      )       ( -0.5000000 )

 cart.    s( 2) = ( -1.0000000  0.0000000  0.0000000 )    f =( -2.4727023 )
                  (  0.0000000  1.0000000  0.0000000 )       (  5.4709500 )
                  (  0.0000000  0.0000000 -1.0000000 )       ( -3.5841562 )


      isym =  3     inversion                                    

 cryst.   s( 3) = (    -1          0          0      )
                  (     0         -1          0      )
                  (     0          0         -1      )

 cart.    s( 3) = ( -1.0000000  0.0000000  0.0000000 )
                  (  0.0000000 -1.0000000  0.0000000 )
                  (  0.0000000  0.0000000 -1.0000000 )


      isym =  4     inv. 180 deg rotation - cart. axis [0,1,0]   

 cryst.   s( 4) = (     1          0          0      )    f =( -0.5000000 )
                  (     0         -1          0      )       (  0.5000000 )
                  (     0          0          1      )       ( -0.5000000 )

 cart.    s( 4) = (  1.0000000  0.0000000 -0.0000000 )    f =( -2.4727023 )
                  (  0.0000000 -1.0000000  0.0000000 )       (  5.4709500 )
                  (  0.0000000  0.0000000  1.0000000 )       ( -3.5841562 )


   Cartesian axes

     site n.     atom                  positions (alat units)
         1           N   tau(   1) = (   5.6814794   6.8168037   3.3020831  )
         2           O   tau(   2) = (   7.6183148   7.8804658   3.1253842  )
         3           N   tau(   3) = (   6.6082701   7.6958759   3.8021446  )
         4           N   tau(   4) = (   4.4798552   5.7522662   5.0624773  )
         5           O   tau(   5) = (   3.2857644   4.6925432   6.6169259  )
         6           N   tau(   6) = (   3.2951569   5.4937092   5.6876975  )
         7           O   tau(   7) = (   6.3726433   8.1839941   4.8967459  )
         8           C   tau(   8) = (   4.4063896   6.7367090   3.9631449  )
         9           H   tau(   9) = (   3.7167939   6.4655687   3.3210792  )
        10           H   tau(  10) = (   4.1629820   7.6155624   4.3210587  )
        11           O   tau(  11) = (   2.3219113   6.1379682   5.2879207  )
        12           C   tau(  12) = (   5.9434862   6.1864408   2.0140807  )
        13           H   tau(  13) = (   5.1221590   5.7598162   1.7254128  )
        14           H   tau(  14) = (   6.2073440   6.8277456   1.3361734  )
        15           H   tau(  15) = (   3.7346417  -1.3567956  -2.2479828  )
        16           H   tau(  16) = (   2.6494567  -0.2888662  -1.8587434  )
        17           C   tau(  17) = (   3.4707838  -0.7154908  -1.5700755  )
        18           O   tau(  18) = (  -0.1507911  -0.6670182   1.7037645  )
        19           H   tau(  19) = (   1.6902797  -2.1446124   0.7369025  )
        20           H   tau(  20) = (   1.2440915  -0.9946187  -0.2630771  )
        21           C   tau(  21) = (   1.9336873  -1.2657590   0.3789887  )
        22           O   tau(  22) = (   3.8999409  -2.7130441   1.3125897  )
        23           N   tau(  23) = (   0.8224546  -0.0227592   2.1035413  )
        24           O   tau(  24) = (   0.8130621   0.7784068   3.0327696  )
        25           N   tau(  25) = (   2.0071529  -0.2813162   1.4783211  )
        26           N   tau(  26) = (   4.1355678  -2.2249259   0.2179884  )
        27           O   tau(  27) = (   5.1456125  -2.4095158  -0.4587720  )
        28           N   tau(  28) = (   3.2087771  -1.3458537  -0.2820731  )
        29           H   tau(  29) = (   5.2714607   4.1141544   5.8321390  )
        30           H   tau(  30) = (   6.3566457   5.1820838   5.4428996  )
        31           C   tau(  31) = (   5.5353185   4.7554592   5.1542317  )
        32           O   tau(  32) = (   9.1568934   4.8039318   1.8803917  )
        33           H   tau(  33) = (   7.3158227   3.3263376   2.8472537  )
        34           H   tau(  34) = (   7.7620108   4.4763313   3.8472333  )
        35           C   tau(  35) = (   7.0724151   4.2051910   3.2051675  )
        36           O   tau(  36) = (   5.1061614   2.7579059   2.2715665  )
        37           N   tau(  37) = (   8.1836478   5.4481908   1.4806149  )
        38           O   tau(  38) = (   8.1930402   6.2493568   0.5513866  )
        39           N   tau(  39) = (   6.9989495   5.1896338   2.1058351  )
        40           N   tau(  40) = (   4.8705346   3.2460241   3.3661678  )
        41           O   tau(  41) = (   3.8604898   3.0614342   4.0429282  )
        42           N   tau(  42) = (   5.7973253   4.1250963   3.8662293  )
        43           H   tau(  43) = (   2.7987583   1.3567956   2.2479828  )
        44           H   tau(  44) = (   3.8839433   0.2888662   1.8587434  )
        45           C   tau(  45) = (   3.0626162   0.7154908   1.5700755  )
        46           O   tau(  46) = (   6.6841911   0.6670182  -1.7037645  )
        47           H   tau(  47) = (   4.8431203   2.1446124  -0.7369025  )
        48           H   tau(  48) = (   5.2893085   0.9946187   0.2630771  )
        49           C   tau(  49) = (   4.5997127   1.2657590  -0.3789887  )
        50           O   tau(  50) = (   2.6334591   2.7130441  -1.3125897  )
        51           N   tau(  51) = (   5.7109454   0.0227592  -2.1035413  )
        52           O   tau(  52) = (   5.7203379  -0.7784068  -3.0327696  )
        53           N   tau(  53) = (   4.5262471   0.2813162  -1.4783211  )
        54           N   tau(  54) = (   2.3978322   2.2249259  -0.2179884  )
        55           O   tau(  55) = (   1.3877875   2.4095158   0.4587720  )
        56           N   tau(  56) = (   3.3246229   1.3458537   0.2820731  )

   Crystallographic axes

     site n.     atom                  positions (cryst. coord.)
         1           N   tau(   1) = (  0.9815700  0.6230000  0.4606500  )
         2           O   tau(   2) = (  1.2720300  0.7202100  0.4360000  )
         3           N   tau(   3) = (  1.1403800  0.7033400  0.5304100  )
         4           N   tau(   4) = (  0.8573400  0.5257100  0.7062300  )
         5           O   tau(   5) = (  0.7272800  0.4288600  0.9230800  )
         6           N   tau(   6) = (  0.6972100  0.5020800  0.7934500  )
         7           O   tau(   7) = (  1.1414300  0.7479500  0.6831100  )
         8           C   tau(   8) = (  0.8088200  0.6156800  0.5528700  )
         9           H   tau(   9) = (  0.6815000  0.5909000  0.4633000  )
        10           H   tau(  10) = (  0.7837000  0.6960000  0.6028000  )
        11           O   tau(  11) = (  0.5346900  0.5609600  0.7376800  )
        12           C   tau(  12) = (  0.9780000  0.5653900  0.2809700  )
        13           H   tau(  13) = (  0.8425000  0.5264000  0.2407000  )
        14           H   tau(  14) = (  0.9954000  0.6240000  0.1864000  )
        15           H   tau(  15) = (  0.4954000 -0.1240000 -0.3136000  )
        16           H   tau(  16) = (  0.3425000 -0.0264000 -0.2593000  )
        17           C   tau(  17) = (  0.4780000 -0.0653900 -0.2190300  )
        18           O   tau(  18) = (  0.0346900 -0.0609600  0.2376800  )
        19           H   tau(  19) = (  0.2837000 -0.1960000  0.1028000  )
        20           H   tau(  20) = (  0.1815000 -0.0909000 -0.0367000  )
        21           C   tau(  21) = (  0.3088200 -0.1156800  0.0528700  )
        22           O   tau(  22) = (  0.6414300 -0.2479500  0.1831100  )
        23           N   tau(  23) = (  0.1972100 -0.0020800  0.2934500  )
        24           O   tau(  24) = (  0.2272800  0.0711400  0.4230800  )
        25           N   tau(  25) = (  0.3573400 -0.0257100  0.2062300  )
        26           N   tau(  26) = (  0.6403800 -0.2033400  0.0304100  )
        27           O   tau(  27) = (  0.7720300 -0.2202100 -0.0640000  )
        28           N   tau(  28) = (  0.4815700 -0.1230000 -0.0393500  )
        29           H   tau(  29) = (  1.0046000  0.3760000  0.8136000  )
        30           H   tau(  30) = (  1.1575000  0.4736000  0.7593000  )
        31           C   tau(  31) = (  1.0220000  0.4346100  0.7190300  )
        32           O   tau(  32) = (  1.4653100  0.4390400  0.2623200  )
        33           H   tau(  33) = (  1.2163000  0.3040000  0.3972000  )
        34           H   tau(  34) = (  1.3185000  0.4091000  0.5367000  )
        35           C   tau(  35) = (  1.1911800  0.3843200  0.4471300  )
        36           O   tau(  36) = (  0.8585700  0.2520500  0.3168900  )
        37           N   tau(  37) = (  1.3027900  0.4979200  0.2065500  )
        38           O   tau(  38) = (  1.2727200  0.5711400  0.0769200  )
        39           N   tau(  39) = (  1.1426600  0.4742900  0.2937700  )
        40           N   tau(  40) = (  0.8596200  0.2966600  0.4695900  )
        41           O   tau(  41) = (  0.7279700  0.2797900  0.5640000  )
        42           N   tau(  42) = (  1.0184300  0.3770000  0.5393500  )
        43           H   tau(  43) = (  0.5046000  0.1240000  0.3136000  )
        44           H   tau(  44) = (  0.6575000  0.0264000  0.2593000  )
        45           C   tau(  45) = (  0.5220000  0.0653900  0.2190300  )
        46           O   tau(  46) = (  0.9653100  0.0609600 -0.2376800  )
        47           H   tau(  47) = (  0.7163000  0.1960000 -0.1028000  )
        48           H   tau(  48) = (  0.8185000  0.0909000  0.0367000  )
        49           C   tau(  49) = (  0.6911800  0.1156800 -0.0528700  )
        50           O   tau(  50) = (  0.3585700  0.2479500 -0.1831100  )
        51           N   tau(  51) = (  0.8027900  0.0020800 -0.2934500  )
        52           O   tau(  52) = (  0.7727200 -0.0711400 -0.4230800  )
        53           N   tau(  53) = (  0.6426600  0.0257100 -0.2062300  )
        54           N   tau(  54) = (  0.3596200  0.2033400 -0.0304100  )
        55           O   tau(  55) = (  0.2279700  0.2202100  0.0640000  )
        56           N   tau(  56) = (  0.5184300  0.1230000  0.0393500  )

     number of k points=    16
                       cart. coord. in units 2pi/alat
        k(    1) = (   0.0191325   0.0114240   0.0216763), wk =   0.1250000
        k(    2) = (   0.0191325   0.0114240   0.0565520), wk =   0.1250000
        k(    3) = (   0.0191325   0.0114240  -0.0480752), wk =   0.1250000
        k(    4) = (   0.0191325   0.0114240  -0.0131994), wk =   0.1250000
        k(    5) = (   0.0191325   0.0342719   0.0216763), wk =   0.1250000
        k(    6) = (   0.0191325   0.0342719   0.0565520), wk =   0.1250000
        k(    7) = (   0.0191325   0.0342719  -0.0480752), wk =   0.1250000
        k(    8) = (   0.0191325   0.0342719  -0.0131994), wk =   0.1250000
        k(    9) = (   0.0573974   0.0114240   0.0301531), wk =   0.1250000
        k(   10) = (   0.0573974   0.0114240   0.0650288), wk =   0.1250000
        k(   11) = (   0.0573974   0.0114240  -0.0395983), wk =   0.1250000
        k(   12) = (   0.0573974   0.0114240  -0.0047226), wk =   0.1250000
        k(   13) = (   0.0573974   0.0342719   0.0301531), wk =   0.1250000
        k(   14) = (   0.0573974   0.0342719   0.0650288), wk =   0.1250000
        k(   15) = (   0.0573974   0.0342719  -0.0395983), wk =   0.1250000
        k(   16) = (   0.0573974   0.0342719  -0.0047226), wk =   0.1250000

                       cryst. coord.
        k(    1) = (   0.1250000   0.1250000   0.1250000), wk =   0.1250000
        k(    2) = (   0.1250000   0.1250000   0.3750000), wk =   0.1250000
        k(    3) = (   0.1250000   0.1250000  -0.3750000), wk =   0.1250000
        k(    4) = (   0.1250000   0.1250000  -0.1250000), wk =   0.1250000
        k(    5) = (   0.1250000   0.3750000   0.1250000), wk =   0.1250000
        k(    6) = (   0.1250000   0.3750000   0.3750000), wk =   0.1250000
        k(    7) = (   0.1250000   0.3750000  -0.3750000), wk =   0.1250000
        k(    8) = (   0.1250000   0.3750000  -0.1250000), wk =   0.1250000
        k(    9) = (   0.3750000   0.1250000   0.1250000), wk =   0.1250000
        k(   10) = (   0.3750000   0.1250000   0.3750000), wk =   0.1250000
        k(   11) = (   0.3750000   0.1250000  -0.3750000), wk =   0.1250000
        k(   12) = (   0.3750000   0.1250000  -0.1250000), wk =   0.1250000
        k(   13) = (   0.3750000   0.3750000   0.1250000), wk =   0.1250000
        k(   14) = (   0.3750000   0.3750000   0.3750000), wk =   0.1250000
        k(   15) = (   0.3750000   0.3750000  -0.3750000), wk =   0.1250000
        k(   16) = (   0.3750000   0.3750000  -0.1250000), wk =   0.1250000

     Dense  grid:   858157 G-vectors     FFT dimensions: ( 100, 162, 120)

     Smooth grid:   217169 G-vectors     FFT dimensions: (  64, 108,  72)

     Largest allocated arrays     est. size (Mb)     dimensions
        Kohn-Sham Wavefunctions         5.80 Mb     (    3395,  112)
        NL pseudopotentials            18.23 Mb     (    3395,  352)
        Each V/rho on FFT grid          3.71 Mb     (  243000)
        Each G-vector array             0.82 Mb     (  107270)
        G-vector shells                 0.74 Mb     (   97566)
     Largest temporary arrays     est. size (Mb)     dimensions
        Auxiliary wavefunctions        23.21 Mb     (    3395,  448)
        Each subspace H/S matrix        3.06 Mb     (     448,  448)
        Each <psi_i|beta_j> matrix      0.60 Mb     (     352,  112)
        Arrays for rho mixing          29.66 Mb     (  243000,    8)

     Check: negative/imaginary core charge=   -0.000001    0.000000

     Initial potential from superposition of free atoms

     starting charge  223.99937, renormalised to  224.00000
     Starting wfc are  176 randomized atomic wfcs
     Checking if some PAW data can be deallocated... 
       node    0, deallocated PAW data for type:  2
       node    0, deallocated PAW data for type:  3
       node    1, deallocated PAW data for type:  1
       node    2, deallocated PAW data for type:  1
       node    3, deallocated PAW data for type:  2
       node    3, deallocated PAW data for type:  3
       node    4, deallocated PAW data for type:  1
       node    5, deallocated PAW data for type:  2
       node    5, deallocated PAW data for type:  3
       node    6, deallocated PAW data for type:  1
       node    7, deallocated PAW data for type:  2
       node    7, deallocated PAW data for type:  3

     total cpu time spent up to now is      189.4 secs

     per-process dynamical memory:   188.4 Mb

     Self-consistent Calculation

     iteration #  1     ecut=    60.00 Ry     beta=0.70
     Davidson diagonalization with overlap
     ethr =  1.00E-02,  avg # of iterations =  3.0

     total cpu time spent up to now is      525.6 secs

     total energy              =   -1279.40807340 Ry
     Harris-Foulkes estimate   =   -1283.84652346 Ry
     estimated scf accuracy    <       6.81172322 Ry

     iteration #  2     ecut=    60.00 Ry     beta=0.70
     Davidson diagonalization with overlap
     ethr =  3.04E-03,  avg # of iterations =  4.0

     total cpu time spent up to now is      968.4 secs

     total energy              =   -1280.17566693 Ry
     Harris-Foulkes estimate   =   -1283.92739618 Ry
     estimated scf accuracy    <       7.66469857 Ry

     iteration #  3     ecut=    60.00 Ry     beta=0.70
     Davidson diagonalization with overlap
     ethr =  3.04E-03,  avg # of iterations =  4.0

     total cpu time spent up to now is     1314.8 secs

     total energy              =   -1281.79894326 Ry
     Harris-Foulkes estimate   =   -1282.04892359 Ry
     estimated scf accuracy    <       0.46304492 Ry

     iteration #  4     ecut=    60.00 Ry     beta=0.70
     Davidson diagonalization with overlap
     ethr =  2.07E-04,  avg # of iterations =  5.0

     total cpu time spent up to now is     1905.1 secs

     total energy              =   -1281.93473595 Ry
     Harris-Foulkes estimate   =   -1282.04141343 Ry
     estimated scf accuracy    <       0.24620059 Ry

     iteration #  5     ecut=    60.00 Ry     beta=0.70
     Davidson diagonalization with overlap
     ethr =  1.10E-04,  avg # of iterations =  4.0

     total cpu time spent up to now is     2322.8 secs

     total energy              =   -1281.98285674 Ry
     Harris-Foulkes estimate   =   -1281.99052303 Ry
     estimated scf accuracy    <       0.01775317 Ry

     iteration #  6     ecut=    60.00 Ry     beta=0.70
     Davidson diagonalization with overlap
     ethr =  7.93E-06,  avg # of iterations =  5.1

     total cpu time spent up to now is     2732.5 secs

     total energy              =   -1281.98649022 Ry
     Harris-Foulkes estimate   =   -1281.98917045 Ry
     estimated scf accuracy    <       0.00661167 Ry

     iteration #  7     ecut=    60.00 Ry     beta=0.70
     Davidson diagonalization with overlap
     ethr =  2.95E-06,  avg # of iterations =  6.1

     total cpu time spent up to now is     3076.8 secs

     total energy              =   -1281.98776070 Ry
     Harris-Foulkes estimate   =   -1281.98782983 Ry
     estimated scf accuracy    <       0.00016936 Ry

     iteration #  8     ecut=    60.00 Ry     beta=0.70
     Davidson diagonalization with overlap
     ethr =  7.56E-08,  avg # of iterations =  5.0

     total cpu time spent up to now is     3616.5 secs

     total energy              =   -1281.98794764 Ry
     Harris-Foulkes estimate   =   -1281.98802692 Ry
     estimated scf accuracy    <       0.00024282 Ry

     iteration #  9     ecut=    60.00 Ry     beta=0.70
     Davidson diagonalization with overlap
     ethr =  7.56E-08,  avg # of iterations =  5.6

     total cpu time spent up to now is     3884.3 secs

     total energy              =   -1281.98793491 Ry
     Harris-Foulkes estimate   =   -1281.98796158 Ry
     estimated scf accuracy    <       0.00006387 Ry

     iteration # 10     ecut=    60.00 Ry     beta=0.70
     Davidson diagonalization with overlap
     ethr =  2.85E-08,  avg # of iterations =  4.3

     total cpu time spent up to now is     4330.3 secs

     total energy              =   -1281.98797002 Ry
     Harris-Foulkes estimate   =   -1281.98799174 Ry
     estimated scf accuracy    <       0.00008291 Ry

     iteration # 11     ecut=    60.00 Ry     beta=0.70
     Davidson diagonalization with overlap
     ethr =  2.85E-08,  avg # of iterations =  1.0

     total cpu time spent up to now is     4559.2 secs

     total energy              =   -1281.98793996 Ry
     Harris-Foulkes estimate   =   -1281.98797112 Ry
     estimated scf accuracy    <       0.00004792 Ry

     iteration # 12     ecut=    60.00 Ry     beta=0.70
     Davidson diagonalization with overlap
     ethr =  2.14E-08,  avg # of iterations =  5.0

     total cpu time spent up to now is     5043.9 secs

     total energy              =   -1281.98796306 Ry
     Harris-Foulkes estimate   =   -1281.98800459 Ry
     estimated scf accuracy    <       0.00015025 Ry

     iteration # 13     ecut=    60.00 Ry     beta=0.70
     Davidson diagonalization with overlap
     ethr =  2.14E-08,  avg # of iterations =  5.3

     total cpu time spent up to now is     5309.4 secs

     total energy              =   -1281.98795675 Ry
     Harris-Foulkes estimate   =   -1281.98796852 Ry
     estimated scf accuracy    <       0.00005318 Ry

     iteration # 14     ecut=    60.00 Ry     beta=0.70
     Davidson diagonalization with overlap
     ethr =  2.14E-08,  avg # of iterations =  4.2

     total cpu time spent up to now is     5660.5 secs

     total energy              =   -1281.98797462 Ry
     Harris-Foulkes estimate   =   -1281.98797488 Ry
     estimated scf accuracy    <       0.00000160 Ry

     iteration # 15     ecut=    60.00 Ry     beta=0.70
     Davidson diagonalization with overlap
     ethr =  7.15E-10,  avg # of iterations =  3.3

     total cpu time spent up to now is     5934.1 secs

     total energy              =   -1281.98797444 Ry
     Harris-Foulkes estimate   =   -1281.98797487 Ry
     estimated scf accuracy    <       0.00000139 Ry

     iteration # 16     ecut=    60.00 Ry     beta=0.70
     Davidson diagonalization with overlap
     ethr =  6.20E-10,  avg # of iterations =  4.3

     total cpu time spent up to now is     6247.6 secs

     End of self-consistent calculation

          k = 0.0191 0.0114 0.0217 ( 27124 PWs)   bands (ev):

   -23.9160 -23.8941 -23.8833 -23.8735 -23.5793 -23.5692 -23.5680 -23.5665
   -19.1311 -19.1255 -19.1190 -19.1063 -18.7886 -18.7881 -18.7852 -18.7839
   -18.2230 -18.1961 -17.1920 -17.1403 -17.0471 -17.0443 -16.0265 -16.0132
   -12.0797 -12.0749 -12.0683 -11.9564 -11.8963 -11.8195 -11.7497 -11.7277
    -8.8632  -8.8227  -8.2589  -8.2223  -7.5381  -7.4949  -7.4198  -7.4195
    -6.8327  -6.7298  -6.5786  -6.5002  -6.4799  -6.3855  -6.3316  -6.2432
    -6.1080  -6.0770  -6.0482  -5.9154  -5.8695  -5.7920  -5.7230  -5.6859
    -5.6326  -5.6096  -5.5278  -5.4897  -5.1195  -5.0045  -4.9123  -4.9029
    -4.4346  -4.4194  -4.3887  -4.3432  -4.2097  -4.1079  -3.8566  -3.8490
    -3.6850  -3.5623  -3.5054  -3.4664  -3.1597  -3.1157  -3.0401  -3.0184
    -0.7723  -0.7686  -0.2993  -0.2940  -0.1942  -0.1432  -0.0783  -0.0525
     0.0042   0.0294   0.1911   0.2238   0.2384   0.2691   0.3952   0.4096
     0.4562   0.4776   0.6469   0.7053   0.7881   0.8441   0.8948   0.9118
     0.9482   1.0497   1.0812   1.1434   1.2179   1.3597   1.3804   1.4021

     occupation numbers 
     1.0000   1.0000   1.0000   1.0000   1.0000   1.0000   1.0000   1.0000
     1.0000   1.0000   1.0000   1.0000   1.0000   1.0000   1.0000   1.0000
     1.0000   1.0000   1.0000   1.0000   1.0000   1.0000   1.0000   1.0000
     1.0000   1.0000   1.0000   1.0000   1.0000   1.0000   1.0000   1.0000
     1.0000   1.0000   1.0000   1.0000   1.0000   1.0000   1.0000   1.0000
     1.0000   1.0000   1.0000   1.0000   1.0000   1.0000   1.0000   1.0000
     1.0000   1.0000   1.0000   1.0000   1.0000   1.0000   1.0000   1.0000
     1.0000   1.0000   1.0000   1.0000   1.0000   1.0000   1.0000   1.0000
     1.0000   1.0000   1.0000   1.0000   1.0000   1.0000   1.0000   1.0000
     1.0000   1.0000   1.0000   1.0000   1.0000   1.0000   1.0000   1.0000
     1.0000   1.0000   1.0000   1.0000   1.0000   1.0000   1.0000   1.0000
     1.0000   1.0000   1.0000   1.0000   1.0000   1.0000   1.0000   1.0000
     1.0000   1.0000   1.0000   1.0000   1.0000   1.0000   1.0000   1.0000
     1.0000   1.0000   1.0000   1.0000   1.0000   1.0000   1.0000   1.0000

          k = 0.0191 0.0114 0.0566 ( 27123 PWs)   bands (ev):

   -23.9082 -23.8996 -23.8795 -23.8784 -23.5796 -23.5763 -23.5660 -23.5623
   -19.1296 -19.1247 -19.1196 -19.1096 -18.7944 -18.7937 -18.7802 -18.7781
   -18.2113 -18.2107 -17.1673 -17.1647 -17.0420 -17.0391 -16.0222 -16.0203
   -12.0841 -12.0798 -12.0236 -12.0021 -11.8530 -11.8403 -11.7584 -11.7478
    -8.8434  -8.8071  -8.2420  -8.2163  -7.5487  -7.4973  -7.4013  -7.3232
    -6.8814  -6.7559  -6.5694  -6.5318  -6.5195  -6.4072  -6.3551  -6.3195
    -6.1626  -6.1383  -5.9268  -5.8761  -5.8618  -5.7996  -5.7711  -5.7351
    -5.6849  -5.6319  -5.4496  -5.4048  -5.1228  -5.0436  -4.9099  -4.8727
    -4.3901  -4.3816  -4.3370  -4.2565  -4.1324  -4.1053  -3.9700  -3.9675
    -3.6635  -3.6095  -3.4462  -3.4346  -3.1822  -3.1771  -3.0221  -2.9951
    -0.7372  -0.7060  -0.3127  -0.3015  -0.2020  -0.1658  -0.1169  -0.0848
    -0.0549  -0.0157   0.0964   0.1580   0.2599   0.3112   0.3652   0.3786
     0.5609   0.6197   0.6723   0.7101   0.8002   0.8141   0.8543   0.9086
     1.0024   1.0487   1.1193   1.1411   1.2354   1.3102   1.3831   1.4061

     occupation numbers 
     1.0000   1.0000   1.0000   1.0000   1.0000   1.0000   1.0000   1.0000
     1.0000   1.0000   1.0000   1.0000   1.0000   1.0000   1.0000   1.0000
     1.0000   1.0000   1.0000   1.0000   1.0000   1.0000   1.0000   1.0000
     1.0000   1.0000   1.0000   1.0000   1.0000   1.0000   1.0000   1.0000
     1.0000   1.0000   1.0000   1.0000   1.0000   1.0000   1.0000   1.0000
     1.0000   1.0000   1.0000   1.0000   1.0000   1.0000   1.0000   1.0000
     1.0000   1.0000   1.0000   1.0000   1.0000   1.0000   1.0000   1.0000
     1.0000   1.0000   1.0000   1.0000   1.0000   1.0000   1.0000   1.0000
     1.0000   1.0000   1.0000   1.0000   1.0000   1.0000   1.0000   1.0000
     1.0000   1.0000   1.0000   1.0000   1.0000   1.0000   1.0000   1.0000
     1.0000   1.0000   1.0000   1.0000   1.0000   1.0000   1.0000   1.0000
     1.0000   1.0000   1.0000   1.0000   1.0000   1.0000   1.0000   1.0000
     1.0000   1.0000   1.0000   1.0000   1.0000   1.0000   1.0000   1.0000
     1.0000   1.0000   1.0000   1.0000   1.0000   1.0000   1.0000   1.0000

          k = 0.0191 0.0114-0.0481 ( 27177 PWs)   bands (ev):

   -23.9094 -23.8987 -23.8833 -23.8743 -23.5811 -23.5781 -23.5632 -23.5618
   -19.1270 -19.1258 -19.1158 -19.1151 -18.7958 -18.7954 -18.7784 -18.7767
   -18.2233 -18.1973 -17.1897 -17.1420 -17.0446 -17.0427 -16.0260 -16.0098
   -12.0996 -12.0783 -12.0522 -11.9688 -11.8802 -11.8080 -11.7604 -11.7488
    -8.8528  -8.7675  -8.2296  -8.2248  -7.5438  -7.5274  -7.4132  -7.2966
    -6.8925  -6.7795  -6.5660  -6.5342  -6.4801  -6.4577  -6.3660  -6.3318
    -6.1883  -6.1584  -5.9273  -5.8986  -5.8020  -5.7660  -5.7535  -5.7378
    -5.6877  -5.6181  -5.4557  -5.3989  -5.1173  -5.0420  -4.8967  -4.8667
    -4.4236  -4.3519  -4.3170  -4.2533  -4.1703  -4.1221  -3.9784  -3.9236
    -3.6662  -3.6147  -3.4986  -3.4159  -3.1898  -3.1634  -3.0160  -3.0033
    -0.6712  -0.6124  -0.3016  -0.2923  -0.2591  -0.2254  -0.1526  -0.1314
    -0.0708  -0.0600   0.0625   0.1496   0.2758   0.3156   0.3221   0.3706
     0.6005   0.6856   0.7076   0.7252   0.7667   0.8647   0.8663   0.8912
     1.0019   1.0559   1.1254   1.1798   1.2446   1.2746   1.3697   1.3924

     occupation numbers 
     1.0000   1.0000   1.0000   1.0000   1.0000   1.0000   1.0000   1.0000
     1.0000   1.0000   1.0000   1.0000   1.0000   1.0000   1.0000   1.0000
     1.0000   1.0000   1.0000   1.0000   1.0000   1.0000   1.0000   1.0000
     1.0000   1.0000   1.0000   1.0000   1.0000   1.0000   1.0000   1.0000
     1.0000   1.0000   1.0000   1.0000   1.0000   1.0000   1.0000   1.0000
     1.0000   1.0000   1.0000   1.0000   1.0000   1.0000   1.0000   1.0000
     1.0000   1.0000   1.0000   1.0000   1.0000   1.0000   1.0000   1.0000
     1.0000   1.0000   1.0000   1.0000   1.0000   1.0000   1.0000   1.0000
     1.0000   1.0000   1.0000   1.0000   1.0000   1.0000   1.0000   1.0000
     1.0000   1.0000   1.0000   1.0000   1.0000   1.0000   1.0000   1.0000
     1.0000   1.0000   1.0000   1.0000   1.0000   1.0000   1.0000   1.0000
     1.0000   1.0000   1.0000   1.0000   1.0000   1.0000   1.0000   1.0000
     1.0000   1.0000   1.0000   1.0000   1.0000   1.0000   1.0000   1.0000
     1.0000   1.0000   1.0000   1.0000   1.0000   1.0000   1.0000   1.0000

          k = 0.0191 0.0114-0.0132 ( 27143 PWs)   bands (ev):

   -23.9166 -23.8942 -23.8843 -23.8717 -23.5813 -23.5728 -23.5649 -23.5640
   -19.1300 -19.1243 -19.1191 -19.1088 -18.7920 -18.7919 -18.7810 -18.7808
   -18.2276 -18.1900 -17.2012 -17.1307 -17.0493 -17.0483 -16.0270 -16.0061
   -12.1047 -12.0748 -12.0651 -11.9518 -11.8971 -11.8080 -11.7490 -11.7293
    -8.8744  -8.7814  -8.2518  -8.2258  -7.5433  -7.5195  -7.4550  -7.3671
    -6.8010  -6.7885  -6.5752  -6.4867  -6.4817  -6.4304  -6.3357  -6.2628
    -6.1577  -6.1143  -5.9708  -5.9205  -5.8342  -5.7899  -5.7041  -5.6785
    -5.6431  -5.6019  -5.5052  -5.4930  -5.0855  -5.0397  -4.9088  -4.8746
    -4.4354  -4.4127  -4.3835  -4.3618  -4.2180  -4.1162  -3.8669  -3.8055
    -3.7148  -3.5715  -3.5188  -3.4643  -3.1659  -3.1106  -3.0320  -3.0262
    -0.7241  -0.7022  -0.2883  -0.2831  -0.1951  -0.1622  -0.0875  -0.0706
    -0.0566  -0.0172   0.0848   0.1517   0.2083   0.2869   0.3392   0.4101
     0.5737   0.6153   0.6435   0.7274   0.7798   0.8461   0.9061   0.9235
     0.9545   1.0286   1.1048   1.1694   1.2137   1.3405   1.3675   1.3904

     occupation numbers 
     1.0000   1.0000   1.0000   1.0000   1.0000   1.0000   1.0000   1.0000
     1.0000   1.0000   1.0000   1.0000   1.0000   1.0000   1.0000   1.0000
     1.0000   1.0000   1.0000   1.0000   1.0000   1.0000   1.0000   1.0000
     1.0000   1.0000   1.0000   1.0000   1.0000   1.0000   1.0000   1.0000
     1.0000   1.0000   1.0000   1.0000   1.0000   1.0000   1.0000   1.0000
     1.0000   1.0000   1.0000   1.0000   1.0000   1.0000   1.0000   1.0000
     1.0000   1.0000   1.0000   1.0000   1.0000   1.0000   1.0000   1.0000
     1.0000   1.0000   1.0000   1.0000   1.0000   1.0000   1.0000   1.0000
     1.0000   1.0000   1.0000   1.0000   1.0000   1.0000   1.0000   1.0000
     1.0000   1.0000   1.0000   1.0000   1.0000   1.0000   1.0000   1.0000
     1.0000   1.0000   1.0000   1.0000   1.0000   1.0000   1.0000   1.0000
     1.0000   1.0000   1.0000   1.0000   1.0000   1.0000   1.0000   1.0000
     1.0000   1.0000   1.0000   1.0000   1.0000   1.0000   1.0000   1.0000
     1.0000   1.0000   1.0000   1.0000   1.0000   1.0000   1.0000   1.0000

          k = 0.0191 0.0343 0.0217 ( 27133 PWs)   bands (ev):

   -23.9109 -23.9025 -23.8785 -23.8752 -23.5759 -23.5714 -23.5679 -23.5676
   -19.1308 -19.1291 -19.1133 -19.1087 -18.7885 -18.7883 -18.7847 -18.7842
   -18.2153 -18.2042 -17.1768 -17.1554 -17.0462 -17.0450 -16.0226 -16.0170
   -12.0764 -12.0755 -12.0477 -12.0060 -11.8578 -11.8316 -11.7433 -11.7341
    -8.8524  -8.8356  -8.2489  -8.2337  -7.5298  -7.5115  -7.4114  -7.4113
    -6.8107  -6.7646  -6.5259  -6.4942  -6.4889  -6.4354  -6.3064  -6.2769
    -6.1209  -6.1000  -5.9682  -5.9288  -5.8710  -5.8305  -5.7359  -5.7203
    -5.5957  -5.5807  -5.5077  -5.4872  -5.0742  -5.0065  -4.9595  -4.9346
    -4.4420  -4.4332  -4.3520  -4.3322  -4.1922  -4.1417  -3.8512  -3.8449
    -3.6507  -3.5969  -3.4948  -3.4754  -3.1507  -3.1333  -3.0297  -3.0217
    -0.7678  -0.7658  -0.2910  -0.2822  -0.2074  -0.1731  -0.0971  -0.0905
     0.0371   0.0452   0.2171   0.2267   0.2601   0.2675   0.4123   0.4212
     0.4315   0.4638   0.6584   0.6880   0.7750   0.7978   0.9131   0.9342
     0.9725   1.0195   1.1084   1.1317   1.2576   1.3148   1.3904   1.3971

     occupation numbers 
     1.0000   1.0000   1.0000   1.0000   1.0000   1.0000   1.0000   1.0000
     1.0000   1.0000   1.0000   1.0000   1.0000   1.0000   1.0000   1.0000
     1.0000   1.0000   1.0000   1.0000   1.0000   1.0000   1.0000   1.0000
     1.0000   1.0000   1.0000   1.0000   1.0000   1.0000   1.0000   1.0000
     1.0000   1.0000   1.0000   1.0000   1.0000   1.0000   1.0000   1.0000
     1.0000   1.0000   1.0000   1.0000   1.0000   1.0000   1.0000   1.0000
     1.0000   1.0000   1.0000   1.0000   1.0000   1.0000   1.0000   1.0000
     1.0000   1.0000   1.0000   1.0000   1.0000   1.0000   1.0000   1.0000
     1.0000   1.0000   1.0000   1.0000   1.0000   1.0000   1.0000   1.0000
     1.0000   1.0000   1.0000   1.0000   1.0000   1.0000   1.0000   1.0000
     1.0000   1.0000   1.0000   1.0000   1.0000   1.0000   1.0000   1.0000
     1.0000   1.0000   1.0000   1.0000   1.0000   1.0000   1.0000   1.0000
     1.0000   1.0000   1.0000   1.0000   1.0000   1.0000   1.0000   1.0000
     1.0000   1.0000   1.0000   1.0000   1.0000   1.0000   1.0000   1.0000

          k = 0.0191 0.0343 0.0566 ( 27155 PWs)   bands (ev):

   -23.9054 -23.9018 -23.8797 -23.8791 -23.5781 -23.5767 -23.5654 -23.5638
   -19.1295 -19.1280 -19.1148 -19.1113 -18.7942 -18.7939 -18.7796 -18.7788
   -18.2111 -18.2109 -17.1669 -17.1658 -17.0408 -17.0396 -16.0217 -16.0209
   -12.0821 -12.0800 -12.0205 -12.0111 -11.8460 -11.8403 -11.7567 -11.7522
    -8.8330  -8.8179  -8.2350  -8.2243  -7.5325  -7.5117  -7.3776  -7.3463
    -6.8616  -6.8154  -6.5532  -6.5413  -6.4691  -6.4209  -6.3652  -6.3437
    -6.1218  -6.0907  -5.9478  -5.8969  -5.8420  -5.8081  -5.7734  -5.7569
    -5.6743  -5.6388  -5.4567  -5.4345  -5.0586  -5.0055  -4.9607  -4.9214
    -4.3660  -4.3487  -4.3277  -4.2877  -4.1332  -4.1212  -3.9687  -3.9676
    -3.6417  -3.6188  -3.4450  -3.4395  -3.1772  -3.1731  -3.0213  -3.0085
    -0.7269  -0.7140  -0.3046  -0.2957  -0.2136  -0.1860  -0.1266  -0.1087
    -0.0295  -0.0127   0.1459   0.1664   0.2651   0.2901   0.3565   0.3695
     0.5779   0.6035   0.6837   0.7013   0.8053   0.8208   0.8532   0.8905
     1.0071   1.0311   1.1302   1.1387   1.2614   1.2915   1.3887   1.3981

     occupation numbers 
     1.0000   1.0000   1.0000   1.0000   1.0000   1.0000   1.0000   1.0000
     1.0000   1.0000   1.0000   1.0000   1.0000   1.0000   1.0000   1.0000
     1.0000   1.0000   1.0000   1.0000   1.0000   1.0000   1.0000   1.0000
     1.0000   1.0000   1.0000   1.0000   1.0000   1.0000   1.0000   1.0000
     1.0000   1.0000   1.0000   1.0000   1.0000   1.0000   1.0000   1.0000
     1.0000   1.0000   1.0000   1.0000   1.0000   1.0000   1.0000   1.0000
     1.0000   1.0000   1.0000   1.0000   1.0000   1.0000   1.0000   1.0000
     1.0000   1.0000   1.0000   1.0000   1.0000   1.0000   1.0000   1.0000
     1.0000   1.0000   1.0000   1.0000   1.0000   1.0000   1.0000   1.0000
     1.0000   1.0000   1.0000   1.0000   1.0000   1.0000   1.0000   1.0000
     1.0000   1.0000   1.0000   1.0000   1.0000   1.0000   1.0000   1.0000
     1.0000   1.0000   1.0000   1.0000   1.0000   1.0000   1.0000   1.0000
     1.0000   1.0000   1.0000   1.0000   1.0000   1.0000   1.0000   1.0000
     1.0000   1.0000   1.0000   1.0000   1.0000   1.0000   1.0000   1.0000

          k = 0.0191 0.0343-0.0481 ( 27135 PWs)   bands (ev):

   -23.9065 -23.9021 -23.8804 -23.8768 -23.5799 -23.5785 -23.5631 -23.5625
   -19.1276 -19.1271 -19.1146 -19.1144 -18.7957 -18.7955 -18.7779 -18.7772
   -18.2159 -18.2051 -17.1758 -17.1560 -17.0439 -17.0431 -16.0211 -16.0144
   -12.0933 -12.0848 -12.0347 -12.0032 -11.8487 -11.8216 -11.7572 -11.7522
    -8.8289  -8.7936  -8.2296  -8.2273  -7.5352  -7.5296  -7.3822  -7.3328
    -6.8579  -6.8103  -6.5712  -6.5448  -6.4671  -6.4535  -6.3972  -6.3767
    -6.1008  -6.0848  -5.9633  -5.9360  -5.7955  -5.7779  -5.7554  -5.7310
    -5.6773  -5.6394  -5.4467  -5.4171  -5.0898  -5.0372  -4.9220  -4.8880
    -4.4089  -4.3782  -4.2763  -4.2513  -4.1659  -4.1449  -3.9624  -3.9399
    -3.6434  -3.6218  -3.4750  -3.4406  -3.1767  -3.1644  -3.0211  -3.0165
    -0.6547  -0.6307  -0.3017  -0.2960  -0.2290  -0.2113  -0.1771  -0.1541
    -0.0835  -0.0735   0.1153   0.1493   0.2788   0.2961   0.3339   0.3607
     0.6241   0.6583   0.7268   0.7414   0.7678   0.8153   0.8795   0.8909
     1.0148   1.0316   1.1511   1.1708   1.2511   1.2644   1.3757   1.3855

     occupation numbers 
     1.0000   1.0000   1.0000   1.0000   1.0000   1.0000   1.0000   1.0000
     1.0000   1.0000   1.0000   1.0000   1.0000   1.0000   1.0000   1.0000
     1.0000   1.0000   1.0000   1.0000   1.0000   1.0000   1.0000   1.0000
     1.0000   1.0000   1.0000   1.0000   1.0000   1.0000   1.0000   1.0000
     1.0000   1.0000   1.0000   1.0000   1.0000   1.0000   1.0000   1.0000
     1.0000   1.0000   1.0000   1.0000   1.0000   1.0000   1.0000   1.0000
     1.0000   1.0000   1.0000   1.0000   1.0000   1.0000   1.0000   1.0000
     1.0000   1.0000   1.0000   1.0000   1.0000   1.0000   1.0000   1.0000
     1.0000   1.0000   1.0000   1.0000   1.0000   1.0000   1.0000   1.0000
     1.0000   1.0000   1.0000   1.0000   1.0000   1.0000   1.0000   1.0000
     1.0000   1.0000   1.0000   1.0000   1.0000   1.0000   1.0000   1.0000
     1.0000   1.0000   1.0000   1.0000   1.0000   1.0000   1.0000   1.0000
     1.0000   1.0000   1.0000   1.0000   1.0000   1.0000   1.0000   1.0000
     1.0000   1.0000   1.0000   1.0000   1.0000   1.0000   1.0000   1.0000

          k = 0.0191 0.0343-0.0132 ( 27125 PWs)   bands (ev):

   -23.9115 -23.9031 -23.8784 -23.8740 -23.5784 -23.5748 -23.5649 -23.5646
   -19.1297 -19.1280 -19.1140 -19.1104 -18.7920 -18.7919 -18.7809 -18.7808
   -18.2171 -18.2015 -17.1802 -17.1509 -17.0491 -17.0487 -16.0206 -16.0120
   -12.0928 -12.0821 -12.0463 -12.0061 -11.8525 -11.8226 -11.7426 -11.7345
    -8.8490  -8.8105  -8.2457  -8.2350  -7.5376  -7.5264  -7.4251  -7.3902
    -6.7769  -6.7619  -6.5666  -6.5183  -6.4805  -6.4530  -6.3571  -6.3227
    -6.0975  -6.0753  -5.9768  -5.9494  -5.8277  -5.8047  -5.7122  -5.7114
    -5.5953  -5.5836  -5.4948  -5.4838  -5.0822  -5.0511  -4.9190  -4.8969
    -4.4469  -4.4400  -4.3543  -4.3318  -4.2029  -4.1512  -3.8466  -3.8213
    -3.6632  -3.6026  -3.5058  -3.4823  -3.1535  -3.1310  -3.0284  -3.0266
    -0.7143  -0.7051  -0.2821  -0.2727  -0.2072  -0.1746  -0.1002  -0.0910
    -0.0559  -0.0345   0.1190   0.1492   0.2328   0.2684   0.3769   0.4075
     0.5864   0.6144   0.6509   0.7050   0.7599   0.7989   0.9264   0.9300
     0.9829   1.0120   1.1349   1.1604   1.2426   1.2968   1.3772   1.3838

     occupation numbers 
     1.0000   1.0000   1.0000   1.0000   1.0000   1.0000   1.0000   1.0000
     1.0000   1.0000   1.0000   1.0000   1.0000   1.0000   1.0000   1.0000
     1.0000   1.0000   1.0000   1.0000   1.0000   1.0000   1.0000   1.0000
     1.0000   1.0000   1.0000   1.0000   1.0000   1.0000   1.0000   1.0000
     1.0000   1.0000   1.0000   1.0000   1.0000   1.0000   1.0000   1.0000
     1.0000   1.0000   1.0000   1.0000   1.0000   1.0000   1.0000   1.0000
     1.0000   1.0000   1.0000   1.0000   1.0000   1.0000   1.0000   1.0000
     1.0000   1.0000   1.0000   1.0000   1.0000   1.0000   1.0000   1.0000
     1.0000   1.0000   1.0000   1.0000   1.0000   1.0000   1.0000   1.0000
     1.0000   1.0000   1.0000   1.0000   1.0000   1.0000   1.0000   1.0000
     1.0000   1.0000   1.0000   1.0000   1.0000   1.0000   1.0000   1.0000
     1.0000   1.0000   1.0000   1.0000   1.0000   1.0000   1.0000   1.0000
     1.0000   1.0000   1.0000   1.0000   1.0000   1.0000   1.0000   1.0000
     1.0000   1.0000   1.0000   1.0000   1.0000   1.0000   1.0000   1.0000

          k = 0.0574 0.0114 0.0302 ( 27129 PWs)   bands (ev):

   -23.9058 -23.8968 -23.8801 -23.8794 -23.5772 -23.5737 -23.5698 -23.5661
   -19.1291 -19.1249 -19.1203 -19.1105 -18.7926 -18.7915 -18.7826 -18.7809
   -18.2163 -18.2158 -17.1650 -17.1628 -17.0473 -17.0450 -16.0226 -16.0204
   -12.0721 -12.0701 -11.9936 -11.9738 -11.8254 -11.8069 -11.7601 -11.7427
    -8.8631  -8.8297  -8.2592  -8.2359  -7.5361  -7.5060  -7.4829  -7.4314
    -6.9557  -6.8845  -6.6489  -6.5239  -6.4443  -6.4030  -6.2377  -6.2022
    -6.1766  -6.1286  -5.9870  -5.9223  -5.8640  -5.8175  -5.7304  -5.7083
    -5.6210  -5.5802  -5.5266  -5.5097  -5.1325  -5.0187  -4.8988  -4.8932
    -4.4156  -4.3955  -4.3509  -4.2976  -4.0257  -3.9694  -3.7997  -3.7642
    -3.7214  -3.6129  -3.5725  -3.5637  -3.1533  -3.1471  -3.0414  -3.0087
    -0.7267  -0.7161  -0.2784  -0.2751  -0.1878  -0.1672  -0.0990  -0.0702
    -0.0406  -0.0149   0.1342   0.1528   0.2253   0.2398   0.3789   0.3993
     0.5979   0.6052   0.6728   0.7233   0.8014   0.8081   0.8957   0.9106
     0.9622   1.0117   1.0363   1.0812   1.2972   1.3292   1.3593   1.3980

     occupation numbers 
     1.0000   1.0000   1.0000   1.0000   1.0000   1.0000   1.0000   1.0000
     1.0000   1.0000   1.0000   1.0000   1.0000   1.0000   1.0000   1.0000
     1.0000   1.0000   1.0000   1.0000   1.0000   1.0000   1.0000   1.0000
     1.0000   1.0000   1.0000   1.0000   1.0000   1.0000   1.0000   1.0000
     1.0000   1.0000   1.0000   1.0000   1.0000   1.0000   1.0000   1.0000
     1.0000   1.0000   1.0000   1.0000   1.0000   1.0000   1.0000   1.0000
     1.0000   1.0000   1.0000   1.0000   1.0000   1.0000   1.0000   1.0000
     1.0000   1.0000   1.0000   1.0000   1.0000   1.0000   1.0000   1.0000
     1.0000   1.0000   1.0000   1.0000   1.0000   1.0000   1.0000   1.0000
     1.0000   1.0000   1.0000   1.0000   1.0000   1.0000   1.0000   1.0000
     1.0000   1.0000   1.0000   1.0000   1.0000   1.0000   1.0000   1.0000
     1.0000   1.0000   1.0000   1.0000   1.0000   1.0000   1.0000   1.0000
     1.0000   1.0000   1.0000   1.0000   1.0000   1.0000   1.0000   1.0000
     1.0000   1.0000   1.0000   1.0000   1.0000   1.0000   1.0000   1.0000

          k = 0.0574 0.0114 0.0650 ( 27171 PWs)   bands (ev):

   -23.9017 -23.8998 -23.8838 -23.8758 -23.5755 -23.5754 -23.5727 -23.5642
   -19.1299 -19.1265 -19.1207 -19.1091 -18.8025 -18.8005 -18.7748 -18.7708
   -18.2319 -18.2067 -17.1856 -17.1402 -17.0369 -17.0329 -16.0389 -16.0194
   -12.0863 -12.0777 -12.0224 -11.9458 -11.8232 -11.7805 -11.7647 -11.7469
    -8.9089  -8.7849  -8.2560  -8.2162  -7.5341  -7.5144  -7.4391  -7.3147
    -7.0578  -6.8314  -6.6551  -6.4787  -6.4659  -6.4141  -6.3950  -6.2920
    -6.2337  -6.1472  -5.9691  -5.9316  -5.8851  -5.8211  -5.7579  -5.7017
    -5.6000  -5.5496  -5.4848  -5.4064  -5.1447  -4.9813  -4.9673  -4.9025
    -4.3640  -4.3502  -4.2873  -4.2462  -3.9814  -3.9474  -3.8948  -3.8614
    -3.7444  -3.6432  -3.5775  -3.4814  -3.1973  -3.1692  -3.0382  -2.9754
    -0.8013  -0.7642  -0.2874  -0.2520  -0.1881  -0.1570  -0.0920  -0.0537
    -0.0037   0.0316   0.1949   0.2254   0.2506   0.2670   0.3437   0.4383
     0.5134   0.5287   0.5753   0.6860   0.8011   0.8292   0.8807   0.9008
     0.9960   1.0353   1.0450   1.0747   1.3101   1.3496   1.3645   1.4098

     occupation numbers 
     1.0000   1.0000   1.0000   1.0000   1.0000   1.0000   1.0000   1.0000
     1.0000   1.0000   1.0000   1.0000   1.0000   1.0000   1.0000   1.0000
     1.0000   1.0000   1.0000   1.0000   1.0000   1.0000   1.0000   1.0000
     1.0000   1.0000   1.0000   1.0000   1.0000   1.0000   1.0000   1.0000
     1.0000   1.0000   1.0000   1.0000   1.0000   1.0000   1.0000   1.0000
     1.0000   1.0000   1.0000   1.0000   1.0000   1.0000   1.0000   1.0000
     1.0000   1.0000   1.0000   1.0000   1.0000   1.0000   1.0000   1.0000
     1.0000   1.0000   1.0000   1.0000   1.0000   1.0000   1.0000   1.0000
     1.0000   1.0000   1.0000   1.0000   1.0000   1.0000   1.0000   1.0000
     1.0000   1.0000   1.0000   1.0000   1.0000   1.0000   1.0000   1.0000
     1.0000   1.0000   1.0000   1.0000   1.0000   1.0000   1.0000   1.0000
     1.0000   1.0000   1.0000   1.0000   1.0000   1.0000   1.0000   1.0000
     1.0000   1.0000   1.0000   1.0000   1.0000   1.0000   1.0000   1.0000
     1.0000   1.0000   1.0000   1.0000   1.0000   1.0000   1.0000   1.0000

          k = 0.0574 0.0114-0.0396 ( 27155 PWs)   bands (ev):

   -23.9042 -23.8978 -23.8855 -23.8736 -23.5789 -23.5778 -23.5683 -23.5626
   -19.1280 -19.1255 -19.1210 -19.1119 -18.8033 -18.8014 -18.7738 -18.7700
   -18.2367 -18.2006 -17.1959 -17.1294 -17.0398 -17.0365 -16.0385 -16.0131
   -12.0926 -12.0794 -12.0445 -11.9239 -11.8392 -11.7669 -11.7597 -11.7486
    -8.9039  -8.7599  -8.2502  -8.2173  -7.5335  -7.5191  -7.4624  -7.3016
    -7.0765  -6.8323  -6.6426  -6.5036  -6.4669  -6.4490  -6.3848  -6.3197
    -6.2372  -6.1633  -5.9536  -5.9010  -5.8425  -5.8296  -5.7584  -5.7163
    -5.5775  -5.5459  -5.4922  -5.4050  -5.1349  -5.0036  -4.9403  -4.8906
    -4.3689  -4.3251  -4.2875  -4.2615  -4.0087  -3.9879  -3.8475  -3.8325
    -3.6954  -3.6753  -3.6331  -3.4867  -3.2022  -3.1641  -3.0338  -2.9811
    -0.7587  -0.6996  -0.2798  -0.2281  -0.2000  -0.1779  -0.0991  -0.0783
    -0.0633  -0.0239   0.1278   0.2193   0.2435   0.2953   0.3061   0.3297
     0.5559   0.6285   0.6613   0.6834   0.7982   0.8288   0.8979   0.9137
     0.9890   1.0187   1.0624   1.1262   1.3256   1.3417   1.3474   1.3744

     occupation numbers 
     1.0000   1.0000   1.0000   1.0000   1.0000   1.0000   1.0000   1.0000
     1.0000   1.0000   1.0000   1.0000   1.0000   1.0000   1.0000   1.0000
     1.0000   1.0000   1.0000   1.0000   1.0000   1.0000   1.0000   1.0000
     1.0000   1.0000   1.0000   1.0000   1.0000   1.0000   1.0000   1.0000
     1.0000   1.0000   1.0000   1.0000   1.0000   1.0000   1.0000   1.0000
     1.0000   1.0000   1.0000   1.0000   1.0000   1.0000   1.0000   1.0000
     1.0000   1.0000   1.0000   1.0000   1.0000   1.0000   1.0000   1.0000
     1.0000   1.0000   1.0000   1.0000   1.0000   1.0000   1.0000   1.0000
     1.0000   1.0000   1.0000   1.0000   1.0000   1.0000   1.0000   1.0000
     1.0000   1.0000   1.0000   1.0000   1.0000   1.0000   1.0000   1.0000
     1.0000   1.0000   1.0000   1.0000   1.0000   1.0000   1.0000   1.0000
     1.0000   1.0000   1.0000   1.0000   1.0000   1.0000   1.0000   1.0000
     1.0000   1.0000   1.0000   1.0000   1.0000   1.0000   1.0000   1.0000
     1.0000   1.0000   1.0000   1.0000   1.0000   1.0000   1.0000   1.0000

          k = 0.0574 0.0114-0.0047 ( 27135 PWs)   bands (ev):

   -23.9070 -23.8961 -23.8839 -23.8751 -23.5797 -23.5762 -23.5662 -23.5645
   -19.1267 -19.1254 -19.1167 -19.1162 -18.7945 -18.7939 -18.7803 -18.7788
   -18.2284 -18.2023 -17.1880 -17.1391 -17.0495 -17.0493 -16.0264 -16.0100
   -12.0798 -12.0702 -12.0329 -11.9344 -11.8490 -11.7837 -11.7536 -11.7482
    -8.8730  -8.7893  -8.2470  -8.2440  -7.5295  -7.5225  -7.5153  -7.4064
    -6.9726  -6.8802  -6.6057  -6.5805  -6.4375  -6.4340  -6.2753  -6.2447
    -6.1600  -6.1510  -5.9255  -5.8866  -5.8334  -5.8076  -5.7423  -5.7342
    -5.5993  -5.5851  -5.5230  -5.5097  -5.0909  -5.0701  -4.8793  -4.8721
    -4.4170  -4.3921  -4.3416  -4.3099  -4.0322  -3.9952  -3.7631  -3.7521
    -3.6882  -3.6611  -3.6123  -3.5593  -3.1691  -3.1333  -3.0348  -3.0155
    -0.6726  -0.6258  -0.2810  -0.2706  -0.1953  -0.1902  -0.1604  -0.1540
    -0.0538  -0.0261   0.0906   0.1591   0.2050   0.2476   0.3494   0.3875
     0.5755   0.6493   0.7384   0.7632   0.7938   0.8309   0.9119   0.9340
     0.9653   0.9783   1.0451   1.1288   1.3143   1.3202   1.3399   1.3597

     occupation numbers 
     1.0000   1.0000   1.0000   1.0000   1.0000   1.0000   1.0000   1.0000
     1.0000   1.0000   1.0000   1.0000   1.0000   1.0000   1.0000   1.0000
     1.0000   1.0000   1.0000   1.0000   1.0000   1.0000   1.0000   1.0000
     1.0000   1.0000   1.0000   1.0000   1.0000   1.0000   1.0000   1.0000
     1.0000   1.0000   1.0000   1.0000   1.0000   1.0000   1.0000   1.0000
     1.0000   1.0000   1.0000   1.0000   1.0000   1.0000   1.0000   1.0000
     1.0000   1.0000   1.0000   1.0000   1.0000   1.0000   1.0000   1.0000
     1.0000   1.0000   1.0000   1.0000   1.0000   1.0000   1.0000   1.0000
     1.0000   1.0000   1.0000   1.0000   1.0000   1.0000   1.0000   1.0000
     1.0000   1.0000   1.0000   1.0000   1.0000   1.0000   1.0000   1.0000
     1.0000   1.0000   1.0000   1.0000   1.0000   1.0000   1.0000   1.0000
     1.0000   1.0000   1.0000   1.0000   1.0000   1.0000   1.0000   1.0000
     1.0000   1.0000   1.0000   1.0000   1.0000   1.0000   1.0000   1.0000
     1.0000   1.0000   1.0000   1.0000   1.0000   1.0000   1.0000   1.0000

          k = 0.0574 0.0343 0.0302 ( 27141 PWs)   bands (ev):

   -23.9029 -23.8991 -23.8803 -23.8799 -23.5753 -23.5739 -23.5695 -23.5679
   -19.1291 -19.1279 -19.1157 -19.1122 -18.7922 -18.7918 -18.7821 -18.7814
   -18.2162 -18.2160 -17.1646 -17.1636 -17.0464 -17.0455 -16.0220 -16.0211
   -12.0716 -12.0708 -11.9863 -11.9779 -11.8219 -11.8141 -11.7549 -11.7476
    -8.8533  -8.8394  -8.2491  -8.2392  -7.5258  -7.5140  -7.4727  -7.4505
    -6.9583  -6.9342  -6.5733  -6.5295  -6.4244  -6.3989  -6.2668  -6.2326
    -6.1652  -6.1373  -5.9587  -5.9324  -5.8543  -5.8312  -5.7324  -5.7098
    -5.6027  -5.5922  -5.5200  -5.5107  -5.1021  -5.0550  -4.9032  -4.8997
    -4.4090  -4.3967  -4.3386  -4.3178  -4.0014  -3.9763  -3.7876  -3.7693
    -3.6966  -3.6495  -3.5708  -3.5635  -3.1510  -3.1477  -3.0359  -3.0216
    -0.7197  -0.7153  -0.2701  -0.2642  -0.2213  -0.2027  -0.0786  -0.0559
    -0.0362  -0.0220   0.1444   0.1633   0.2329   0.2466   0.3770   0.3872
     0.6229   0.6293   0.6516   0.6852   0.7990   0.8046   0.9015   0.9228
     0.9717   1.0048   1.0406   1.0610   1.3073   1.3200   1.3719   1.3873

     occupation numbers 
     1.0000   1.0000   1.0000   1.0000   1.0000   1.0000   1.0000   1.0000
     1.0000   1.0000   1.0000   1.0000   1.0000   1.0000   1.0000   1.0000
     1.0000   1.0000   1.0000   1.0000   1.0000   1.0000   1.0000   1.0000
     1.0000   1.0000   1.0000   1.0000   1.0000   1.0000   1.0000   1.0000
     1.0000   1.0000   1.0000   1.0000   1.0000   1.0000   1.0000   1.0000
     1.0000   1.0000   1.0000   1.0000   1.0000   1.0000   1.0000   1.0000
     1.0000   1.0000   1.0000   1.0000   1.0000   1.0000   1.0000   1.0000
     1.0000   1.0000   1.0000   1.0000   1.0000   1.0000   1.0000   1.0000
     1.0000   1.0000   1.0000   1.0000   1.0000   1.0000   1.0000   1.0000
     1.0000   1.0000   1.0000   1.0000   1.0000   1.0000   1.0000   1.0000
     1.0000   1.0000   1.0000   1.0000   1.0000   1.0000   1.0000   1.0000
     1.0000   1.0000   1.0000   1.0000   1.0000   1.0000   1.0000   1.0000
     1.0000   1.0000   1.0000   1.0000   1.0000   1.0000   1.0000   1.0000
     1.0000   1.0000   1.0000   1.0000   1.0000   1.0000   1.0000   1.0000

          k = 0.0574 0.0343 0.0650 ( 27148 PWs)   bands (ev):

   -23.9008 -23.9000 -23.8819 -23.8785 -23.5754 -23.5752 -23.5703 -23.5667
   -19.1302 -19.1293 -19.1155 -19.1113 -18.8019 -18.8011 -18.7736 -18.7720
   -18.2247 -18.2143 -17.1723 -17.1535 -17.0357 -17.0340 -16.0331 -16.0250
   -12.0868 -12.0837 -11.9973 -11.9668 -11.8093 -11.7919 -11.7597 -11.7524
    -8.8738  -8.8226  -8.2428  -8.2262  -7.5077  -7.4987  -7.4347  -7.3769
    -7.0153  -6.9357  -6.5592  -6.5031  -6.4530  -6.4357  -6.3505  -6.2945
    -6.2170  -6.1648  -5.9486  -5.9278  -5.8734  -5.8466  -5.7731  -5.7366
    -5.5924  -5.5723  -5.4518  -5.4203  -5.1063  -5.0369  -4.9475  -4.9189
    -4.3491  -4.3287  -4.2847  -4.2504  -3.9681  -3.9547  -3.8899  -3.8756
    -3.7216  -3.6859  -3.5421  -3.5055  -3.1897  -3.1783  -3.0204  -2.9943
    -0.7869  -0.7718  -0.2755  -0.2593  -0.2138  -0.2033  -0.0681  -0.0556
     0.0257   0.0390   0.2107   0.2211   0.2653   0.2775   0.3644   0.4098
     0.4973   0.5066   0.6295   0.6859   0.7758   0.8085   0.8919   0.9041
     0.9824   1.0064   1.0697   1.0841   1.3207   1.3365   1.3782   1.3964

     occupation numbers 
     1.0000   1.0000   1.0000   1.0000   1.0000   1.0000   1.0000   1.0000
     1.0000   1.0000   1.0000   1.0000   1.0000   1.0000   1.0000   1.0000
     1.0000   1.0000   1.0000   1.0000   1.0000   1.0000   1.0000   1.0000
     1.0000   1.0000   1.0000   1.0000   1.0000   1.0000   1.0000   1.0000
     1.0000   1.0000   1.0000   1.0000   1.0000   1.0000   1.0000   1.0000
     1.0000   1.0000   1.0000   1.0000   1.0000   1.0000   1.0000   1.0000
     1.0000   1.0000   1.0000   1.0000   1.0000   1.0000   1.0000   1.0000
     1.0000   1.0000   1.0000   1.0000   1.0000   1.0000   1.0000   1.0000
     1.0000   1.0000   1.0000   1.0000   1.0000   1.0000   1.0000   1.0000
     1.0000   1.0000   1.0000   1.0000   1.0000   1.0000   1.0000   1.0000
     1.0000   1.0000   1.0000   1.0000   1.0000   1.0000   1.0000   1.0000
     1.0000   1.0000   1.0000   1.0000   1.0000   1.0000   1.0000   1.0000
     1.0000   1.0000   1.0000   1.0000   1.0000   1.0000   1.0000   1.0000
     1.0000   1.0000   1.0000   1.0000   1.0000   1.0000   1.0000   1.0000

          k = 0.0574 0.0343-0.0396 ( 27145 PWs)   bands (ev):

   -23.9025 -23.9000 -23.8817 -23.8769 -23.5784 -23.5779 -23.5669 -23.5645
   -19.1286 -19.1282 -19.1164 -19.1132 -18.8027 -18.8019 -18.7727 -18.7711
   -18.2265 -18.2116 -17.1761 -17.1486 -17.0389 -17.0376 -16.0308 -16.0202
   -12.0927 -12.0884 -12.0101 -11.9650 -11.8090 -11.7822 -11.7560 -11.7518
    -8.8638  -8.8044  -8.2402  -8.2264  -7.5129  -7.4954  -7.4510  -7.3712
    -7.0214  -6.9332  -6.5582  -6.5164  -6.4664  -6.4458  -6.4003  -6.3432
    -6.1821  -6.1394  -5.9445  -5.9127  -5.8541  -5.8489  -5.7659  -5.7370
    -5.5753  -5.5620  -5.4515  -5.4159  -5.1201  -5.0660  -4.9144  -4.8923
    -4.3685  -4.3510  -4.2555  -4.2388  -3.9994  -3.9916  -3.8454  -3.8395
    -3.7029  -3.6943  -3.5811  -3.5240  -3.1890  -3.1724  -3.0224  -3.0000
    -0.7386  -0.7138  -0.2716  -0.2520  -0.2207  -0.2049  -0.0809  -0.0714
    -0.0382  -0.0132   0.1592   0.1944   0.2509   0.2709   0.3134   0.3358
     0.5813   0.6111   0.6887   0.6956   0.7900   0.8042   0.8875   0.8925
     0.9936   1.0143   1.0905   1.1140   1.3288   1.3369   1.3530   1.3655

     occupation numbers 
     1.0000   1.0000   1.0000   1.0000   1.0000   1.0000   1.0000   1.0000
     1.0000   1.0000   1.0000   1.0000   1.0000   1.0000   1.0000   1.0000
     1.0000   1.0000   1.0000   1.0000   1.0000   1.0000   1.0000   1.0000
     1.0000   1.0000   1.0000   1.0000   1.0000   1.0000   1.0000   1.0000
     1.0000   1.0000   1.0000   1.0000   1.0000   1.0000   1.0000   1.0000
     1.0000   1.0000   1.0000   1.0000   1.0000   1.0000   1.0000   1.0000
     1.0000   1.0000   1.0000   1.0000   1.0000   1.0000   1.0000   1.0000
     1.0000   1.0000   1.0000   1.0000   1.0000   1.0000   1.0000   1.0000
     1.0000   1.0000   1.0000   1.0000   1.0000   1.0000   1.0000   1.0000
     1.0000   1.0000   1.0000   1.0000   1.0000   1.0000   1.0000   1.0000
     1.0000   1.0000   1.0000   1.0000   1.0000   1.0000   1.0000   1.0000
     1.0000   1.0000   1.0000   1.0000   1.0000   1.0000   1.0000   1.0000
     1.0000   1.0000   1.0000   1.0000   1.0000   1.0000   1.0000   1.0000
     1.0000   1.0000   1.0000   1.0000   1.0000   1.0000   1.0000   1.0000

          k = 0.0574 0.0343-0.0047 ( 27108 PWs)   bands (ev):

   -23.9041 -23.8997 -23.8810 -23.8774 -23.5783 -23.5768 -23.5661 -23.5653
   -19.1272 -19.1267 -19.1156 -19.1154 -18.7943 -18.7940 -18.7798 -18.7792
   -18.2210 -18.2102 -17.1736 -17.1534 -17.0494 -17.0493 -16.0215 -16.0147
   -12.0786 -12.0753 -12.0068 -11.9688 -11.8233 -11.7985 -11.7518 -11.7492
    -8.8491  -8.8146  -8.2449  -8.2418  -7.5265  -7.5240  -7.4874  -7.4420
    -6.9600  -6.9231  -6.5655  -6.5545  -6.4255  -6.4188  -6.3308  -6.3183
    -6.1118  -6.1057  -5.9339  -5.9125  -5.8290  -5.8178  -5.7231  -5.7176
    -5.6033  -5.5888  -5.5192  -5.5143  -5.0958  -5.0843  -4.8754  -4.8736
    -4.4184  -4.4022  -4.3379  -4.3139  -4.0086  -3.9927  -3.7641  -3.7607
    -3.6632  -3.6376  -3.6252  -3.5877  -3.1571  -3.1411  -3.0354  -3.0281
    -0.6569  -0.6374  -0.2693  -0.2616  -0.2115  -0.1896  -0.1764  -0.1573
    -0.0547  -0.0339   0.1133   0.1418   0.2268   0.2480   0.3599   0.3806
     0.6071   0.6449   0.7234   0.7473   0.7874   0.8184   0.9187   0.9242
     0.9832   0.9918   1.0600   1.0986   1.3164   1.3179   1.3455   1.3541

     occupation numbers 
     1.0000   1.0000   1.0000   1.0000   1.0000   1.0000   1.0000   1.0000
     1.0000   1.0000   1.0000   1.0000   1.0000   1.0000   1.0000   1.0000
     1.0000   1.0000   1.0000   1.0000   1.0000   1.0000   1.0000   1.0000
     1.0000   1.0000   1.0000   1.0000   1.0000   1.0000   1.0000   1.0000
     1.0000   1.0000   1.0000   1.0000   1.0000   1.0000   1.0000   1.0000
     1.0000   1.0000   1.0000   1.0000   1.0000   1.0000   1.0000   1.0000
     1.0000   1.0000   1.0000   1.0000   1.0000   1.0000   1.0000   1.0000
     1.0000   1.0000   1.0000   1.0000   1.0000   1.0000   1.0000   1.0000
     1.0000   1.0000   1.0000   1.0000   1.0000   1.0000   1.0000   1.0000
     1.0000   1.0000   1.0000   1.0000   1.0000   1.0000   1.0000   1.0000
     1.0000   1.0000   1.0000   1.0000   1.0000   1.0000   1.0000   1.0000
     1.0000   1.0000   1.0000   1.0000   1.0000   1.0000   1.0000   1.0000
     1.0000   1.0000   1.0000   1.0000   1.0000   1.0000   1.0000   1.0000
     1.0000   1.0000   1.0000   1.0000   1.0000   1.0000   1.0000   1.0000

     highest occupied level (ev):     1.4098

!    total energy              =   -1281.98797463 Ry
     Harris-Foulkes estimate   =   -1281.98797468 Ry
     estimated scf accuracy    <       0.00000006 Ry

     total all-electron energy =     -4786.431722 Ry

     The total energy is the sum of the following terms:

     one-electron contribution =    -638.49405264 Ry
     hartree contribution      =     417.68864468 Ry
     xc contribution           =    -260.21359453 Ry
     ewald contribution        =    -470.57443281 Ry
     one-center paw contrib.   =    -330.39453934 Ry

     convergence has been achieved in  16 iterations

     Forces acting on atoms (Ry/au):

     atom    1 type  1   force =    -0.01379889   -0.00773112   -0.01458074
     atom    2 type  4   force =     0.02997326    0.00623633   -0.02229928
     atom    3 type  1   force =    -0.00230138   -0.00877388   -0.01140290
     atom    4 type  1   force =     0.00577208    0.00109149    0.00039464
     atom    5 type  4   force =     0.00257099   -0.02745990    0.03024512
     atom    6 type  1   force =     0.01393840    0.00092787   -0.00495338
     atom    7 type  4   force =    -0.01125319    0.02093789    0.04341239
     atom    8 type  2   force =     0.18126822   -0.11574067    0.05327544
     atom    9 type  3   force =    -0.13528292   -0.06100112   -0.13925732
     atom   10 type  3   force =    -0.04640069    0.18197430    0.08165705
     atom   11 type  4   force =    -0.03442873    0.02180228   -0.01572967
     atom   12 type  2   force =     0.12424980   -0.05319448    0.21234371
     atom   13 type  3   force =    -0.19848567   -0.10113281   -0.06159311
     atom   14 type  3   force =     0.06585937    0.15446720   -0.15374074
     atom   15 type  3   force =     0.06585937   -0.15446720   -0.15374074
     atom   16 type  3   force =    -0.19848567    0.10113281   -0.06159311
     atom   17 type  2   force =     0.12424980    0.05319448    0.21234371
     atom   18 type  4   force =    -0.03442873   -0.02180228   -0.01572967
     atom   19 type  3   force =    -0.04640069   -0.18197430    0.08165705
     atom   20 type  3   force =    -0.13528292    0.06100112   -0.13925732
     atom   21 type  2   force =     0.18126822    0.11574067    0.05327544
     atom   22 type  4   force =    -0.01125319   -0.02093789    0.04341239
     atom   23 type  1   force =     0.01393840   -0.00092787   -0.00495338
     atom   24 type  4   force =     0.00257099    0.02745990    0.03024512
     atom   25 type  1   force =     0.00577208   -0.00109149    0.00039464
     atom   26 type  1   force =    -0.00230138    0.00877388   -0.01140290
     atom   27 type  4   force =     0.02997326   -0.00623633   -0.02229928
     atom   28 type  1   force =    -0.01379889    0.00773112   -0.01458074
     atom   29 type  3   force =    -0.06585937   -0.15446720    0.15374074
     atom   30 type  3   force =     0.19848567    0.10113281    0.06159311
     atom   31 type  2   force =    -0.12424980    0.05319448   -0.21234371
     atom   32 type  4   force =     0.03442873   -0.02180228    0.01572967
     atom   33 type  3   force =     0.04640069   -0.18197430   -0.08165705
     atom   34 type  3   force =     0.13528292    0.06100112    0.13925732
     atom   35 type  2   force =    -0.18126822    0.11574067   -0.05327544
     atom   36 type  4   force =     0.01125319   -0.02093789   -0.04341239
     atom   37 type  1   force =    -0.01393840   -0.00092787    0.00495338
     atom   38 type  4   force =    -0.00257099    0.02745990   -0.03024512
     atom   39 type  1   force =    -0.00577208   -0.00109149   -0.00039464
     atom   40 type  1   force =     0.00230138    0.00877388    0.01140290
     atom   41 type  4   force =    -0.02997326   -0.00623633    0.02229928
     atom   42 type  1   force =     0.01379889    0.00773112    0.01458074
     atom   43 type  3   force =    -0.06585937    0.15446720    0.15374074
     atom   44 type  3   force =     0.19848567   -0.10113281    0.06159311
     atom   45 type  2   force =    -0.12424980   -0.05319448   -0.21234371
     atom   46 type  4   force =     0.03442873    0.02180228    0.01572967
     atom   47 type  3   force =     0.04640069    0.18197430   -0.08165705
     atom   48 type  3   force =     0.13528292   -0.06100112    0.13925732
     atom   49 type  2   force =    -0.18126822   -0.11574067   -0.05327544
     atom   50 type  4   force =     0.01125319    0.02093789   -0.04341239
     atom   51 type  1   force =    -0.01393840    0.00092787    0.00495338
     atom   52 type  4   force =    -0.00257099   -0.02745990   -0.03024512
     atom   53 type  1   force =    -0.00577208    0.00109149   -0.00039464
     atom   54 type  1   force =     0.00230138   -0.00877388    0.01140290
     atom   55 type  4   force =    -0.02997326    0.00623633    0.02229928
     atom   56 type  1   force =     0.01379889   -0.00773112    0.01458074
     The non-local contrib.  to forces
     atom    1 type  1   force =     0.17157664    0.38653516    0.11115547
     atom    2 type  4   force =    -2.40912440   -0.47900716    1.52704424
     atom    3 type  1   force =     0.04261910   -0.03338265    0.05400956
     atom    4 type  1   force =    -0.57565165   -0.41475138   -0.12142827
     atom    5 type  4   force =     0.14683609    1.86238201   -2.22498963
     atom    6 type  1   force =    -0.00394428    0.06352035    0.05221015
     atom    7 type  4   force =     0.53250381   -1.16747839   -2.62362871
     atom    8 type  2   force =     0.64565158   -0.43881125    0.17968753
     atom    9 type  3   force =     0.07962951    0.02764103    0.07004439
     atom   10 type  3   force =     0.02924506   -0.09959910   -0.03954165
     atom   11 type  4   force =     2.27596869   -1.47872910    0.83096809
     atom   12 type  2   force =     0.39072420   -0.18721689    0.70025707
     atom   13 type  3   force =     0.09507243    0.04904468    0.03807582
     atom   14 type  3   force =    -0.02907554   -0.07502397    0.08101369
     atom   15 type  3   force =    -0.02907554    0.07502397    0.08101369
     atom   16 type  3   force =     0.09507243   -0.04904468    0.03807582
     atom   17 type  2   force =     0.39072420    0.18721689    0.70025707
     atom   18 type  4   force =     2.27596869    1.47872910    0.83096809
     atom   19 type  3   force =     0.02924506    0.09959910   -0.03954165
     atom   20 type  3   force =     0.07962951   -0.02764103    0.07004439
     atom   21 type  2   force =     0.64565158    0.43881125    0.17968753
     atom   22 type  4   force =     0.53250381    1.16747839   -2.62362871
     atom   23 type  1   force =    -0.00394428   -0.06352035    0.05221015
     atom   24 type  4   force =     0.14683609   -1.86238201   -2.22498963
     atom   25 type  1   force =    -0.57565165    0.41475138   -0.12142827
     atom   26 type  1   force =     0.04261910    0.03338265    0.05400956
     atom   27 type  4   force =    -2.40912440    0.47900716    1.52704424
     atom   28 type  1   force =     0.17157664   -0.38653516    0.11115547
     atom   29 type  3   force =     0.02907554    0.07502397   -0.08101369
     atom   30 type  3   force =    -0.09507243   -0.04904468   -0.03807582
     atom   31 type  2   force =    -0.39072420    0.18721689   -0.70025707
     atom   32 type  4   force =    -2.27596869    1.47872910   -0.83096809
     atom   33 type  3   force =    -0.02924506    0.09959910    0.03954165
     atom   34 type  3   force =    -0.07962951   -0.02764103   -0.07004439
     atom   35 type  2   force =    -0.64565158    0.43881125   -0.17968753
     atom   36 type  4   force =    -0.53250381    1.16747839    2.62362871
     atom   37 type  1   force =     0.00394428   -0.06352035   -0.05221015
     atom   38 type  4   force =    -0.14683609   -1.86238201    2.22498963
     atom   39 type  1   force =     0.57565165    0.41475138    0.12142827
     atom   40 type  1   force =    -0.04261910    0.03338265   -0.05400956
     atom   41 type  4   force =     2.40912440    0.47900716   -1.52704424
     atom   42 type  1   force =    -0.17157664   -0.38653516   -0.11115547
     atom   43 type  3   force =     0.02907554   -0.07502397   -0.08101369
     atom   44 type  3   force =    -0.09507243    0.04904468   -0.03807582
     atom   45 type  2   force =    -0.39072420   -0.18721689   -0.70025707
     atom   46 type  4   force =    -2.27596869   -1.47872910   -0.83096809
     atom   47 type  3   force =    -0.02924506   -0.09959910    0.03954165
     atom   48 type  3   force =    -0.07962951    0.02764103   -0.07004439
     atom   49 type  2   force =    -0.64565158   -0.43881125   -0.17968753
     atom   50 type  4   force =    -0.53250381   -1.16747839    2.62362871
     atom   51 type  1   force =     0.00394428    0.06352035   -0.05221015
     atom   52 type  4   force =    -0.14683609    1.86238201    2.22498963
     atom   53 type  1   force =     0.57565165   -0.41475138    0.12142827
     atom   54 type  1   force =    -0.04261910   -0.03338265   -0.05400956
     atom   55 type  4   force =     2.40912440   -0.47900716   -1.52704424
     atom   56 type  1   force =    -0.17157664    0.38653516   -0.11115547
     The ionic contribution  to forces
     atom    1 type  1   force =    -3.02387657    0.23660129   -2.00927268
     atom    2 type  4   force =    12.24933486    4.29112474   -5.98154866
     atom    3 type  1   force =    -0.23583075    1.63139269   -0.00479884
     atom    4 type  1   force =     2.74477508    2.79019927    2.01307012
     atom    5 type  4   force =    -1.30946770   -8.59289141   11.32894774
     atom    6 type  1   force =    -0.38423696    0.05779432    1.08471183
     atom    7 type  4   force =    -2.06820689    6.30441879   12.48277303
     atom    8 type  2   force =    -4.04476332    3.23167947   -1.20395388
     atom    9 type  3   force =    -2.26197342   -0.15470241   -2.00865049
     atom   10 type  3   force =    -1.24600772    2.81197799    0.72629677
     atom   11 type  4   force =   -11.15006802    6.18242246   -2.29612313
     atom   12 type  2   force =    -2.86515807    1.00471966   -4.70567984
     atom   13 type  3   force =    -2.62752738   -1.07739290   -1.56905091
     atom   14 type  3   force =     0.24884752    2.04556841   -2.53310746
     atom   15 type  3   force =     0.24884752   -2.04556841   -2.53310746
     atom   16 type  3   force =    -2.62752738    1.07739290   -1.56905091
     atom   17 type  2   force =    -2.86515807   -1.00471966   -4.70567984
     atom   18 type  4   force =   -11.15006802   -6.18242246   -2.29612313
     atom   19 type  3   force =    -1.24600772   -2.81197799    0.72629677
     atom   20 type  3   force =    -2.26197342    0.15470241   -2.00865049
     atom   21 type  2   force =    -4.04476332   -3.23167947   -1.20395388
     atom   22 type  4   force =    -2.06820689   -6.30441879   12.48277303
     atom   23 type  1   force =    -0.38423696   -0.05779432    1.08471183
     atom   24 type  4   force =    -1.30946770    8.59289141   11.32894774
     atom   25 type  1   force =     2.74477508   -2.79019927    2.01307012
     atom   26 type  1   force =    -0.23583075   -1.63139269   -0.00479884
     atom   27 type  4   force =    12.24933486   -4.29112474   -5.98154866
     atom   28 type  1   force =    -3.02387657   -0.23660129   -2.00927268
     atom   29 type  3   force =    -0.24884752   -2.04556841    2.53310746
     atom   30 type  3   force =     2.62752738    1.07739290    1.56905091
     atom   31 type  2   force =     2.86515807   -1.00471966    4.70567984
     atom   32 type  4   force =    11.15006802   -6.18242246    2.29612313
     atom   33 type  3   force =     1.24600772   -2.81197799   -0.72629677
     atom   34 type  3   force =     2.26197342    0.15470241    2.00865049
     atom   35 type  2   force =     4.04476332   -3.23167947    1.20395388
     atom   36 type  4   force =     2.06820689   -6.30441879  -12.48277303
     atom   37 type  1   force =     0.38423696   -0.05779432   -1.08471183
     atom   38 type  4   force =     1.30946770    8.59289141  -11.32894774
     atom   39 type  1   force =    -2.74477508   -2.79019927   -2.01307012
     atom   40 type  1   force =     0.23583075   -1.63139269    0.00479884
     atom   41 type  4   force =   -12.24933486   -4.29112474    5.98154866
     atom   42 type  1   force =     3.02387657   -0.23660129    2.00927268
     atom   43 type  3   force =    -0.24884752    2.04556841    2.53310746
     atom   44 type  3   force =     2.62752738   -1.07739290    1.56905091
     atom   45 type  2   force =     2.86515807    1.00471966    4.70567984
     atom   46 type  4   force =    11.15006802    6.18242246    2.29612313
     atom   47 type  3   force =     1.24600772    2.81197799   -0.72629677
     atom   48 type  3   force =     2.26197342   -0.15470241    2.00865049
     atom   49 type  2   force =     4.04476332    3.23167947    1.20395388
     atom   50 type  4   force =     2.06820689    6.30441879  -12.48277303
     atom   51 type  1   force =     0.38423696    0.05779432   -1.08471183
     atom   52 type  4   force =     1.30946770   -8.59289141  -11.32894774
     atom   53 type  1   force =    -2.74477508    2.79019927   -2.01307012
     atom   54 type  1   force =     0.23583075    1.63139269    0.00479884
     atom   55 type  4   force =   -12.24933486    4.29112474    5.98154866
     atom   56 type  1   force =     3.02387657    0.23660129    2.00927268
     The local contribution  to forces
     atom    1 type  1   force =     2.84155556   -0.62433758    1.88535883
     atom    2 type  4   force =    -9.82904031   -3.80956542    4.44409994
     atom    3 type  1   force =     0.19057104   -1.60854167   -0.06072357
     atom    4 type  1   force =    -2.17279342   -2.38076710   -1.89282584
     atom    5 type  4   force =     1.16644774    6.71753106   -9.09123743
     atom    6 type  1   force =     0.40345450   -0.11879181   -1.14172995
     atom    7 type  4   force =     1.52854873   -5.12495857   -9.83608073
     atom    8 type  2   force =     3.59461318   -2.91875182    1.08245324
     atom    9 type  3   force =     2.04706255    0.06606010    1.79935425
     atom   10 type  3   force =     1.17035978   -2.53040743   -0.60509180
     atom   11 type  4   force =     8.85758182   -4.69355358    1.45602844
     atom   12 type  2   force =     2.60786727   -0.87461295    4.23390304
     atom   13 type  3   force =     2.33397950    0.92721489    1.46938390
     atom   14 type  3   force =    -0.15390728   -1.81608062    2.29835431
     atom   15 type  3   force =    -0.15390728    1.81608062    2.29835431
     atom   16 type  3   force =     2.33397950   -0.92721489    1.46938390
     atom   17 type  2   force =     2.60786727    0.87461295    4.23390304
     atom   18 type  4   force =     8.85758182    4.69355358    1.45602844
     atom   19 type  3   force =     1.17035978    2.53040743   -0.60509180
     atom   20 type  3   force =     2.04706255   -0.06606010    1.79935425
     atom   21 type  2   force =     3.59461318    2.91875182    1.08245324
     atom   22 type  4   force =     1.52854873    5.12495857   -9.83608073
     atom   23 type  1   force =     0.40345450    0.11879181   -1.14172995
     atom   24 type  4   force =     1.16644774   -6.71753106   -9.09123743
     atom   25 type  1   force =    -2.17279342    2.38076710   -1.89282584
     atom   26 type  1   force =     0.19057104    1.60854167   -0.06072357
     atom   27 type  4   force =    -9.82904031    3.80956542    4.44409994
     atom   28 type  1   force =     2.84155556    0.62433758    1.88535883
     atom   29 type  3   force =     0.15390728    1.81608062   -2.29835431
     atom   30 type  3   force =    -2.33397950   -0.92721489   -1.46938390
     atom   31 type  2   force =    -2.60786727    0.87461295   -4.23390304
     atom   32 type  4   force =    -8.85758182    4.69355358   -1.45602844
     atom   33 type  3   force =    -1.17035978    2.53040743    0.60509180
     atom   34 type  3   force =    -2.04706255   -0.06606010   -1.79935425
     atom   35 type  2   force =    -3.59461318    2.91875182   -1.08245324
     atom   36 type  4   force =    -1.52854873    5.12495857    9.83608073
     atom   37 type  1   force =    -0.40345450    0.11879181    1.14172995
     atom   38 type  4   force =    -1.16644774   -6.71753106    9.09123743
     atom   39 type  1   force =     2.17279342    2.38076710    1.89282584
     atom   40 type  1   force =    -0.19057104    1.60854167    0.06072357
     atom   41 type  4   force =     9.82904031    3.80956542   -4.44409994
     atom   42 type  1   force =    -2.84155556    0.62433758   -1.88535883
     atom   43 type  3   force =     0.15390728   -1.81608062   -2.29835431
     atom   44 type  3   force =    -2.33397950    0.92721489   -1.46938390
     atom   45 type  2   force =    -2.60786727   -0.87461295   -4.23390304
     atom   46 type  4   force =    -8.85758182   -4.69355358   -1.45602844
     atom   47 type  3   force =    -1.17035978   -2.53040743    0.60509180
     atom   48 type  3   force =    -2.04706255    0.06606010   -1.79935425
     atom   49 type  2   force =    -3.59461318   -2.91875182   -1.08245324
     atom   50 type  4   force =    -1.52854873   -5.12495857    9.83608073
     atom   51 type  1   force =    -0.40345450   -0.11879181    1.14172995
     atom   52 type  4   force =    -1.16644774    6.71753106    9.09123743
     atom   53 type  1   force =     2.17279342   -2.38076710    1.89282584
     atom   54 type  1   force =    -0.19057104   -1.60854167    0.06072357
     atom   55 type  4   force =     9.82904031   -3.80956542   -4.44409994
     atom   56 type  1   force =    -2.84155556   -0.62433758   -1.88535883
     The core correction contribution to forces
     atom    1 type  1   force =    -0.00305315   -0.00657501   -0.00183853
     atom    2 type  4   force =     0.01889039    0.00369013   -0.01197175
     atom    3 type  1   force =     0.00040924    0.00174201    0.00003213
     atom    4 type  1   force =     0.00945118    0.00640887    0.00159060
     atom    5 type  4   force =    -0.00119457   -0.01447143    0.01749009
     atom    6 type  1   force =    -0.00121030   -0.00160113   -0.00017466
     atom    7 type  4   force =    -0.00411845    0.00895348    0.02037950
     atom    8 type  2   force =    -0.01423099    0.01011426   -0.00487606
     atom    9 type  3   force =     0.00000000    0.00000000    0.00000000
     atom   10 type  3   force =     0.00000000    0.00000000    0.00000000
     atom   11 type  4   force =    -0.01782969    0.01164881   -0.00661066
     atom   12 type  2   force =    -0.00914041    0.00389079   -0.01613166
     atom   13 type  3   force =     0.00000000    0.00000000    0.00000000
     atom   14 type  3   force =     0.00000000    0.00000000    0.00000000
     atom   15 type  3   force =     0.00000000    0.00000000    0.00000000
     atom   16 type  3   force =     0.00000000    0.00000000    0.00000000
     atom   17 type  2   force =    -0.00914041   -0.00389079   -0.01613166
     atom   18 type  4   force =    -0.01782969   -0.01164881   -0.00661066
     atom   19 type  3   force =     0.00000000    0.00000000    0.00000000
     atom   20 type  3   force =     0.00000000    0.00000000    0.00000000
     atom   21 type  2   force =    -0.01423099   -0.01011426   -0.00487606
     atom   22 type  4   force =    -0.00411845   -0.00895348    0.02037950
     atom   23 type  1   force =    -0.00121030    0.00160113   -0.00017466
     atom   24 type  4   force =    -0.00119457    0.01447143    0.01749009
     atom   25 type  1   force =     0.00945118   -0.00640887    0.00159060
     atom   26 type  1   force =     0.00040924   -0.00174201    0.00003213
     atom   27 type  4   force =     0.01889039   -0.00369013   -0.01197175
     atom   28 type  1   force =    -0.00305315    0.00657501   -0.00183853
     atom   29 type  3   force =     0.00000000    0.00000000    0.00000000
     atom   30 type  3   force =     0.00000000    0.00000000    0.00000000
     atom   31 type  2   force =     0.00914041   -0.00389079    0.01613166
     atom   32 type  4   force =     0.01782969   -0.01164881    0.00661066
     atom   33 type  3   force =     0.00000000    0.00000000    0.00000000
     atom   34 type  3   force =     0.00000000    0.00000000    0.00000000
     atom   35 type  2   force =     0.01423099   -0.01011426    0.00487606
     atom   36 type  4   force =     0.00411845   -0.00895348   -0.02037950
     atom   37 type  1   force =     0.00121030    0.00160113    0.00017466
     atom   38 type  4   force =     0.00119457    0.01447143   -0.01749009
     atom   39 type  1   force =    -0.00945118   -0.00640887   -0.00159060
     atom   40 type  1   force =    -0.00040924   -0.00174201   -0.00003213
     atom   41 type  4   force =    -0.01889039   -0.00369013    0.01197175
     atom   42 type  1   force =     0.00305315    0.00657501    0.00183853
     atom   43 type  3   force =     0.00000000    0.00000000    0.00000000
     atom   44 type  3   force =     0.00000000    0.00000000    0.00000000
     atom   45 type  2   force =     0.00914041    0.00389079    0.01613166
     atom   46 type  4   force =     0.01782969    0.01164881    0.00661066
     atom   47 type  3   force =     0.00000000    0.00000000    0.00000000
     atom   48 type  3   force =     0.00000000    0.00000000    0.00000000
     atom   49 type  2   force =     0.01423099    0.01011426    0.00487606
     atom   50 type  4   force =     0.00411845    0.00895348   -0.02037950
     atom   51 type  1   force =     0.00121030   -0.00160113    0.00017466
     atom   52 type  4   force =     0.00119457   -0.01447143   -0.01749009
     atom   53 type  1   force =    -0.00945118    0.00640887   -0.00159060
     atom   54 type  1   force =    -0.00040924    0.00174201   -0.00003213
     atom   55 type  4   force =    -0.01889039    0.00369013    0.01197175
     atom   56 type  1   force =     0.00305315   -0.00657501    0.00183853
     The Hubbard contrib.    to forces
     atom    1 type  1   force =     0.00000000    0.00000000    0.00000000
     atom    2 type  4   force =     0.00000000    0.00000000    0.00000000
     atom    3 type  1   force =     0.00000000    0.00000000    0.00000000
     atom    4 type  1   force =     0.00000000    0.00000000    0.00000000
     atom    5 type  4   force =     0.00000000    0.00000000    0.00000000
     atom    6 type  1   force =     0.00000000    0.00000000    0.00000000
     atom    7 type  4   force =     0.00000000    0.00000000    0.00000000
     atom    8 type  2   force =     0.00000000    0.00000000    0.00000000
     atom    9 type  3   force =     0.00000000    0.00000000    0.00000000
     atom   10 type  3   force =     0.00000000    0.00000000    0.00000000
     atom   11 type  4   force =     0.00000000    0.00000000    0.00000000
     atom   12 type  2   force =     0.00000000    0.00000000    0.00000000
     atom   13 type  3   force =     0.00000000    0.00000000    0.00000000
     atom   14 type  3   force =     0.00000000    0.00000000    0.00000000
     atom   15 type  3   force =     0.00000000    0.00000000    0.00000000
     atom   16 type  3   force =     0.00000000    0.00000000    0.00000000
     atom   17 type  2   force =     0.00000000    0.00000000    0.00000000
     atom   18 type  4   force =     0.00000000    0.00000000    0.00000000
     atom   19 type  3   force =     0.00000000    0.00000000    0.00000000
     atom   20 type  3   force =     0.00000000    0.00000000    0.00000000
     atom   21 type  2   force =     0.00000000    0.00000000    0.00000000
     atom   22 type  4   force =     0.00000000    0.00000000    0.00000000
     atom   23 type  1   force =     0.00000000    0.00000000    0.00000000
     atom   24 type  4   force =     0.00000000    0.00000000    0.00000000
     atom   25 type  1   force =     0.00000000    0.00000000    0.00000000
     atom   26 type  1   force =     0.00000000    0.00000000    0.00000000
     atom   27 type  4   force =     0.00000000    0.00000000    0.00000000
     atom   28 type  1   force =     0.00000000    0.00000000    0.00000000
     atom   29 type  3   force =     0.00000000    0.00000000    0.00000000
     atom   30 type  3   force =     0.00000000    0.00000000    0.00000000
     atom   31 type  2   force =     0.00000000    0.00000000    0.00000000
     atom   32 type  4   force =     0.00000000    0.00000000    0.00000000
     atom   33 type  3   force =     0.00000000    0.00000000    0.00000000
     atom   34 type  3   force =     0.00000000    0.00000000    0.00000000
     atom   35 type  2   force =     0.00000000    0.00000000    0.00000000
     atom   36 type  4   force =     0.00000000    0.00000000    0.00000000
     atom   37 type  1   force =     0.00000000    0.00000000    0.00000000
     atom   38 type  4   force =     0.00000000    0.00000000    0.00000000
     atom   39 type  1   force =     0.00000000    0.00000000    0.00000000
     atom   40 type  1   force =     0.00000000    0.00000000    0.00000000
     atom   41 type  4   force =     0.00000000    0.00000000    0.00000000
     atom   42 type  1   force =     0.00000000    0.00000000    0.00000000
     atom   43 type  3   force =     0.00000000    0.00000000    0.00000000
     atom   44 type  3   force =     0.00000000    0.00000000    0.00000000
     atom   45 type  2   force =     0.00000000    0.00000000    0.00000000
     atom   46 type  4   force =     0.00000000    0.00000000    0.00000000
     atom   47 type  3   force =     0.00000000    0.00000000    0.00000000
     atom   48 type  3   force =     0.00000000    0.00000000    0.00000000
     atom   49 type  2   force =     0.00000000    0.00000000    0.00000000
     atom   50 type  4   force =     0.00000000    0.00000000    0.00000000
     atom   51 type  1   force =     0.00000000    0.00000000    0.00000000
     atom   52 type  4   force =     0.00000000    0.00000000    0.00000000
     atom   53 type  1   force =     0.00000000    0.00000000    0.00000000
     atom   54 type  1   force =     0.00000000    0.00000000    0.00000000
     atom   55 type  4   force =     0.00000000    0.00000000    0.00000000
     atom   56 type  1   force =     0.00000000    0.00000000    0.00000000
     The SCF correction term to forces
     atom    1 type  1   force =    -0.00000138    0.00004502    0.00001617
     atom    2 type  4   force =    -0.00008728   -0.00000597    0.00007694
     atom    3 type  1   force =    -0.00007001    0.00001574    0.00007783
     atom    4 type  1   force =    -0.00000911    0.00000184   -0.00001196
     atom    5 type  4   force =    -0.00005057   -0.00001014    0.00003435
     atom    6 type  1   force =    -0.00012455    0.00000614    0.00002926
     atom    7 type  4   force =     0.00001962    0.00000258   -0.00003071
     atom    8 type  2   force =    -0.00000222    0.00002867   -0.00003538
     atom    9 type  3   force =    -0.00000156    0.00000015   -0.00000546
     atom   10 type  3   force =     0.00000219    0.00000283   -0.00000627
     atom   11 type  4   force =    -0.00008153    0.00001369    0.00000759
     atom   12 type  2   force =    -0.00004318    0.00002490   -0.00000489
     atom   13 type  3   force =    -0.00001021    0.00000053   -0.00000191
     atom   14 type  3   force =    -0.00000532    0.00000337   -0.00000128
     atom   15 type  3   force =    -0.00000532   -0.00000337   -0.00000128
     atom   16 type  3   force =    -0.00001021   -0.00000053   -0.00000191
     atom   17 type  2   force =    -0.00004318   -0.00002490   -0.00000489
     atom   18 type  4   force =    -0.00008153   -0.00001369    0.00000759
     atom   19 type  3   force =     0.00000219   -0.00000283   -0.00000627
     atom   20 type  3   force =    -0.00000156   -0.00000015   -0.00000546
     atom   21 type  2   force =    -0.00000222   -0.00002867   -0.00003538
     atom   22 type  4   force =     0.00001962   -0.00000258   -0.00003071
     atom   23 type  1   force =    -0.00012455   -0.00000614    0.00002926
     atom   24 type  4   force =    -0.00005057    0.00001014    0.00003435
     atom   25 type  1   force =    -0.00000911   -0.00000184   -0.00001196
     atom   26 type  1   force =    -0.00007001   -0.00001574    0.00007783
     atom   27 type  4   force =    -0.00008728    0.00000597    0.00007694
     atom   28 type  1   force =    -0.00000138   -0.00004502    0.00001617
     atom   29 type  3   force =     0.00000532   -0.00000337    0.00000128
     atom   30 type  3   force =     0.00001021   -0.00000053    0.00000191
     atom   31 type  2   force =     0.00004318   -0.00002490    0.00000489
     atom   32 type  4   force =     0.00008153   -0.00001369   -0.00000759
     atom   33 type  3   force =    -0.00000219   -0.00000283    0.00000627
     atom   34 type  3   force =     0.00000156   -0.00000015    0.00000546
     atom   35 type  2   force =     0.00000222   -0.00002867    0.00003538
     atom   36 type  4   force =    -0.00001962   -0.00000258    0.00003071
     atom   37 type  1   force =     0.00012455   -0.00000614   -0.00002926
     atom   38 type  4   force =     0.00005057    0.00001014   -0.00003435
     atom   39 type  1   force =     0.00000911   -0.00000184    0.00001196
     atom   40 type  1   force =     0.00007001   -0.00001574   -0.00007783
     atom   41 type  4   force =     0.00008728    0.00000597   -0.00007694
     atom   42 type  1   force =     0.00000138   -0.00004502   -0.00001617
     atom   43 type  3   force =     0.00000532    0.00000337    0.00000128
     atom   44 type  3   force =     0.00001021    0.00000053    0.00000191
     atom   45 type  2   force =     0.00004318    0.00002490    0.00000489
     atom   46 type  4   force =     0.00008153    0.00001369   -0.00000759
     atom   47 type  3   force =    -0.00000219    0.00000283    0.00000627
     atom   48 type  3   force =     0.00000156    0.00000015    0.00000546
     atom   49 type  2   force =     0.00000222    0.00002867    0.00003538
     atom   50 type  4   force =    -0.00001962    0.00000258    0.00003071
     atom   51 type  1   force =     0.00012455    0.00000614   -0.00002926
     atom   52 type  4   force =     0.00005057   -0.00001014   -0.00003435
     atom   53 type  1   force =     0.00000911    0.00000184    0.00001196
     atom   54 type  1   force =     0.00007001    0.00001574   -0.00007783
     atom   55 type  4   force =     0.00008728   -0.00000597   -0.00007694
     atom   56 type  1   force =     0.00000138    0.00004502   -0.00001617

     Total force =     1.112564     Total SCF correction =     0.000492


     entering subroutine stress ...

          total   stress  (Ry/bohr**3)                   (kbar)     P=  135.75
   0.00094679   0.00000000   0.00012117        139.28      0.00     17.82
   0.00000000   0.00094181   0.00000000          0.00    138.55      0.00
   0.00012117   0.00000000   0.00087991         17.82      0.00    129.44

     kinetic stress (kbar)  15224.66      0.00    328.88
                                0.00  15648.11      0.00
                              328.88      0.00  15196.51

     local   stress (kbar) -15766.73     -0.00   7885.48
                               -0.00  -8791.67      0.00
                             7885.48      0.00 -11879.87

     nonloc. stress (kbar)   1029.37      0.00     10.87
                                0.00   1039.39      0.00
                               10.87      0.00    999.83

     hartree stress (kbar)   7095.00     -0.00  -2881.97
                               -0.00   5049.17      0.00
                            -2881.97      0.00   5623.68

     exc-cor stress (kbar)  -2196.64     -0.00    -10.91
                               -0.00  -2217.11     -0.00
                              -10.91     -0.00  -2202.60

     corecor stress (kbar)  -1141.52     -0.00     -2.78
                               -0.00  -1143.56     -0.00
                               -2.78     -0.00  -1141.22

     ewald   stress (kbar)  -4104.85     -0.00  -5311.74
                               -0.00  -9445.78      0.00
                            -5311.74      0.00  -6466.90

     hubbard stress (kbar)      0.00      0.00      0.00
                                0.00      0.00      0.00
                                0.00      0.00      0.00

     london  stress (kbar)      0.00      0.00      0.00
                                0.00      0.00      0.00
                                0.00      0.00      0.00

     XDM     stress (kbar)      0.00      0.00      0.00
                                0.00      0.00      0.00
                                0.00      0.00      0.00

     dft-nl  stress (kbar)      0.00      0.00      0.00
                                0.00      0.00      0.00
                                0.00      0.00      0.00

     TS-vdW  stress (kbar)      0.00      0.00      0.00
                                0.00      0.00      0.00
                                0.00      0.00      0.00



     Writing output data file scf.pbe.ec-60.kp-444.HMX-792931.np-8.default-conv-thr.save

     init_run     :    165.57s CPU    187.13s WALL (       1 calls)
     electrons    :   5140.49s CPU   6059.25s WALL (       1 calls)
     forces       :     95.96s CPU    105.99s WALL (       1 calls)
     stress       :    288.15s CPU    294.88s WALL (       1 calls)

     Called by init_run:
     wfcinit      :    113.83s CPU    129.86s WALL (       1 calls)
     potinit      :     17.19s CPU     18.25s WALL (       1 calls)

     Called by electrons:
     c_bands      :   4456.31s CPU   5230.87s WALL (      16 calls)
     sum_band     :    599.22s CPU    724.87s WALL (      16 calls)
     v_of_rho     :     15.92s CPU     20.39s WALL (      17 calls)
     v_h          :      1.42s CPU      1.57s WALL (      17 calls)
     v_xc         :     16.26s CPU     20.64s WALL (      19 calls)
     newd         :     57.38s CPU     70.27s WALL (      17 calls)
     PAW_pot      :     11.66s CPU     12.65s WALL (      17 calls)
     mix_rho      :      3.35s CPU      4.34s WALL (      16 calls)

     Called by c_bands:
     init_us_2    :     20.27s CPU     21.22s WALL (     560 calls)
     cegterg      :   4420.97s CPU   5180.78s WALL (     256 calls)

     Called by sum_band:
     sum_band:bec :      0.30s CPU      0.29s WALL (     256 calls)
     addusdens    :    102.45s CPU    147.10s WALL (      16 calls)

     Called by *egterg:
     h_psi        :   2203.77s CPU   2607.58s WALL (    1378 calls)
     s_psi        :    499.40s CPU    531.27s WALL (    1378 calls)
     g_psi        :      3.35s CPU      4.42s WALL (    1106 calls)
     cdiaghg      :    336.39s CPU    361.30s WALL (    1362 calls)
     cegterg:over :    608.64s CPU    761.29s WALL (    1106 calls)
     cegterg:upda :    317.81s CPU    333.09s WALL (    1106 calls)
     cegterg:last :    184.32s CPU    202.89s WALL (     272 calls)

     Called by h_psi:
     h_psi:vloc   :   1116.26s CPU   1367.57s WALL (    1378 calls)
     h_psi:vnl    :   1076.85s CPU   1228.81s WALL (    1378 calls)
     add_vuspsi   :    502.10s CPU    549.91s WALL (    1378 calls)

     General routines
     calbec       :    824.61s CPU    969.33s WALL (    1714 calls)
     fft          :     18.17s CPU     26.08s WALL (     293 calls)
     ffts         :      0.19s CPU      0.27s WALL (      33 calls)
     fftw         :    794.01s CPU   1069.04s WALL (  204506 calls)
     interpolate  :      2.88s CPU      3.22s WALL (      33 calls)
     davcio       :      0.36s CPU      8.21s WALL (      16 calls)

     Parallel routines
     fft_scatter  :    450.43s CPU    716.82s WALL (  204832 calls)

     PAW routines
     PAW_pot      :     11.66s CPU     12.65s WALL (      17 calls)
     PAW_symme    :      0.02s CPU      0.02s WALL (      33 calls)

     PWSCF        :     1h34m CPU        1h50m WALL


   This run was terminated on:   9: 9: 3  25Jun2016            

=------------------------------------------------------------------------------=
   JOB DONE.
=------------------------------------------------------------------------------=
