
     Program PWSCF v.5.3.0 (svn rev. 11974) starts on 20Jul2016 at 20:34: 2 

     This program is part of the open-source Quantum ESPRESSO suite
     for quantum simulation of materials; please cite
         "P. Giannozzi et al., J. Phys.:Condens. Matter 21 395502 (2009);
          URL http://www.quantum-espresso.org", 
     in publications or presentations arising from this work. More details at
     http://www.quantum-espresso.org/quote

     Parallel version (MPI), running on    32 processors
     R & G space division:  proc/nbgrp/npool/nimage =      32
     Waiting for input...
     Reading input from standard input
Warning: card     &CELL ignored
Warning: card CELL_DYNAMICS='BFGS' ignored
Warning: card / ignored

     Current dimensions of program PWSCF are:
     Max number of different atomic species (ntypx) = 10
     Max number of k-points (npk) =  40000
     Max angular momentum in pseudopotentials (lmaxx) =  3
               file N.pbe-n-kjpaw_psl.1.0.0.UPF: wavefunction(s)  2S renormalized
               file C.pbe-n-kjpaw_psl.1.0.0.UPF: wavefunction(s)  2S 2P renormalized
               file H.pbe-kjpaw_psl.1.0.0.UPF: wavefunction(s)  1S renormalized
               file O.pbe-n-kjpaw_psl.1.0.0.UPF: wavefunction(s)  2S 2P renormalized

     Subspace diagonalization in iterative solution of the eigenvalue problem:
     a serial algorithm will be used


     Parallelization info
     --------------------
     sticks:   dense  smooth     PW     G-vecs:    dense   smooth      PW
     Min         505     202     54                41089    10379    1433
     Max         506     203     55                41093    10414    1436
     Sum       16183    6479   1737              1314913   332625   45891


     Title: 
     HMX-relax--kp-4x2x4-ec-80-default-conv-thr                                 


     bravais-lattice index     =            0
     lattice parameter (alat)  =       1.8897  a.u.
     unit-cell volume          =    3441.1511 (a.u.)^3
     number of atoms/cell      =           56
     number of atomic types    =            4
     number of electrons       =       224.00
     number of Kohn-Sham states=          112
     kinetic-energy cutoff     =      80.0000  Ry
     charge density cutoff     =     800.0000  Ry
     convergence threshold     =      1.0E-06
     mixing beta               =       0.7000
     number of iterations used =            8  plain     mixing
     Exchange-correlation      =  SLA  PW   PBX  PBC ( 1  4  3  4 0 0)
     nstep                     =           50


     celldm(1)=   1.889726  celldm(2)=   0.000000  celldm(3)=   0.000000
     celldm(4)=   0.000000  celldm(5)=   0.000000  celldm(6)=   0.000000

     crystal axes: (cart. coord. in units of alat)
               a(1) = (   6.520600   0.000000   0.000000 )  
               a(2) = (   0.000000  10.912300   0.000000 )  
               a(3) = (  -1.584431   0.000000   7.166438 )  

     reciprocal axes: (cart. coord. in units 2 pi/alat)
               b(1) = (  0.153360 -0.000000  0.033906 )  
               b(2) = (  0.000000  0.091640 -0.000000 )  
               b(3) = (  0.000000  0.000000  0.139539 )  


     PseudoPot. # 1 for  N read from file:
     /users/majewski/.data/PSEUDOPOTENTIALS/N.pbe-n-kjpaw_psl.1.0.0.UPF
     MD5 check sum: c21df8f53e59d08c3548513d559cdda6
     Pseudo is Projector augmented-wave + core cor, Zval =  5.0
     Generated using "atomic" code by A. Dal Corso  v.5.3.0 svn rev. 11974
     Shape of augmentation charge: PSQ
     Using radial grid of 1085 points,  4 beta functions with: 
                l(1) =   0
                l(2) =   0
                l(3) =   1
                l(4) =   1
     Q(r) pseudized with 0 coefficients 


     PseudoPot. # 2 for  C read from file:
     /users/majewski/.data/PSEUDOPOTENTIALS/C.pbe-n-kjpaw_psl.1.0.0.UPF
     MD5 check sum: 2ba8448e293caca687844dde9a1b88a8
     Pseudo is Projector augmented-wave + core cor, Zval =  4.0
     Generated using "atomic" code by A. Dal Corso  v.5.3.0 svn rev. 11974
     Shape of augmentation charge: PSQ
     Using radial grid of 1073 points,  4 beta functions with: 
                l(1) =   0
                l(2) =   0
                l(3) =   1
                l(4) =   1
     Q(r) pseudized with 0 coefficients 


     PseudoPot. # 3 for  H read from file:
     /users/majewski/.data/PSEUDOPOTENTIALS/H.pbe-kjpaw_psl.1.0.0.UPF
     MD5 check sum: bc0feb48a24907a0b97fa6ee2d589a29
     Pseudo is Projector augmented-wave, Zval =  1.0
     Generated using "atomic" code by A. Dal Corso  v.5.3.0 svn rev. 11974
     Shape of augmentation charge: PSQ
     Using radial grid of  929 points,  2 beta functions with: 
                l(1) =   0
                l(2) =   0
     Q(r) pseudized with 0 coefficients 


     PseudoPot. # 4 for  O read from file:
     /users/majewski/.data/PSEUDOPOTENTIALS/O.pbe-n-kjpaw_psl.1.0.0.UPF
     MD5 check sum: 9c0ade6c043cf4a781bde3908a3a8206
     Pseudo is Projector augmented-wave + core cor, Zval =  6.0
     Generated using "atomic" code by A. Dal Corso  v.5.3.0 svn rev. 11974
     Shape of augmentation charge: PSQ
     Using radial grid of 1095 points,  4 beta functions with: 
                l(1) =   0
                l(2) =   0
                l(3) =   1
                l(4) =   1
     Q(r) pseudized with 0 coefficients 


     atomic species   valence    mass     pseudopotential
        N              5.00    14.00670      N( 1.00)
        C              4.00    12.01100      C( 1.00)
        H              1.00     1.00790      H( 1.00)
        O              6.00    15.99940      O( 1.00)

      2 Sym. Ops., with inversion, found
          (note:  2 additional sym.ops. were found but ignored
           their fractional translations are incommensurate with FFT grid)

                                    s                        frac. trans.

      isym =  1     identity                                     

 cryst.   s( 1) = (     1          0          0      )
                  (     0          1          0      )
                  (     0          0          1      )

 cart.    s( 1) = (  1.0000000  0.0000000  0.0000000 )
                  (  0.0000000  1.0000000  0.0000000 )
                  (  0.0000000  0.0000000  1.0000000 )


      isym =  2     inversion                                    

 cryst.   s( 2) = (    -1          0          0      )
                  (     0         -1          0      )
                  (     0          0         -1      )

 cart.    s( 2) = ( -1.0000000  0.0000000  0.0000000 )
                  (  0.0000000 -1.0000000  0.0000000 )
                  (  0.0000000  0.0000000 -1.0000000 )


   Cartesian axes

     site n.     atom                  positions (alat units)
         1           N   tau(   1) = (  -0.8514256   6.7994541   3.2965616  )
         2           O   tau(   2) = (   1.0861733   7.8571834   3.1181173  )
         3           N   tau(   3) = (   0.0767309   7.6782216   3.7996456  )
         4           N   tau(   4) = (  -2.0523401   5.7423796   5.0623720  )
         5           O   tau(   5) = (  -3.2492170   4.6814858   6.6152675  )
         6           N   tau(   6) = (  -3.2346090   5.4771016   5.6880021  )
         7           O   tau(   7) = (  -0.1591847   8.1664380   4.8932441  )
         8           C   tau(   8) = (  -2.1226123   6.7208856   3.9616071  )
         9           H   tau(   9) = (  -2.8210125   6.4469868   3.3159110  )
        10           H   tau(  10) = (  -2.3671219   7.6102380   4.3213623  )
        11           O   tau(  11) = (  -4.2070896   6.1208182   5.2845316  )
        12           C   tau(  12) = (  -0.5868989   6.1719969   2.0116192  )
        13           H   tau(  13) = (  -1.4066974   5.7518733   1.7056123  )
        14           H   tau(  14) = (  -0.3093298   6.8136401   1.3401240  )
        15           H   tau(  15) = (   3.7431858  -1.3574901  -2.2430952  )
        16           H   tau(  16) = (   2.6458182  -0.2957233  -1.8776068  )
        17           C   tau(  17) = (   3.4656167  -0.7158469  -1.5715999  )
        18           O   tau(  18) = (  -0.1545740  -0.6646682   1.7013125  )
        19           H   tau(  19) = (   1.6853937  -2.1540880   0.7381431  )
        20           H   tau(  20) = (   1.2315032  -0.9908368  -0.2673081  )
        21           C   tau(  21) = (   1.9299033  -1.2647356   0.3783879  )
        22           O   tau(  22) = (   3.8933309  -2.7102880   1.3100249  )
        23           N   tau(  23) = (   0.8179066  -0.0209516   2.1047829  )
        24           O   tau(  24) = (   0.8032986   0.7746642   3.0320484  )
        25           N   tau(  25) = (   2.0001755  -0.2862296   1.4791529  )
        26           N   tau(  26) = (   4.1292465  -2.2220716   0.2164264  )
        27           O   tau(  27) = (   5.1386890  -2.4010334  -0.4651018  )
        28           N   tau(  28) = (   3.2010900  -1.3433041  -0.2866575  )
        29           H   tau(  29) = (  -1.2751014   4.0986599   5.8263143  )
        30           H   tau(  30) = (  -0.1777339   5.1604267   5.4608260  )
        31           C   tau(  31) = (  -0.9975323   4.7403031   5.1548191  )
        32           O   tau(  32) = (   2.6226584   4.7914818   1.8819067  )
        33           H   tau(  33) = (   0.7826907   3.3020620   2.8450760  )
        34           H   tau(  34) = (   1.2365812   4.4653132   3.8505273  )
        35           C   tau(  35) = (   0.5381811   4.1914144   3.2048312  )
        36           O   tau(  36) = (  -1.4252465   2.7458620   2.2731942  )
        37           N   tau(  37) = (   1.6501778   5.4351984   1.4784362  )
        38           O   tau(  38) = (   1.6647858   6.2308142   0.5511708  )
        39           N   tau(  39) = (   0.4679088   5.1699204   2.1040663  )
        40           N   tau(  40) = (  -1.6611622   3.2340784   3.3667927  )
        41           O   tau(  41) = (  -2.6706046   3.0551166   4.0483210  )
        42           N   tau(  42) = (  -0.7330056   4.1128459   3.8698767  )
        43           H   tau(  43) = (   2.7774142   1.3574901   2.2430952  )
        44           H   tau(  44) = (   3.8747818   0.2957233   1.8776068  )
        45           C   tau(  45) = (   3.0549833   0.7158469   1.5715999  )
        46           O   tau(  46) = (   6.6751740   0.6646682  -1.7013125  )
        47           H   tau(  47) = (   4.8352063   2.1540880  -0.7381431  )
        48           H   tau(  48) = (   5.2890968   0.9908368   0.2673081  )
        49           C   tau(  49) = (   4.5906967   1.2647356  -0.3783879  )
        50           O   tau(  50) = (   2.6272691   2.7102880  -1.3100249  )
        51           N   tau(  51) = (   5.7026934   0.0209516  -2.1047829  )
        52           O   tau(  52) = (   5.7173014  -0.7746642  -3.0320484  )
        53           N   tau(  53) = (   4.5204245   0.2862296  -1.4791529  )
        54           N   tau(  54) = (   2.3913535   2.2220716  -0.2164264  )
        55           O   tau(  55) = (   1.3819110   2.4010334   0.4651018  )
        56           N   tau(  56) = (   3.3195100   1.3433041   0.2866575  )

   Crystallographic axes

     site n.     atom                  positions (cryst. coord.)
         1           N   tau(   1) = ( -0.0188000  0.6231000  0.4600000  )
         2           O   tau(   2) = (  0.2723000  0.7200300  0.4351000  )
         3           N   tau(   3) = (  0.1406000  0.7036300  0.5302000  )
         4           N   tau(   4) = ( -0.1431000  0.5262300  0.7064000  )
         5           O   tau(   5) = ( -0.2740000  0.4290100  0.9230900  )
         6           N   tau(   6) = ( -0.3032000  0.5019200  0.7937000  )
         7           O   tau(   7) = (  0.1415000  0.7483700  0.6828000  )
         8           C   tau(   8) = ( -0.1912000  0.6159000  0.5528000  )
         9           H   tau(   9) = ( -0.3202000  0.5908000  0.4627000  )
        10           H   tau(  10) = ( -0.2165000  0.6974000  0.6030000  )
        11           O   tau(  11) = ( -0.4660200  0.5609100  0.7374000  )
        12           C   tau(  12) = ( -0.0218000  0.5656000  0.2807000  )
        13           H   tau(  13) = ( -0.1579000  0.5271000  0.2380000  )
        14           H   tau(  14) = ( -0.0020000  0.6244000  0.1870000  )
        15           H   tau(  15) = (  0.4980000 -0.1244000 -0.3130000  )
        16           H   tau(  16) = (  0.3421000 -0.0271000 -0.2620000  )
        17           C   tau(  17) = (  0.4782000 -0.0656000 -0.2193000  )
        18           O   tau(  18) = (  0.0339800 -0.0609100  0.2374000  )
        19           H   tau(  19) = (  0.2835000 -0.1974000  0.1030000  )
        20           H   tau(  20) = (  0.1798000 -0.0908000 -0.0373000  )
        21           C   tau(  21) = (  0.3088000 -0.1159000  0.0528000  )
        22           O   tau(  22) = (  0.6415000 -0.2483700  0.1828000  )
        23           N   tau(  23) = (  0.1968000 -0.0019200  0.2937000  )
        24           O   tau(  24) = (  0.2260000  0.0709900  0.4230900  )
        25           N   tau(  25) = (  0.3569000 -0.0262300  0.2064000  )
        26           N   tau(  26) = (  0.6406000 -0.2036300  0.0302000  )
        27           O   tau(  27) = (  0.7723000 -0.2200300 -0.0649000  )
        28           N   tau(  28) = (  0.4812000 -0.1231000 -0.0400000  )
        29           H   tau(  29) = (  0.0020000  0.3756000  0.8130000  )
        30           H   tau(  30) = (  0.1579000  0.4729000  0.7620000  )
        31           C   tau(  31) = (  0.0218000  0.4344000  0.7193000  )
        32           O   tau(  32) = (  0.4660200  0.4390900  0.2626000  )
        33           H   tau(  33) = (  0.2165000  0.3026000  0.3970000  )
        34           H   tau(  34) = (  0.3202000  0.4092000  0.5373000  )
        35           C   tau(  35) = (  0.1912000  0.3841000  0.4472000  )
        36           O   tau(  36) = ( -0.1415000  0.2516300  0.3172000  )
        37           N   tau(  37) = (  0.3032000  0.4980800  0.2063000  )
        38           O   tau(  38) = (  0.2740000  0.5709900  0.0769100  )
        39           N   tau(  39) = (  0.1431000  0.4737700  0.2936000  )
        40           N   tau(  40) = ( -0.1406000  0.2963700  0.4698000  )
        41           O   tau(  41) = ( -0.2723000  0.2799700  0.5649000  )
        42           N   tau(  42) = (  0.0188000  0.3769000  0.5400000  )
        43           H   tau(  43) = (  0.5020000  0.1244000  0.3130000  )
        44           H   tau(  44) = (  0.6579000  0.0271000  0.2620000  )
        45           C   tau(  45) = (  0.5218000  0.0656000  0.2193000  )
        46           O   tau(  46) = (  0.9660200  0.0609100 -0.2374000  )
        47           H   tau(  47) = (  0.7165000  0.1974000 -0.1030000  )
        48           H   tau(  48) = (  0.8202000  0.0908000  0.0373000  )
        49           C   tau(  49) = (  0.6912000  0.1159000 -0.0528000  )
        50           O   tau(  50) = (  0.3585000  0.2483700 -0.1828000  )
        51           N   tau(  51) = (  0.8032000  0.0019200 -0.2937000  )
        52           O   tau(  52) = (  0.7740000 -0.0709900 -0.4230900  )
        53           N   tau(  53) = (  0.6431000  0.0262300 -0.2064000  )
        54           N   tau(  54) = (  0.3594000  0.2036300 -0.0302000  )
        55           O   tau(  55) = (  0.2277000  0.2200300  0.0649000  )
        56           N   tau(  56) = (  0.5188000  0.1231000  0.0400000  )

     number of k points=    16
                       cart. coord. in units 2pi/alat
        k(    1) = (   0.0191700   0.0229099   0.0216807), wk =   0.1250000
        k(    2) = (   0.0191700   0.0229099   0.0565656), wk =   0.1250000
        k(    3) = (   0.0191700   0.0229099  -0.0480889), wk =   0.1250000
        k(    4) = (   0.0191700   0.0229099  -0.0132041), wk =   0.1250000
        k(    5) = (   0.0575100   0.0229099   0.0301573), wk =   0.1250000
        k(    6) = (   0.0575100   0.0229099   0.0650422), wk =   0.1250000
        k(    7) = (   0.0575100   0.0229099  -0.0396123), wk =   0.1250000
        k(    8) = (   0.0575100   0.0229099  -0.0047275), wk =   0.1250000
        k(    9) = (  -0.0191700   0.0229099  -0.0216807), wk =   0.1250000
        k(   10) = (  -0.0191700   0.0229099  -0.0565656), wk =   0.1250000
        k(   11) = (  -0.0191700   0.0229099   0.0480889), wk =   0.1250000
        k(   12) = (  -0.0191700   0.0229099   0.0132041), wk =   0.1250000
        k(   13) = (  -0.0575100   0.0229099  -0.0301573), wk =   0.1250000
        k(   14) = (  -0.0575100   0.0229099  -0.0650422), wk =   0.1250000
        k(   15) = (  -0.0575100   0.0229099   0.0396123), wk =   0.1250000
        k(   16) = (  -0.0575100   0.0229099   0.0047275), wk =   0.1250000

                       cryst. coord.
        k(    1) = (   0.1250000   0.2500000   0.1250000), wk =   0.1250000
        k(    2) = (   0.1250000   0.2500000   0.3750000), wk =   0.1250000
        k(    3) = (   0.1250000   0.2500000  -0.3750000), wk =   0.1250000
        k(    4) = (   0.1250000   0.2500000  -0.1250000), wk =   0.1250000
        k(    5) = (   0.3750000   0.2500000   0.1250000), wk =   0.1250000
        k(    6) = (   0.3750000   0.2500000   0.3750000), wk =   0.1250000
        k(    7) = (   0.3750000   0.2500000  -0.3750000), wk =   0.1250000
        k(    8) = (   0.3750000   0.2500000  -0.1250000), wk =   0.1250000
        k(    9) = (  -0.1250000   0.2500000  -0.1250000), wk =   0.1250000
        k(   10) = (  -0.1250000   0.2500000  -0.3750000), wk =   0.1250000
        k(   11) = (  -0.1250000   0.2500000   0.3750000), wk =   0.1250000
        k(   12) = (  -0.1250000   0.2500000   0.1250000), wk =   0.1250000
        k(   13) = (  -0.3750000   0.2500000  -0.1250000), wk =   0.1250000
        k(   14) = (  -0.3750000   0.2500000  -0.3750000), wk =   0.1250000
        k(   15) = (  -0.3750000   0.2500000   0.3750000), wk =   0.1250000
        k(   16) = (  -0.3750000   0.2500000   0.1250000), wk =   0.1250000

     Dense  grid:  1314913 G-vectors     FFT dimensions: ( 120, 192, 125)

     Smooth grid:   332625 G-vectors     FFT dimensions: (  72, 120,  80)

     Largest allocated arrays     est. size (Mb)     dimensions
        Kohn-Sham Wavefunctions         2.23 Mb     (    1306,  112)
        NL pseudopotentials             7.01 Mb     (    1306,  352)
        Each V/rho on FFT grid          1.41 Mb     (   92160)
        Each G-vector array             0.31 Mb     (   41093)
        G-vector shells                 0.30 Mb     (   39876)
     Largest temporary arrays     est. size (Mb)     dimensions
        Auxiliary wavefunctions         8.93 Mb     (    1306,  448)
        Each subspace H/S matrix        3.06 Mb     (     448,  448)
        Each <psi_i|beta_j> matrix      0.60 Mb     (     352,  112)
        Arrays for rho mixing          11.25 Mb     (   92160,    8)

     Initial potential from superposition of free atoms

     starting charge  223.99937, renormalised to  224.00000
     Starting wfc are  176 randomized atomic wfcs
     Checking if some PAW data can be deallocated... 
       node    0, deallocated PAW data for type:  2
       node    0, deallocated PAW data for type:  3
       node    1, deallocated PAW data for type:  2
       node    1, deallocated PAW data for type:  3
       node    1, deallocated PAW data for type:  4
       node    2, deallocated PAW data for type:  2
       node    2, deallocated PAW data for type:  3
       node    3, deallocated PAW data for type:  1
       node    3, deallocated PAW data for type:  3
       node    4, deallocated PAW data for type:  1
       node    4, deallocated PAW data for type:  2
       node    4, deallocated PAW data for type:  4
       node    5, deallocated PAW data for type:  1
       node    5, deallocated PAW data for type:  3
       node    6, deallocated PAW data for type:  1
       node    6, deallocated PAW data for type:  2
       node    6, deallocated PAW data for type:  4
       node    7, deallocated PAW data for type:  1
       node    7, deallocated PAW data for type:  2
       node    7, deallocated PAW data for type:  4
       node    8, deallocated PAW data for type:  1
       node    8, deallocated PAW data for type:  3
       node    9, deallocated PAW data for type:  1
       node    9, deallocated PAW data for type:  2
       node    9, deallocated PAW data for type:  4
       node   10, deallocated PAW data for type:  1
       node   10, deallocated PAW data for type:  3
       node   11, deallocated PAW data for type:  2
       node   11, deallocated PAW data for type:  3
       node   12, deallocated PAW data for type:  2
       node   12, deallocated PAW data for type:  3
       node   12, deallocated PAW data for type:  4
       node   13, deallocated PAW data for type:  2
       node   13, deallocated PAW data for type:  3
       node   14, deallocated PAW data for type:  1
       node   14, deallocated PAW data for type:  2
       node   14, deallocated PAW data for type:  4
       node   15, deallocated PAW data for type:  1
       node   15, deallocated PAW data for type:  3
       node   16, deallocated PAW data for type:  1
       node   16, deallocated PAW data for type:  2
       node   16, deallocated PAW data for type:  4
       node   17, deallocated PAW data for type:  1
       node   17, deallocated PAW data for type:  3
       node   18, deallocated PAW data for type:  2
       node   18, deallocated PAW data for type:  3
       node   19, deallocated PAW data for type:  2
       node   19, deallocated PAW data for type:  3
       node   19, deallocated PAW data for type:  4
       node   20, deallocated PAW data for type:  2
       node   20, deallocated PAW data for type:  3
       node   21, deallocated PAW data for type:  1
       node   21, deallocated PAW data for type:  2
       node   21, deallocated PAW data for type:  4
       node   22, deallocated PAW data for type:  1
       node   22, deallocated PAW data for type:  3
       node   23, deallocated PAW data for type:  1
       node   23, deallocated PAW data for type:  2
       node   23, deallocated PAW data for type:  4
       node   24, deallocated PAW data for type:  1
       node   24, deallocated PAW data for type:  3
       node   24, deallocated PAW data for type:  4
       node   25, deallocated PAW data for type:  1
       node   25, deallocated PAW data for type:  2
       node   25, deallocated PAW data for type:  3
       node   26, deallocated PAW data for type:  2
       node   26, deallocated PAW data for type:  3
       node   26, deallocated PAW data for type:  4
       node   27, deallocated PAW data for type:  1
       node   27, deallocated PAW data for type:  2
       node   27, deallocated PAW data for type:  3
       node   28, deallocated PAW data for type:  2
       node   28, deallocated PAW data for type:  3
       node   28, deallocated PAW data for type:  4
       node   29, deallocated PAW data for type:  2
       node   29, deallocated PAW data for type:  3
       node   29, deallocated PAW data for type:  4
       node   30, deallocated PAW data for type:  1
       node   30, deallocated PAW data for type:  2
       node   30, deallocated PAW data for type:  3
       node   31, deallocated PAW data for type:  2
       node   31, deallocated PAW data for type:  3
       node   31, deallocated PAW data for type:  4

     total cpu time spent up to now is      115.8 secs

     per-process dynamical memory:    80.3 Mb

     Self-consistent Calculation

     iteration #  1     ecut=    80.00 Ry     beta=0.70
     Davidson diagonalization with overlap
     ethr =  1.00E-02,  avg # of iterations =  3.0

     total cpu time spent up to now is      274.8 secs

     total energy              =   -1279.66949917 Ry
     Harris-Foulkes estimate   =   -1283.97401116 Ry
     estimated scf accuracy    <       6.63051147 Ry

     iteration #  2     ecut=    80.00 Ry     beta=0.70
     Davidson diagonalization with overlap
     ethr =  2.96E-03,  avg # of iterations =  4.0

     total cpu time spent up to now is      459.6 secs

     total energy              =   -1280.33885533 Ry
     Harris-Foulkes estimate   =   -1283.83431581 Ry
     estimated scf accuracy    <       7.06731138 Ry

     iteration #  3     ecut=    80.00 Ry     beta=0.70
     Davidson diagonalization with overlap
     ethr =  2.96E-03,  avg # of iterations =  4.6

     total cpu time spent up to now is      599.0 secs

     total energy              =   -1281.85226728 Ry
     Harris-Foulkes estimate   =   -1282.07950538 Ry
     estimated scf accuracy    <       0.42165268 Ry

     iteration #  4     ecut=    80.00 Ry     beta=0.70
     Davidson diagonalization with overlap
     ethr =  1.88E-04,  avg # of iterations =  4.9

     total cpu time spent up to now is      795.6 secs

     total energy              =   -1281.99548823 Ry
     Harris-Foulkes estimate   =   -1282.08357844 Ry
     estimated scf accuracy    <       0.19502276 Ry

     iteration #  5     ecut=    80.00 Ry     beta=0.70
     Davidson diagonalization with overlap
     ethr =  8.71E-05,  avg # of iterations =  4.0

     total cpu time spent up to now is      953.2 secs

     total energy              =   -1282.03537136 Ry
     Harris-Foulkes estimate   =   -1282.04390149 Ry
     estimated scf accuracy    <       0.02099826 Ry

     iteration #  6     ecut=    80.00 Ry     beta=0.70
     Davidson diagonalization with overlap
     ethr =  9.37E-06,  avg # of iterations =  5.6

     total cpu time spent up to now is     1082.0 secs

     total energy              =   -1282.03743836 Ry
     Harris-Foulkes estimate   =   -1282.03878644 Ry
     estimated scf accuracy    <       0.00346463 Ry

     iteration #  7     ecut=    80.00 Ry     beta=0.70
     Davidson diagonalization with overlap
     ethr =  1.55E-06,  avg # of iterations =  4.9

     total cpu time spent up to now is     1285.2 secs

     total energy              =   -1282.03977002 Ry
     Harris-Foulkes estimate   =   -1282.04074632 Ry
     estimated scf accuracy    <       0.00336044 Ry

     iteration #  8     ecut=    80.00 Ry     beta=0.70
     Davidson diagonalization with overlap
     ethr =  1.50E-06,  avg # of iterations =  1.0

     total cpu time spent up to now is     1386.5 secs

     total energy              =   -1282.03887497 Ry
     Harris-Foulkes estimate   =   -1282.03983305 Ry
     estimated scf accuracy    <       0.00180588 Ry

     iteration #  9     ecut=    80.00 Ry     beta=0.70
     Davidson diagonalization with overlap
     ethr =  8.06E-07,  avg # of iterations =  5.0

     total cpu time spent up to now is     1623.5 secs

     total energy              =   -1282.04008670 Ry
     Harris-Foulkes estimate   =   -1282.04108706 Ry
     estimated scf accuracy    <       0.00515276 Ry

     iteration # 10     ecut=    80.00 Ry     beta=0.70
     Davidson diagonalization with overlap
     ethr =  8.06E-07,  avg # of iterations =  1.0

     total cpu time spent up to now is     1714.6 secs

     total energy              =   -1282.03889165 Ry
     Harris-Foulkes estimate   =   -1282.04011786 Ry
     estimated scf accuracy    <       0.00353644 Ry

     iteration # 11     ecut=    80.00 Ry     beta=0.70
     Davidson diagonalization with overlap
     ethr =  8.06E-07,  avg # of iterations =  5.0

     total cpu time spent up to now is     1876.9 secs

     total energy              =   -1282.04005110 Ry
     Harris-Foulkes estimate   =   -1282.04023998 Ry
     estimated scf accuracy    <       0.00073883 Ry

     iteration # 12     ecut=    80.00 Ry     beta=0.70
     Davidson diagonalization with overlap
     ethr =  3.30E-07,  avg # of iterations =  1.0

     total cpu time spent up to now is     1964.1 secs

     total energy              =   -1282.03988448 Ry
     Harris-Foulkes estimate   =   -1282.04006078 Ry
     estimated scf accuracy    <       0.00043686 Ry

     iteration # 13     ecut=    80.00 Ry     beta=0.70
     Davidson diagonalization with overlap
     ethr =  1.95E-07,  avg # of iterations =  5.0

     total cpu time spent up to now is     2125.6 secs

     total energy              =   -1282.04010164 Ry
     Harris-Foulkes estimate   =   -1282.04016223 Ry
     estimated scf accuracy    <       0.00032160 Ry

     iteration # 14     ecut=    80.00 Ry     beta=0.70
     Davidson diagonalization with overlap
     ethr =  1.44E-07,  avg # of iterations =  1.0

     total cpu time spent up to now is     2218.6 secs

     total energy              =   -1282.04003777 Ry
     Harris-Foulkes estimate   =   -1282.04010361 Ry
     estimated scf accuracy    <       0.00022472 Ry

     iteration # 15     ecut=    80.00 Ry     beta=0.70
     Davidson diagonalization with overlap
     ethr =  1.00E-07,  avg # of iterations =  5.0

     total cpu time spent up to now is     2354.0 secs

     total energy              =   -1282.04011494 Ry
     Harris-Foulkes estimate   =   -1282.04010227 Ry
     estimated scf accuracy    <       0.00001362 Ry

     iteration # 16     ecut=    80.00 Ry     beta=0.70
     Davidson diagonalization with overlap
     ethr =  6.08E-09,  avg # of iterations =  5.0

     total cpu time spent up to now is     2542.8 secs

     total energy              =   -1282.04009475 Ry
     Harris-Foulkes estimate   =   -1282.04012539 Ry
     estimated scf accuracy    <       0.00013164 Ry

     iteration # 17     ecut=    80.00 Ry     beta=0.70
     Davidson diagonalization with overlap
     ethr =  6.08E-09,  avg # of iterations =  5.0

     total cpu time spent up to now is     2730.9 secs

     total energy              =   -1282.04009747 Ry
     Harris-Foulkes estimate   =   -1282.04010319 Ry
     estimated scf accuracy    <       0.00001591 Ry

     iteration # 18     ecut=    80.00 Ry     beta=0.70
     Davidson diagonalization with overlap
     ethr =  6.08E-09,  avg # of iterations =  2.2

     total cpu time spent up to now is     2834.5 secs

     total energy              =   -1282.04009778 Ry
     Harris-Foulkes estimate   =   -1282.04009808 Ry
     estimated scf accuracy    <       0.00000557 Ry

     iteration # 19     ecut=    80.00 Ry     beta=0.70
     Davidson diagonalization with overlap
     ethr =  2.49E-09,  avg # of iterations =  5.1

     total cpu time spent up to now is     2994.8 secs

     End of self-consistent calculation

          k = 0.0192 0.0229 0.0217 ( 41584 PWs)   bands (ev):

   -23.8689 -23.8508 -23.8321 -23.8254 -23.5842 -23.5764 -23.5752 -23.5724
   -19.1042 -19.1007 -19.0887 -19.0797 -18.7826 -18.7824 -18.7778 -18.7769
   -18.1694 -18.1492 -17.1360 -17.0959 -17.0020 -16.9999 -15.9817 -15.9715
   -12.0104 -12.0095 -11.9886 -11.9060 -11.8034 -11.7508 -11.6868 -11.6733
    -8.8148  -8.7839  -8.2015  -8.1718  -7.4870  -7.4520  -7.3595  -7.3547
    -6.7921  -6.7043  -6.5266  -6.4473  -6.4334  -6.3677  -6.2783  -6.2222
    -6.0765  -6.0460  -5.9764  -5.8991  -5.8429  -5.7681  -5.6966  -5.6649
    -5.5655  -5.5455  -5.4782  -5.4381  -5.0559  -4.9520  -4.8891  -4.8653
    -4.4014  -4.3907  -4.3385  -4.3092  -4.1347  -4.0452  -3.7850  -3.7753
    -3.6000  -3.4996  -3.4236  -3.3878  -3.0838  -3.0578  -2.9543  -2.9408
    -0.7418  -0.7374  -0.2498  -0.2413  -0.1630  -0.1088  -0.0559  -0.0467
     0.0538   0.0750   0.2407   0.2638   0.2874   0.3056   0.4438   0.4521
     0.4840   0.5151   0.7003   0.7464   0.8239   0.8490   0.9322   0.9706
     0.9840   1.0775   1.1353   1.1839   1.2913   1.3959   1.4313   1.4487

     occupation numbers 
     1.0000   1.0000   1.0000   1.0000   1.0000   1.0000   1.0000   1.0000
     1.0000   1.0000   1.0000   1.0000   1.0000   1.0000   1.0000   1.0000
     1.0000   1.0000   1.0000   1.0000   1.0000   1.0000   1.0000   1.0000
     1.0000   1.0000   1.0000   1.0000   1.0000   1.0000   1.0000   1.0000
     1.0000   1.0000   1.0000   1.0000   1.0000   1.0000   1.0000   1.0000
     1.0000   1.0000   1.0000   1.0000   1.0000   1.0000   1.0000   1.0000
     1.0000   1.0000   1.0000   1.0000   1.0000   1.0000   1.0000   1.0000
     1.0000   1.0000   1.0000   1.0000   1.0000   1.0000   1.0000   1.0000
     1.0000   1.0000   1.0000   1.0000   1.0000   1.0000   1.0000   1.0000
     1.0000   1.0000   1.0000   1.0000   1.0000   1.0000   1.0000   1.0000
     1.0000   1.0000   1.0000   1.0000   1.0000   1.0000   1.0000   1.0000
     1.0000   1.0000   1.0000   1.0000   1.0000   1.0000   1.0000   1.0000
     1.0000   1.0000   1.0000   1.0000   1.0000   1.0000   1.0000   1.0000
     1.0000   1.0000   1.0000   1.0000   1.0000   1.0000   1.0000   1.0000

          k = 0.0192 0.0229 0.0566 ( 41585 PWs)   bands (ev):

   -23.8612 -23.8534 -23.8310 -23.8301 -23.5865 -23.5838 -23.5716 -23.5678
   -19.1023 -19.0993 -19.0899 -19.0832 -18.7890 -18.7883 -18.7725 -18.7712
   -18.1600 -18.1597 -17.1171 -17.1150 -16.9977 -16.9955 -15.9784 -15.9768
   -12.0182 -12.0146 -11.9482 -11.9318 -11.7772 -11.7672 -11.6972 -11.6907
    -8.7949  -8.7664  -8.1833  -8.1632  -7.4990  -7.4582  -7.3307  -7.2679
    -6.8406  -6.7479  -6.5189  -6.4925  -6.4587  -6.3707  -6.3221  -6.2924
    -6.1056  -6.0702  -5.9198  -5.8473  -5.8224  -5.7646  -5.7391  -5.7035
    -5.6418  -5.5843  -5.4110  -5.3708  -5.0491  -4.9792  -4.8809  -4.8389
    -4.3436  -4.3298  -4.2841  -4.2347  -4.0680  -4.0400  -3.9015  -3.9007
    -3.5842  -3.5403  -3.3648  -3.3559  -3.1128  -3.1065  -2.9421  -2.9213
    -0.7043  -0.6780  -0.2632  -0.2492  -0.1727  -0.1360  -0.0841  -0.0668
    -0.0103   0.0238   0.1539   0.1974   0.2930   0.3388   0.3962   0.4133
     0.6152   0.6657   0.7225   0.7611   0.8366   0.8549   0.8852   0.9327
     1.0454   1.0797   1.1665   1.1852   1.2958   1.3520   1.4350   1.4560

     occupation numbers 
     1.0000   1.0000   1.0000   1.0000   1.0000   1.0000   1.0000   1.0000
     1.0000   1.0000   1.0000   1.0000   1.0000   1.0000   1.0000   1.0000
     1.0000   1.0000   1.0000   1.0000   1.0000   1.0000   1.0000   1.0000
     1.0000   1.0000   1.0000   1.0000   1.0000   1.0000   1.0000   1.0000
     1.0000   1.0000   1.0000   1.0000   1.0000   1.0000   1.0000   1.0000
     1.0000   1.0000   1.0000   1.0000   1.0000   1.0000   1.0000   1.0000
     1.0000   1.0000   1.0000   1.0000   1.0000   1.0000   1.0000   1.0000
     1.0000   1.0000   1.0000   1.0000   1.0000   1.0000   1.0000   1.0000
     1.0000   1.0000   1.0000   1.0000   1.0000   1.0000   1.0000   1.0000
     1.0000   1.0000   1.0000   1.0000   1.0000   1.0000   1.0000   1.0000
     1.0000   1.0000   1.0000   1.0000   1.0000   1.0000   1.0000   1.0000
     1.0000   1.0000   1.0000   1.0000   1.0000   1.0000   1.0000   1.0000
     1.0000   1.0000   1.0000   1.0000   1.0000   1.0000   1.0000   1.0000
     1.0000   1.0000   1.0000   1.0000   1.0000   1.0000   1.0000   1.0000

          k = 0.0192 0.0229-0.0481 ( 41584 PWs)   bands (ev):

   -23.8620 -23.8534 -23.8336 -23.8266 -23.5881 -23.5855 -23.5686 -23.5675
   -19.1002 -19.0989 -19.0884 -19.0875 -18.7905 -18.7899 -18.7708 -18.7696
   -18.1691 -18.1494 -17.1341 -17.0973 -17.0005 -16.9991 -15.9804 -15.9678
   -12.0307 -12.0159 -11.9737 -11.9113 -11.7935 -11.7403 -11.6971 -11.6898
    -8.7987  -8.7326  -8.1729  -8.1704  -7.4957  -7.4845  -7.3382  -7.2476
    -6.8442  -6.7576  -6.5360  -6.4841  -6.4464  -6.4141  -6.3438  -6.3122
    -6.1053  -6.0818  -5.9220  -5.8793  -5.7650  -5.7333  -5.7233  -5.6995
    -5.6382  -5.5770  -5.4053  -5.3578  -5.0652  -4.9870  -4.8627  -4.8183
    -4.3774  -4.3246  -4.2597  -4.2207  -4.0890  -4.0743  -3.9024  -3.8600
    -3.5842  -3.5456  -3.4100  -3.3435  -3.1154  -3.0956  -2.9397  -2.9297
    -0.6339  -0.5869  -0.2553  -0.2486  -0.2112  -0.1865  -0.1250  -0.1003
    -0.0469  -0.0309   0.1222   0.1830   0.3136   0.3425   0.3591   0.4060
     0.6632   0.7230   0.7673   0.7754   0.8079   0.8738   0.9102   0.9189
     1.0466   1.0827   1.1844   1.2281   1.2920   1.3137   1.4257   1.4415

     occupation numbers 
     1.0000   1.0000   1.0000   1.0000   1.0000   1.0000   1.0000   1.0000
     1.0000   1.0000   1.0000   1.0000   1.0000   1.0000   1.0000   1.0000
     1.0000   1.0000   1.0000   1.0000   1.0000   1.0000   1.0000   1.0000
     1.0000   1.0000   1.0000   1.0000   1.0000   1.0000   1.0000   1.0000
     1.0000   1.0000   1.0000   1.0000   1.0000   1.0000   1.0000   1.0000
     1.0000   1.0000   1.0000   1.0000   1.0000   1.0000   1.0000   1.0000
     1.0000   1.0000   1.0000   1.0000   1.0000   1.0000   1.0000   1.0000
     1.0000   1.0000   1.0000   1.0000   1.0000   1.0000   1.0000   1.0000
     1.0000   1.0000   1.0000   1.0000   1.0000   1.0000   1.0000   1.0000
     1.0000   1.0000   1.0000   1.0000   1.0000   1.0000   1.0000   1.0000
     1.0000   1.0000   1.0000   1.0000   1.0000   1.0000   1.0000   1.0000
     1.0000   1.0000   1.0000   1.0000   1.0000   1.0000   1.0000   1.0000
     1.0000   1.0000   1.0000   1.0000   1.0000   1.0000   1.0000   1.0000
     1.0000   1.0000   1.0000   1.0000   1.0000   1.0000   1.0000   1.0000

          k = 0.0192 0.0229-0.0132 ( 41606 PWs)   bands (ev):

   -23.8693 -23.8514 -23.8326 -23.8238 -23.5869 -23.5798 -23.5715 -23.5701
   -19.1031 -19.0995 -19.0891 -19.0818 -18.7862 -18.7858 -18.7738 -18.7738
   -18.1728 -18.1445 -17.1428 -17.0883 -17.0046 -17.0038 -15.9812 -15.9651
   -12.0297 -12.0129 -11.9884 -11.9057 -11.8010 -11.7406 -11.6844 -11.6733
    -8.8201  -8.7486  -8.1963  -8.1742  -7.4928  -7.4731  -7.3821  -7.3187
    -6.7584  -6.7359  -6.5433  -6.4496  -6.4343  -6.3988  -6.3109  -6.2558
    -6.0813  -6.0511  -5.9507  -5.9060  -5.8002  -5.7614  -5.6702  -5.6607
    -5.5754  -5.5394  -5.4499  -5.4424  -5.0433  -4.9942  -4.8635  -4.8337
    -4.4027  -4.3952  -4.3421  -4.3107  -4.1479  -4.0545  -3.7873  -3.7426
    -3.6184  -3.5086  -3.4347  -3.3890  -3.0900  -3.0523  -2.9501  -2.9481
    -0.6895  -0.6729  -0.2383  -0.2299  -0.1675  -0.1190  -0.0663  -0.0444
    -0.0258   0.0106   0.1366   0.1870   0.2559   0.3217   0.3922   0.4446
     0.6261   0.6628   0.6866   0.7720   0.8061   0.8569   0.9495   0.9551
     1.0004   1.0607   1.1648   1.2140   1.2807   1.3749   1.4171   1.4380

     occupation numbers 
     1.0000   1.0000   1.0000   1.0000   1.0000   1.0000   1.0000   1.0000
     1.0000   1.0000   1.0000   1.0000   1.0000   1.0000   1.0000   1.0000
     1.0000   1.0000   1.0000   1.0000   1.0000   1.0000   1.0000   1.0000
     1.0000   1.0000   1.0000   1.0000   1.0000   1.0000   1.0000   1.0000
     1.0000   1.0000   1.0000   1.0000   1.0000   1.0000   1.0000   1.0000
     1.0000   1.0000   1.0000   1.0000   1.0000   1.0000   1.0000   1.0000
     1.0000   1.0000   1.0000   1.0000   1.0000   1.0000   1.0000   1.0000
     1.0000   1.0000   1.0000   1.0000   1.0000   1.0000   1.0000   1.0000
     1.0000   1.0000   1.0000   1.0000   1.0000   1.0000   1.0000   1.0000
     1.0000   1.0000   1.0000   1.0000   1.0000   1.0000   1.0000   1.0000
     1.0000   1.0000   1.0000   1.0000   1.0000   1.0000   1.0000   1.0000
     1.0000   1.0000   1.0000   1.0000   1.0000   1.0000   1.0000   1.0000
     1.0000   1.0000   1.0000   1.0000   1.0000   1.0000   1.0000   1.0000
     1.0000   1.0000   1.0000   1.0000   1.0000   1.0000   1.0000   1.0000

          k = 0.0575 0.0229 0.0302 ( 41578 PWs)   bands (ev):

   -23.8584 -23.8500 -23.8319 -23.8312 -23.5834 -23.5808 -23.5763 -23.5723
   -19.1020 -19.0995 -19.0907 -19.0841 -18.7853 -18.7843 -18.7760 -18.7750
   -18.1664 -18.1661 -17.1149 -17.1131 -17.0019 -17.0003 -15.9793 -15.9774
   -12.0068 -12.0050 -11.9129 -11.8980 -11.7522 -11.7367 -11.6999 -11.6865
    -8.8152  -8.7888  -8.2006  -8.1827  -7.4767  -7.4584  -7.4255  -7.3793
    -6.9237  -6.8745  -6.5777  -6.4839  -6.3940  -6.3582  -6.2146  -6.1633
    -6.1413  -6.0856  -5.9400  -5.8860  -5.8281  -5.7813  -5.7048  -5.6713
    -5.5753  -5.5474  -5.4797  -5.4651  -5.0725  -4.9859  -4.8516  -4.8460
    -4.3839  -4.3624  -4.3154  -4.2805  -3.9342  -3.8912  -3.7294  -3.6951
    -3.6415  -3.5508  -3.4896  -3.4794  -3.0850  -3.0813  -2.9581  -2.9334
    -0.6927  -0.6821  -0.2322  -0.2257  -0.1645  -0.1393  -0.0549  -0.0229
    -0.0095   0.0205   0.1729   0.1968   0.2601   0.2827   0.4116   0.4294
     0.6468   0.6565   0.7126   0.7556   0.8340   0.8471   0.9285   0.9550
     1.0023   1.0487   1.0784   1.1207   1.3544   1.3797   1.4151   1.4443

     occupation numbers 
     1.0000   1.0000   1.0000   1.0000   1.0000   1.0000   1.0000   1.0000
     1.0000   1.0000   1.0000   1.0000   1.0000   1.0000   1.0000   1.0000
     1.0000   1.0000   1.0000   1.0000   1.0000   1.0000   1.0000   1.0000
     1.0000   1.0000   1.0000   1.0000   1.0000   1.0000   1.0000   1.0000
     1.0000   1.0000   1.0000   1.0000   1.0000   1.0000   1.0000   1.0000
     1.0000   1.0000   1.0000   1.0000   1.0000   1.0000   1.0000   1.0000
     1.0000   1.0000   1.0000   1.0000   1.0000   1.0000   1.0000   1.0000
     1.0000   1.0000   1.0000   1.0000   1.0000   1.0000   1.0000   1.0000
     1.0000   1.0000   1.0000   1.0000   1.0000   1.0000   1.0000   1.0000
     1.0000   1.0000   1.0000   1.0000   1.0000   1.0000   1.0000   1.0000
     1.0000   1.0000   1.0000   1.0000   1.0000   1.0000   1.0000   1.0000
     1.0000   1.0000   1.0000   1.0000   1.0000   1.0000   1.0000   1.0000
     1.0000   1.0000   1.0000   1.0000   1.0000   1.0000   1.0000   1.0000
     1.0000   1.0000   1.0000   1.0000   1.0000   1.0000   1.0000   1.0000

          k = 0.0575 0.0229 0.0650 ( 41572 PWs)   bands (ev):

   -23.8549 -23.8520 -23.8350 -23.8284 -23.5828 -23.5824 -23.5785 -23.5704
   -19.1027 -19.1009 -19.0910 -19.0832 -18.7952 -18.7933 -18.7684 -18.7656
   -18.1784 -18.1592 -17.1303 -17.0953 -16.9922 -16.9894 -15.9933 -15.9779
   -12.0223 -12.0151 -11.9362 -11.8779 -11.7445 -11.7130 -11.7032 -11.6883
    -8.8511  -8.7546  -8.1940  -8.1648  -7.4747  -7.4521  -7.3881  -7.2762
    -7.0092  -6.8501  -6.5667  -6.4436  -6.4185  -6.3871  -6.3369  -6.2396
    -6.1963  -6.1113  -5.9189  -5.8937  -5.8474  -5.8066  -5.7413  -5.6793
    -5.5569  -5.5191  -5.4239  -5.3658  -5.0817  -4.9534  -4.9133  -4.8591
    -4.3205  -4.2965  -4.2565  -4.2087  -3.8963  -3.8806  -3.8315  -3.8070
    -3.6621  -3.5852  -3.4778  -3.4060  -3.1309  -3.1045  -2.9502  -2.9034
    -0.7669  -0.7348  -0.2371  -0.2066  -0.1594  -0.1408  -0.0439  -0.0189
     0.0450   0.0691   0.2413   0.2626   0.2904   0.3095   0.3838   0.4658
     0.5462   0.5584   0.6495   0.7401   0.8102   0.8612   0.9097   0.9396
     1.0305   1.0719   1.0941   1.1241   1.3672   1.3972   1.4225   1.4583

     occupation numbers 
     1.0000   1.0000   1.0000   1.0000   1.0000   1.0000   1.0000   1.0000
     1.0000   1.0000   1.0000   1.0000   1.0000   1.0000   1.0000   1.0000
     1.0000   1.0000   1.0000   1.0000   1.0000   1.0000   1.0000   1.0000
     1.0000   1.0000   1.0000   1.0000   1.0000   1.0000   1.0000   1.0000
     1.0000   1.0000   1.0000   1.0000   1.0000   1.0000   1.0000   1.0000
     1.0000   1.0000   1.0000   1.0000   1.0000   1.0000   1.0000   1.0000
     1.0000   1.0000   1.0000   1.0000   1.0000   1.0000   1.0000   1.0000
     1.0000   1.0000   1.0000   1.0000   1.0000   1.0000   1.0000   1.0000
     1.0000   1.0000   1.0000   1.0000   1.0000   1.0000   1.0000   1.0000
     1.0000   1.0000   1.0000   1.0000   1.0000   1.0000   1.0000   1.0000
     1.0000   1.0000   1.0000   1.0000   1.0000   1.0000   1.0000   1.0000
     1.0000   1.0000   1.0000   1.0000   1.0000   1.0000   1.0000   1.0000
     1.0000   1.0000   1.0000   1.0000   1.0000   1.0000   1.0000   1.0000
     1.0000   1.0000   1.0000   1.0000   1.0000   1.0000   1.0000   1.0000

          k = 0.0575 0.0229-0.0396 ( 41579 PWs)   bands (ev):

   -23.8561 -23.8519 -23.8358 -23.8263 -23.5859 -23.5850 -23.5742 -23.5689
   -19.1008 -19.0999 -19.0916 -19.0858 -18.7962 -18.7943 -18.7673 -18.7645
   -18.1819 -18.1545 -17.1380 -17.0867 -16.9953 -16.9931 -15.9920 -15.9721
   -12.0280 -12.0186 -11.9553 -11.8673 -11.7542 -11.7082 -11.6944 -11.6817
    -8.8439  -8.7321  -8.1893  -8.1660  -7.4757  -7.4511  -7.4105  -7.2668
    -7.0226  -6.8485  -6.5603  -6.4668  -6.4305  -6.4064  -6.3583  -6.2748
    -6.1790  -6.1078  -5.9131  -5.8597  -5.8200  -5.8112  -5.7376  -5.6916
    -5.5334  -5.5117  -5.4258  -5.3631  -5.0840  -4.9857  -4.8806  -4.8372
    -4.3309  -4.3001  -4.2389  -4.2093  -3.9360  -3.9285  -3.7759  -3.7707
    -3.6245  -3.6068  -3.5256  -3.4160  -3.1324  -3.0996  -2.9497  -2.9094
    -0.7210  -0.6706  -0.2310  -0.1890  -0.1764  -0.1462  -0.0547  -0.0375
    -0.0239   0.0212   0.1780   0.2409   0.2865   0.3218   0.3358   0.3748
     0.6173   0.6675   0.7200   0.7290   0.8307   0.8480   0.9206   0.9357
     1.0301   1.0592   1.1189   1.1705   1.3782   1.3948   1.4007   1.4244

     occupation numbers 
     1.0000   1.0000   1.0000   1.0000   1.0000   1.0000   1.0000   1.0000
     1.0000   1.0000   1.0000   1.0000   1.0000   1.0000   1.0000   1.0000
     1.0000   1.0000   1.0000   1.0000   1.0000   1.0000   1.0000   1.0000
     1.0000   1.0000   1.0000   1.0000   1.0000   1.0000   1.0000   1.0000
     1.0000   1.0000   1.0000   1.0000   1.0000   1.0000   1.0000   1.0000
     1.0000   1.0000   1.0000   1.0000   1.0000   1.0000   1.0000   1.0000
     1.0000   1.0000   1.0000   1.0000   1.0000   1.0000   1.0000   1.0000
     1.0000   1.0000   1.0000   1.0000   1.0000   1.0000   1.0000   1.0000
     1.0000   1.0000   1.0000   1.0000   1.0000   1.0000   1.0000   1.0000
     1.0000   1.0000   1.0000   1.0000   1.0000   1.0000   1.0000   1.0000
     1.0000   1.0000   1.0000   1.0000   1.0000   1.0000   1.0000   1.0000
     1.0000   1.0000   1.0000   1.0000   1.0000   1.0000   1.0000   1.0000
     1.0000   1.0000   1.0000   1.0000   1.0000   1.0000   1.0000   1.0000
     1.0000   1.0000   1.0000   1.0000   1.0000   1.0000   1.0000   1.0000

          k = 0.0575 0.0229-0.0047 ( 41567 PWs)   bands (ev):

   -23.8592 -23.8504 -23.8344 -23.8275 -23.5863 -23.5834 -23.5722 -23.5708
   -19.1000 -19.0987 -19.0894 -19.0885 -18.7878 -18.7870 -18.7733 -18.7724
   -18.1756 -18.1558 -17.1324 -17.0946 -17.0046 -17.0044 -15.9813 -15.9685
   -12.0143 -12.0070 -11.9462 -11.8733 -11.7661 -11.7196 -11.6914 -11.6875
    -8.8192  -8.7544  -8.1925  -8.1878  -7.4776  -7.4698  -7.4455  -7.3639
    -6.9347  -6.8650  -6.5510  -6.5295  -6.3959  -6.3860  -6.2605  -6.2386
    -6.0893  -6.0823  -5.9015  -5.8676  -5.7885  -5.7614  -5.7057  -5.6956
    -5.5664  -5.5455  -5.4737  -5.4680  -5.0481  -5.0297  -4.8249  -4.8227
    -4.3897  -4.3612  -4.3180  -4.2799  -3.9468  -3.9142  -3.6964  -3.6909
    -3.5998  -3.5647  -3.5442  -3.4840  -3.0982  -3.0697  -2.9549  -2.9407
    -0.6324  -0.5943  -0.2375  -0.2234  -0.1646  -0.1504  -0.1239  -0.1170
    -0.0270   0.0100   0.1324   0.1850   0.2534   0.2890   0.3866   0.4204
     0.6372   0.6898   0.7665   0.8092   0.8232   0.8733   0.9446   0.9578
     1.0045   1.0244   1.0978   1.1691   1.3691   1.3740   1.3917   1.4058

     occupation numbers 
     1.0000   1.0000   1.0000   1.0000   1.0000   1.0000   1.0000   1.0000
     1.0000   1.0000   1.0000   1.0000   1.0000   1.0000   1.0000   1.0000
     1.0000   1.0000   1.0000   1.0000   1.0000   1.0000   1.0000   1.0000
     1.0000   1.0000   1.0000   1.0000   1.0000   1.0000   1.0000   1.0000
     1.0000   1.0000   1.0000   1.0000   1.0000   1.0000   1.0000   1.0000
     1.0000   1.0000   1.0000   1.0000   1.0000   1.0000   1.0000   1.0000
     1.0000   1.0000   1.0000   1.0000   1.0000   1.0000   1.0000   1.0000
     1.0000   1.0000   1.0000   1.0000   1.0000   1.0000   1.0000   1.0000
     1.0000   1.0000   1.0000   1.0000   1.0000   1.0000   1.0000   1.0000
     1.0000   1.0000   1.0000   1.0000   1.0000   1.0000   1.0000   1.0000
     1.0000   1.0000   1.0000   1.0000   1.0000   1.0000   1.0000   1.0000
     1.0000   1.0000   1.0000   1.0000   1.0000   1.0000   1.0000   1.0000
     1.0000   1.0000   1.0000   1.0000   1.0000   1.0000   1.0000   1.0000
     1.0000   1.0000   1.0000   1.0000   1.0000   1.0000   1.0000   1.0000

          k =-0.0192 0.0229-0.0217 ( 41584 PWs)   bands (ev):

   -23.8689 -23.8508 -23.8320 -23.8254 -23.5842 -23.5764 -23.5752 -23.5725
   -19.1042 -19.1007 -19.0887 -19.0797 -18.7826 -18.7824 -18.7778 -18.7769
   -18.1694 -18.1492 -17.1360 -17.0959 -17.0020 -16.9999 -15.9817 -15.9715
   -12.0104 -12.0095 -11.9886 -11.9060 -11.8034 -11.7508 -11.6868 -11.6733
    -8.8148  -8.7839  -8.2015  -8.1718  -7.4870  -7.4520  -7.3595  -7.3547
    -6.7921  -6.7043  -6.5266  -6.4473  -6.4334  -6.3677  -6.2783  -6.2222
    -6.0765  -6.0460  -5.9764  -5.8991  -5.8429  -5.7681  -5.6966  -5.6649
    -5.5655  -5.5455  -5.4782  -5.4381  -5.0559  -4.9520  -4.8891  -4.8653
    -4.4014  -4.3907  -4.3385  -4.3092  -4.1347  -4.0452  -3.7850  -3.7753
    -3.6000  -3.4996  -3.4236  -3.3878  -3.0838  -3.0578  -2.9543  -2.9408
    -0.7418  -0.7374  -0.2498  -0.2412  -0.1630  -0.1088  -0.0559  -0.0467
     0.0538   0.0750   0.2407   0.2638   0.2874   0.3056   0.4437   0.4521
     0.4840   0.5151   0.7003   0.7464   0.8239   0.8490   0.9322   0.9706
     0.9840   1.0775   1.1353   1.1839   1.2913   1.3959   1.4313   1.4487

     occupation numbers 
     1.0000   1.0000   1.0000   1.0000   1.0000   1.0000   1.0000   1.0000
     1.0000   1.0000   1.0000   1.0000   1.0000   1.0000   1.0000   1.0000
     1.0000   1.0000   1.0000   1.0000   1.0000   1.0000   1.0000   1.0000
     1.0000   1.0000   1.0000   1.0000   1.0000   1.0000   1.0000   1.0000
     1.0000   1.0000   1.0000   1.0000   1.0000   1.0000   1.0000   1.0000
     1.0000   1.0000   1.0000   1.0000   1.0000   1.0000   1.0000   1.0000
     1.0000   1.0000   1.0000   1.0000   1.0000   1.0000   1.0000   1.0000
     1.0000   1.0000   1.0000   1.0000   1.0000   1.0000   1.0000   1.0000
     1.0000   1.0000   1.0000   1.0000   1.0000   1.0000   1.0000   1.0000
     1.0000   1.0000   1.0000   1.0000   1.0000   1.0000   1.0000   1.0000
     1.0000   1.0000   1.0000   1.0000   1.0000   1.0000   1.0000   1.0000
     1.0000   1.0000   1.0000   1.0000   1.0000   1.0000   1.0000   1.0000
     1.0000   1.0000   1.0000   1.0000   1.0000   1.0000   1.0000   1.0000
     1.0000   1.0000   1.0000   1.0000   1.0000   1.0000   1.0000   1.0000

          k =-0.0192 0.0229-0.0566 ( 41585 PWs)   bands (ev):

   -23.8612 -23.8534 -23.8310 -23.8301 -23.5865 -23.5838 -23.5716 -23.5678
   -19.1023 -19.0993 -19.0899 -19.0832 -18.7890 -18.7883 -18.7725 -18.7712
   -18.1600 -18.1597 -17.1171 -17.1150 -16.9977 -16.9955 -15.9784 -15.9768
   -12.0182 -12.0146 -11.9482 -11.9318 -11.7772 -11.7672 -11.6972 -11.6907
    -8.7949  -8.7664  -8.1833  -8.1632  -7.4990  -7.4582  -7.3307  -7.2679
    -6.8406  -6.7479  -6.5189  -6.4925  -6.4587  -6.3707  -6.3221  -6.2924
    -6.1056  -6.0702  -5.9198  -5.8473  -5.8224  -5.7646  -5.7391  -5.7035
    -5.6418  -5.5843  -5.4110  -5.3708  -5.0491  -4.9792  -4.8809  -4.8389
    -4.3436  -4.3298  -4.2841  -4.2347  -4.0680  -4.0400  -3.9015  -3.9007
    -3.5842  -3.5403  -3.3648  -3.3559  -3.1128  -3.1065  -2.9421  -2.9213
    -0.7043  -0.6780  -0.2632  -0.2492  -0.1727  -0.1360  -0.0841  -0.0668
    -0.0103   0.0238   0.1539   0.1974   0.2930   0.3388   0.3962   0.4133
     0.6152   0.6657   0.7225   0.7611   0.8366   0.8549   0.8852   0.9327
     1.0454   1.0797   1.1665   1.1852   1.2958   1.3520   1.4350   1.4560

     occupation numbers 
     1.0000   1.0000   1.0000   1.0000   1.0000   1.0000   1.0000   1.0000
     1.0000   1.0000   1.0000   1.0000   1.0000   1.0000   1.0000   1.0000
     1.0000   1.0000   1.0000   1.0000   1.0000   1.0000   1.0000   1.0000
     1.0000   1.0000   1.0000   1.0000   1.0000   1.0000   1.0000   1.0000
     1.0000   1.0000   1.0000   1.0000   1.0000   1.0000   1.0000   1.0000
     1.0000   1.0000   1.0000   1.0000   1.0000   1.0000   1.0000   1.0000
     1.0000   1.0000   1.0000   1.0000   1.0000   1.0000   1.0000   1.0000
     1.0000   1.0000   1.0000   1.0000   1.0000   1.0000   1.0000   1.0000
     1.0000   1.0000   1.0000   1.0000   1.0000   1.0000   1.0000   1.0000
     1.0000   1.0000   1.0000   1.0000   1.0000   1.0000   1.0000   1.0000
     1.0000   1.0000   1.0000   1.0000   1.0000   1.0000   1.0000   1.0000
     1.0000   1.0000   1.0000   1.0000   1.0000   1.0000   1.0000   1.0000
     1.0000   1.0000   1.0000   1.0000   1.0000   1.0000   1.0000   1.0000
     1.0000   1.0000   1.0000   1.0000   1.0000   1.0000   1.0000   1.0000

          k =-0.0192 0.0229 0.0481 ( 41584 PWs)   bands (ev):

   -23.8620 -23.8534 -23.8336 -23.8266 -23.5881 -23.5855 -23.5686 -23.5675
   -19.1002 -19.0989 -19.0884 -19.0875 -18.7905 -18.7899 -18.7708 -18.7696
   -18.1691 -18.1494 -17.1341 -17.0973 -17.0005 -16.9991 -15.9804 -15.9678
   -12.0307 -12.0159 -11.9737 -11.9113 -11.7935 -11.7403 -11.6971 -11.6898
    -8.7987  -8.7326  -8.1729  -8.1704  -7.4957  -7.4845  -7.3382  -7.2476
    -6.8442  -6.7576  -6.5360  -6.4841  -6.4464  -6.4141  -6.3438  -6.3122
    -6.1053  -6.0818  -5.9220  -5.8793  -5.7650  -5.7333  -5.7233  -5.6995
    -5.6382  -5.5770  -5.4053  -5.3578  -5.0652  -4.9870  -4.8627  -4.8183
    -4.3774  -4.3246  -4.2597  -4.2207  -4.0890  -4.0743  -3.9024  -3.8600
    -3.5842  -3.5456  -3.4100  -3.3435  -3.1154  -3.0956  -2.9397  -2.9297
    -0.6339  -0.5869  -0.2553  -0.2486  -0.2112  -0.1865  -0.1250  -0.1003
    -0.0469  -0.0309   0.1222   0.1830   0.3136   0.3425   0.3591   0.4060
     0.6632   0.7231   0.7673   0.7754   0.8079   0.8738   0.9102   0.9189
     1.0466   1.0827   1.1844   1.2281   1.2920   1.3137   1.4257   1.4415

     occupation numbers 
     1.0000   1.0000   1.0000   1.0000   1.0000   1.0000   1.0000   1.0000
     1.0000   1.0000   1.0000   1.0000   1.0000   1.0000   1.0000   1.0000
     1.0000   1.0000   1.0000   1.0000   1.0000   1.0000   1.0000   1.0000
     1.0000   1.0000   1.0000   1.0000   1.0000   1.0000   1.0000   1.0000
     1.0000   1.0000   1.0000   1.0000   1.0000   1.0000   1.0000   1.0000
     1.0000   1.0000   1.0000   1.0000   1.0000   1.0000   1.0000   1.0000
     1.0000   1.0000   1.0000   1.0000   1.0000   1.0000   1.0000   1.0000
     1.0000   1.0000   1.0000   1.0000   1.0000   1.0000   1.0000   1.0000
     1.0000   1.0000   1.0000   1.0000   1.0000   1.0000   1.0000   1.0000
     1.0000   1.0000   1.0000   1.0000   1.0000   1.0000   1.0000   1.0000
     1.0000   1.0000   1.0000   1.0000   1.0000   1.0000   1.0000   1.0000
     1.0000   1.0000   1.0000   1.0000   1.0000   1.0000   1.0000   1.0000
     1.0000   1.0000   1.0000   1.0000   1.0000   1.0000   1.0000   1.0000
     1.0000   1.0000   1.0000   1.0000   1.0000   1.0000   1.0000   1.0000

          k =-0.0192 0.0229 0.0132 ( 41606 PWs)   bands (ev):

   -23.8693 -23.8514 -23.8326 -23.8238 -23.5869 -23.5798 -23.5715 -23.5700
   -19.1031 -19.0995 -19.0891 -19.0818 -18.7862 -18.7858 -18.7738 -18.7738
   -18.1728 -18.1445 -17.1428 -17.0883 -17.0046 -17.0038 -15.9812 -15.9651
   -12.0297 -12.0129 -11.9884 -11.9057 -11.8010 -11.7406 -11.6844 -11.6733
    -8.8201  -8.7486  -8.1963  -8.1742  -7.4928  -7.4731  -7.3821  -7.3187
    -6.7584  -6.7359  -6.5433  -6.4496  -6.4343  -6.3988  -6.3109  -6.2558
    -6.0813  -6.0511  -5.9507  -5.9060  -5.8002  -5.7614  -5.6702  -5.6607
    -5.5754  -5.5394  -5.4499  -5.4424  -5.0433  -4.9942  -4.8635  -4.8337
    -4.4027  -4.3952  -4.3421  -4.3107  -4.1479  -4.0545  -3.7873  -3.7426
    -3.6184  -3.5086  -3.4347  -3.3890  -3.0900  -3.0523  -2.9501  -2.9481
    -0.6895  -0.6729  -0.2383  -0.2299  -0.1675  -0.1189  -0.0663  -0.0444
    -0.0258   0.0106   0.1366   0.1870   0.2559   0.3217   0.3922   0.4446
     0.6261   0.6628   0.6866   0.7720   0.8061   0.8569   0.9495   0.9551
     1.0004   1.0607   1.1648   1.2140   1.2807   1.3749   1.4171   1.4380

     occupation numbers 
     1.0000   1.0000   1.0000   1.0000   1.0000   1.0000   1.0000   1.0000
     1.0000   1.0000   1.0000   1.0000   1.0000   1.0000   1.0000   1.0000
     1.0000   1.0000   1.0000   1.0000   1.0000   1.0000   1.0000   1.0000
     1.0000   1.0000   1.0000   1.0000   1.0000   1.0000   1.0000   1.0000
     1.0000   1.0000   1.0000   1.0000   1.0000   1.0000   1.0000   1.0000
     1.0000   1.0000   1.0000   1.0000   1.0000   1.0000   1.0000   1.0000
     1.0000   1.0000   1.0000   1.0000   1.0000   1.0000   1.0000   1.0000
     1.0000   1.0000   1.0000   1.0000   1.0000   1.0000   1.0000   1.0000
     1.0000   1.0000   1.0000   1.0000   1.0000   1.0000   1.0000   1.0000
     1.0000   1.0000   1.0000   1.0000   1.0000   1.0000   1.0000   1.0000
     1.0000   1.0000   1.0000   1.0000   1.0000   1.0000   1.0000   1.0000
     1.0000   1.0000   1.0000   1.0000   1.0000   1.0000   1.0000   1.0000
     1.0000   1.0000   1.0000   1.0000   1.0000   1.0000   1.0000   1.0000
     1.0000   1.0000   1.0000   1.0000   1.0000   1.0000   1.0000   1.0000

          k =-0.0575 0.0229-0.0302 ( 41578 PWs)   bands (ev):

   -23.8584 -23.8500 -23.8319 -23.8312 -23.5834 -23.5808 -23.5763 -23.5723
   -19.1020 -19.0995 -19.0907 -19.0841 -18.7853 -18.7843 -18.7760 -18.7750
   -18.1664 -18.1661 -17.1149 -17.1131 -17.0019 -17.0003 -15.9793 -15.9774
   -12.0068 -12.0050 -11.9129 -11.8980 -11.7522 -11.7367 -11.6999 -11.6865
    -8.8152  -8.7888  -8.2006  -8.1827  -7.4767  -7.4584  -7.4255  -7.3793
    -6.9237  -6.8745  -6.5777  -6.4839  -6.3940  -6.3582  -6.2146  -6.1633
    -6.1413  -6.0856  -5.9400  -5.8860  -5.8281  -5.7813  -5.7048  -5.6713
    -5.5753  -5.5474  -5.4797  -5.4651  -5.0725  -4.9859  -4.8516  -4.8460
    -4.3839  -4.3624  -4.3154  -4.2805  -3.9342  -3.8912  -3.7294  -3.6951
    -3.6415  -3.5508  -3.4896  -3.4794  -3.0850  -3.0813  -2.9581  -2.9334
    -0.6927  -0.6821  -0.2322  -0.2257  -0.1645  -0.1393  -0.0549  -0.0229
    -0.0095   0.0205   0.1729   0.1968   0.2601   0.2827   0.4116   0.4294
     0.6468   0.6565   0.7126   0.7556   0.8340   0.8471   0.9285   0.9550
     1.0023   1.0487   1.0784   1.1207   1.3544   1.3797   1.4151   1.4443

     occupation numbers 
     1.0000   1.0000   1.0000   1.0000   1.0000   1.0000   1.0000   1.0000
     1.0000   1.0000   1.0000   1.0000   1.0000   1.0000   1.0000   1.0000
     1.0000   1.0000   1.0000   1.0000   1.0000   1.0000   1.0000   1.0000
     1.0000   1.0000   1.0000   1.0000   1.0000   1.0000   1.0000   1.0000
     1.0000   1.0000   1.0000   1.0000   1.0000   1.0000   1.0000   1.0000
     1.0000   1.0000   1.0000   1.0000   1.0000   1.0000   1.0000   1.0000
     1.0000   1.0000   1.0000   1.0000   1.0000   1.0000   1.0000   1.0000
     1.0000   1.0000   1.0000   1.0000   1.0000   1.0000   1.0000   1.0000
     1.0000   1.0000   1.0000   1.0000   1.0000   1.0000   1.0000   1.0000
     1.0000   1.0000   1.0000   1.0000   1.0000   1.0000   1.0000   1.0000
     1.0000   1.0000   1.0000   1.0000   1.0000   1.0000   1.0000   1.0000
     1.0000   1.0000   1.0000   1.0000   1.0000   1.0000   1.0000   1.0000
     1.0000   1.0000   1.0000   1.0000   1.0000   1.0000   1.0000   1.0000
     1.0000   1.0000   1.0000   1.0000   1.0000   1.0000   1.0000   1.0000

          k =-0.0575 0.0229-0.0650 ( 41572 PWs)   bands (ev):

   -23.8549 -23.8520 -23.8350 -23.8284 -23.5828 -23.5824 -23.5785 -23.5704
   -19.1027 -19.1009 -19.0910 -19.0832 -18.7952 -18.7933 -18.7684 -18.7656
   -18.1784 -18.1592 -17.1303 -17.0953 -16.9922 -16.9894 -15.9933 -15.9779
   -12.0223 -12.0151 -11.9362 -11.8779 -11.7445 -11.7130 -11.7032 -11.6883
    -8.8511  -8.7546  -8.1940  -8.1648  -7.4747  -7.4521  -7.3881  -7.2762
    -7.0092  -6.8501  -6.5667  -6.4436  -6.4185  -6.3871  -6.3369  -6.2396
    -6.1963  -6.1113  -5.9189  -5.8937  -5.8474  -5.8066  -5.7413  -5.6793
    -5.5569  -5.5191  -5.4239  -5.3658  -5.0817  -4.9534  -4.9133  -4.8591
    -4.3205  -4.2965  -4.2565  -4.2087  -3.8963  -3.8806  -3.8315  -3.8070
    -3.6621  -3.5852  -3.4778  -3.4060  -3.1309  -3.1045  -2.9502  -2.9034
    -0.7669  -0.7348  -0.2371  -0.2066  -0.1594  -0.1408  -0.0439  -0.0189
     0.0450   0.0691   0.2413   0.2626   0.2904   0.3095   0.3838   0.4658
     0.5462   0.5584   0.6495   0.7401   0.8102   0.8612   0.9097   0.9396
     1.0305   1.0719   1.0941   1.1241   1.3672   1.3972   1.4225   1.4583

     occupation numbers 
     1.0000   1.0000   1.0000   1.0000   1.0000   1.0000   1.0000   1.0000
     1.0000   1.0000   1.0000   1.0000   1.0000   1.0000   1.0000   1.0000
     1.0000   1.0000   1.0000   1.0000   1.0000   1.0000   1.0000   1.0000
     1.0000   1.0000   1.0000   1.0000   1.0000   1.0000   1.0000   1.0000
     1.0000   1.0000   1.0000   1.0000   1.0000   1.0000   1.0000   1.0000
     1.0000   1.0000   1.0000   1.0000   1.0000   1.0000   1.0000   1.0000
     1.0000   1.0000   1.0000   1.0000   1.0000   1.0000   1.0000   1.0000
     1.0000   1.0000   1.0000   1.0000   1.0000   1.0000   1.0000   1.0000
     1.0000   1.0000   1.0000   1.0000   1.0000   1.0000   1.0000   1.0000
     1.0000   1.0000   1.0000   1.0000   1.0000   1.0000   1.0000   1.0000
     1.0000   1.0000   1.0000   1.0000   1.0000   1.0000   1.0000   1.0000
     1.0000   1.0000   1.0000   1.0000   1.0000   1.0000   1.0000   1.0000
     1.0000   1.0000   1.0000   1.0000   1.0000   1.0000   1.0000   1.0000
     1.0000   1.0000   1.0000   1.0000   1.0000   1.0000   1.0000   1.0000

          k =-0.0575 0.0229 0.0396 ( 41579 PWs)   bands (ev):

   -23.8561 -23.8519 -23.8358 -23.8263 -23.5859 -23.5850 -23.5742 -23.5689
   -19.1008 -19.0999 -19.0916 -19.0858 -18.7962 -18.7943 -18.7673 -18.7645
   -18.1819 -18.1545 -17.1380 -17.0867 -16.9953 -16.9931 -15.9920 -15.9721
   -12.0280 -12.0186 -11.9553 -11.8673 -11.7542 -11.7082 -11.6944 -11.6817
    -8.8439  -8.7321  -8.1893  -8.1660  -7.4757  -7.4511  -7.4105  -7.2668
    -7.0226  -6.8485  -6.5603  -6.4668  -6.4305  -6.4064  -6.3583  -6.2748
    -6.1790  -6.1078  -5.9131  -5.8597  -5.8200  -5.8112  -5.7376  -5.6916
    -5.5334  -5.5117  -5.4258  -5.3631  -5.0840  -4.9857  -4.8806  -4.8372
    -4.3309  -4.3001  -4.2389  -4.2093  -3.9360  -3.9285  -3.7759  -3.7707
    -3.6245  -3.6068  -3.5256  -3.4160  -3.1324  -3.0996  -2.9497  -2.9094
    -0.7210  -0.6706  -0.2310  -0.1890  -0.1764  -0.1462  -0.0547  -0.0375
    -0.0239   0.0212   0.1780   0.2409   0.2865   0.3218   0.3358   0.3748
     0.6173   0.6675   0.7200   0.7290   0.8307   0.8479   0.9206   0.9356
     1.0301   1.0592   1.1189   1.1705   1.3782   1.3948   1.4007   1.4244

     occupation numbers 
     1.0000   1.0000   1.0000   1.0000   1.0000   1.0000   1.0000   1.0000
     1.0000   1.0000   1.0000   1.0000   1.0000   1.0000   1.0000   1.0000
     1.0000   1.0000   1.0000   1.0000   1.0000   1.0000   1.0000   1.0000
     1.0000   1.0000   1.0000   1.0000   1.0000   1.0000   1.0000   1.0000
     1.0000   1.0000   1.0000   1.0000   1.0000   1.0000   1.0000   1.0000
     1.0000   1.0000   1.0000   1.0000   1.0000   1.0000   1.0000   1.0000
     1.0000   1.0000   1.0000   1.0000   1.0000   1.0000   1.0000   1.0000
     1.0000   1.0000   1.0000   1.0000   1.0000   1.0000   1.0000   1.0000
     1.0000   1.0000   1.0000   1.0000   1.0000   1.0000   1.0000   1.0000
     1.0000   1.0000   1.0000   1.0000   1.0000   1.0000   1.0000   1.0000
     1.0000   1.0000   1.0000   1.0000   1.0000   1.0000   1.0000   1.0000
     1.0000   1.0000   1.0000   1.0000   1.0000   1.0000   1.0000   1.0000
     1.0000   1.0000   1.0000   1.0000   1.0000   1.0000   1.0000   1.0000
     1.0000   1.0000   1.0000   1.0000   1.0000   1.0000   1.0000   1.0000

          k =-0.0575 0.0229 0.0047 ( 41567 PWs)   bands (ev):

   -23.8591 -23.8504 -23.8344 -23.8275 -23.5863 -23.5834 -23.5722 -23.5708
   -19.1000 -19.0987 -19.0894 -19.0885 -18.7878 -18.7870 -18.7733 -18.7724
   -18.1756 -18.1558 -17.1324 -17.0946 -17.0046 -17.0044 -15.9813 -15.9685
   -12.0143 -12.0070 -11.9462 -11.8733 -11.7661 -11.7196 -11.6914 -11.6875
    -8.8192  -8.7544  -8.1925  -8.1878  -7.4776  -7.4698  -7.4455  -7.3639
    -6.9347  -6.8650  -6.5511  -6.5295  -6.3959  -6.3860  -6.2605  -6.2386
    -6.0893  -6.0823  -5.9015  -5.8676  -5.7885  -5.7614  -5.7057  -5.6956
    -5.5664  -5.5455  -5.4737  -5.4680  -5.0481  -5.0297  -4.8249  -4.8227
    -4.3897  -4.3612  -4.3180  -4.2799  -3.9468  -3.9142  -3.6964  -3.6909
    -3.5998  -3.5647  -3.5442  -3.4840  -3.0982  -3.0697  -2.9549  -2.9407
    -0.6324  -0.5943  -0.2375  -0.2234  -0.1646  -0.1504  -0.1239  -0.1170
    -0.0270   0.0100   0.1324   0.1850   0.2534   0.2890   0.3866   0.4204
     0.6372   0.6898   0.7665   0.8093   0.8232   0.8733   0.9446   0.9578
     1.0045   1.0244   1.0978   1.1691   1.3691   1.3740   1.3917   1.4058

     occupation numbers 
     1.0000   1.0000   1.0000   1.0000   1.0000   1.0000   1.0000   1.0000
     1.0000   1.0000   1.0000   1.0000   1.0000   1.0000   1.0000   1.0000
     1.0000   1.0000   1.0000   1.0000   1.0000   1.0000   1.0000   1.0000
     1.0000   1.0000   1.0000   1.0000   1.0000   1.0000   1.0000   1.0000
     1.0000   1.0000   1.0000   1.0000   1.0000   1.0000   1.0000   1.0000
     1.0000   1.0000   1.0000   1.0000   1.0000   1.0000   1.0000   1.0000
     1.0000   1.0000   1.0000   1.0000   1.0000   1.0000   1.0000   1.0000
     1.0000   1.0000   1.0000   1.0000   1.0000   1.0000   1.0000   1.0000
     1.0000   1.0000   1.0000   1.0000   1.0000   1.0000   1.0000   1.0000
     1.0000   1.0000   1.0000   1.0000   1.0000   1.0000   1.0000   1.0000
     1.0000   1.0000   1.0000   1.0000   1.0000   1.0000   1.0000   1.0000
     1.0000   1.0000   1.0000   1.0000   1.0000   1.0000   1.0000   1.0000
     1.0000   1.0000   1.0000   1.0000   1.0000   1.0000   1.0000   1.0000
     1.0000   1.0000   1.0000   1.0000   1.0000   1.0000   1.0000   1.0000

     highest occupied level (ev):     1.4583

!    total energy              =   -1282.04009999 Ry
     Harris-Foulkes estimate   =   -1282.04010028 Ry
     estimated scf accuracy    <       0.00000032 Ry

     total all-electron energy =     -4786.483848 Ry

     The total energy is the sum of the following terms:

     one-electron contribution =    -633.80079337 Ry
     hartree contribution      =     415.70214194 Ry
     xc contribution           =    -260.20664874 Ry
     ewald contribution        =    -473.34328581 Ry
     one-center paw contrib.   =    -330.39151401 Ry

     convergence has been achieved in  19 iterations

     Forces acting on atoms (Ry/au):

     atom    1 type  1   force =    -0.01374375   -0.00660171   -0.01012757
     atom    2 type  4   force =     0.02838641    0.00789241   -0.01796237
     atom    3 type  1   force =    -0.00088339   -0.01164878   -0.01695859
     atom    4 type  1   force =     0.01278713   -0.00484237    0.00299877
     atom    5 type  4   force =     0.00515801   -0.03550479    0.03850103
     atom    6 type  1   force =     0.01054278    0.01185552   -0.01478675
     atom    7 type  4   force =    -0.00988124    0.02123715    0.04275884
     atom    8 type  2   force =     0.15641242   -0.09972300    0.04669097
     atom    9 type  3   force =    -0.12073955   -0.05440696   -0.12453135
     atom   10 type  3   force =    -0.04055811    0.16060079    0.07164546
     atom   11 type  4   force =    -0.03716932    0.02282347   -0.01629813
     atom   12 type  2   force =     0.12095501   -0.05790793    0.21096620
     atom   13 type  3   force =    -0.19601824   -0.09839992   -0.06245827
     atom   14 type  3   force =     0.06846126    0.15573033   -0.15311886
     atom   15 type  3   force =     0.06846135   -0.15573043   -0.15311887
     atom   16 type  3   force =    -0.19601824    0.09839983   -0.06245831
     atom   17 type  2   force =     0.12095505    0.05790833    0.21096385
     atom   18 type  4   force =    -0.03717387   -0.02282667   -0.01630069
     atom   19 type  3   force =    -0.04055799   -0.16060062    0.07164546
     atom   20 type  3   force =    -0.12073951    0.05440697   -0.12453138
     atom   21 type  2   force =     0.15641336    0.09972278    0.04668908
     atom   22 type  4   force =    -0.00988434   -0.02123695    0.04276013
     atom   23 type  1   force =     0.01054253   -0.01185351   -0.01478340
     atom   24 type  4   force =     0.00515741    0.03550049    0.03849862
     atom   25 type  1   force =     0.01278659    0.00484198    0.00299875
     atom   26 type  1   force =    -0.00088443    0.01164914   -0.01695973
     atom   27 type  4   force =     0.02838682   -0.00789310   -0.01796120
     atom   28 type  1   force =    -0.01374323    0.00660079   -0.01012684
     atom   29 type  3   force =    -0.06846126   -0.15573033    0.15311886
     atom   30 type  3   force =     0.19601824    0.09839992    0.06245827
     atom   31 type  2   force =    -0.12095501    0.05790793   -0.21096620
     atom   32 type  4   force =     0.03716932   -0.02282347    0.01629813
     atom   33 type  3   force =     0.04055811   -0.16060079   -0.07164546
     atom   34 type  3   force =     0.12073955    0.05440696    0.12453135
     atom   35 type  2   force =    -0.15641242    0.09972300   -0.04669097
     atom   36 type  4   force =     0.00988124   -0.02123715   -0.04275884
     atom   37 type  1   force =    -0.01054278   -0.01185552    0.01478675
     atom   38 type  4   force =    -0.00515801    0.03550479   -0.03850103
     atom   39 type  1   force =    -0.01278713    0.00484237   -0.00299877
     atom   40 type  1   force =     0.00088339    0.01164878    0.01695859
     atom   41 type  4   force =    -0.02838641   -0.00789241    0.01796237
     atom   42 type  1   force =     0.01374375    0.00660171    0.01012757
     atom   43 type  3   force =    -0.06846135    0.15573043    0.15311887
     atom   44 type  3   force =     0.19601824   -0.09839983    0.06245831
     atom   45 type  2   force =    -0.12095505   -0.05790833   -0.21096385
     atom   46 type  4   force =     0.03717387    0.02282667    0.01630069
     atom   47 type  3   force =     0.04055799    0.16060062   -0.07164546
     atom   48 type  3   force =     0.12073951   -0.05440697    0.12453138
     atom   49 type  2   force =    -0.15641336   -0.09972278   -0.04668908
     atom   50 type  4   force =     0.00988434    0.02123695   -0.04276013
     atom   51 type  1   force =    -0.01054253    0.01185351    0.01478340
     atom   52 type  4   force =    -0.00515741   -0.03550049   -0.03849862
     atom   53 type  1   force =    -0.01278659   -0.00484198   -0.00299875
     atom   54 type  1   force =     0.00088443   -0.01164914    0.01695973
     atom   55 type  4   force =    -0.02838682    0.00789310    0.01796120
     atom   56 type  1   force =     0.01374323   -0.00660079    0.01012684
     The non-local contrib.  to forces
     atom    1 type  1   force =     0.17204925    0.37618266    0.11411188
     atom    2 type  4   force =    -2.40019389   -0.45995333    1.53840782
     atom    3 type  1   force =     0.04211861   -0.03257024    0.05473190
     atom    4 type  1   force =    -0.57617798   -0.42298920   -0.12543290
     atom    5 type  4   force =     0.16706975    1.86585932   -2.24357239
     atom    6 type  1   force =    -0.00668927    0.06258672    0.05908036
     atom    7 type  4   force =     0.53750197   -1.16907867   -2.62930760
     atom    8 type  2   force =     0.62590465   -0.42619921    0.17580176
     atom    9 type  3   force =     0.07755252    0.02687783    0.06770635
     atom   10 type  3   force =     0.02815645   -0.09649678   -0.03811888
     atom   11 type  4   force =     2.26663470   -1.47578535    0.83950149
     atom   12 type  2   force =     0.38228304   -0.19138852    0.69976243
     atom   13 type  3   force =     0.09397885    0.04784249    0.03982699
     atom   14 type  3   force =    -0.03063520   -0.07483859    0.08006100
     atom   15 type  3   force =    -0.03063521    0.07483864    0.08006105
     atom   16 type  3   force =     0.09397890   -0.04784252    0.03982700
     atom   17 type  2   force =     0.38228305    0.19138960    0.69976421
     atom   18 type  4   force =     2.26662984    1.47578162    0.83949647
     atom   19 type  3   force =     0.02815646    0.09649677   -0.03811886
     atom   20 type  3   force =     0.07755253   -0.02687783    0.06770636
     atom   21 type  2   force =     0.62590396    0.42619796    0.17580229
     atom   22 type  4   force =     0.53749948    1.16907856   -2.62930698
     atom   23 type  1   force =    -0.00669290   -0.06258837    0.05908232
     atom   24 type  4   force =     0.16706832   -1.86586260   -2.24357484
     atom   25 type  1   force =    -0.57617966    0.42298906   -0.12543237
     atom   26 type  1   force =     0.04211906    0.03257027    0.05473235
     atom   27 type  4   force =    -2.40019249    0.45995057    1.53841198
     atom   28 type  1   force =     0.17205068   -0.37618422    0.11411326
     atom   29 type  3   force =     0.03063520    0.07483859   -0.08006100
     atom   30 type  3   force =    -0.09397885   -0.04784249   -0.03982699
     atom   31 type  2   force =    -0.38228304    0.19138852   -0.69976243
     atom   32 type  4   force =    -2.26663470    1.47578535   -0.83950149
     atom   33 type  3   force =    -0.02815645    0.09649678    0.03811888
     atom   34 type  3   force =    -0.07755252   -0.02687783   -0.06770635
     atom   35 type  2   force =    -0.62590465    0.42619921   -0.17580176
     atom   36 type  4   force =    -0.53750197    1.16907867    2.62930760
     atom   37 type  1   force =     0.00668927   -0.06258672   -0.05908036
     atom   38 type  4   force =    -0.16706975   -1.86585932    2.24357239
     atom   39 type  1   force =     0.57617798    0.42298920    0.12543290
     atom   40 type  1   force =    -0.04211861    0.03257024   -0.05473190
     atom   41 type  4   force =     2.40019389    0.45995333   -1.53840782
     atom   42 type  1   force =    -0.17204925   -0.37618266   -0.11411188
     atom   43 type  3   force =     0.03063521   -0.07483864   -0.08006105
     atom   44 type  3   force =    -0.09397890    0.04784252   -0.03982700
     atom   45 type  2   force =    -0.38228305   -0.19138960   -0.69976421
     atom   46 type  4   force =    -2.26662984   -1.47578162   -0.83949647
     atom   47 type  3   force =    -0.02815646   -0.09649677    0.03811886
     atom   48 type  3   force =    -0.07755253    0.02687783   -0.06770636
     atom   49 type  2   force =    -0.62590396   -0.42619796   -0.17580229
     atom   50 type  4   force =    -0.53749948   -1.16907856    2.62930698
     atom   51 type  1   force =     0.00669290    0.06258837   -0.05908232
     atom   52 type  4   force =    -0.16706832    1.86586260    2.24357484
     atom   53 type  1   force =     0.57617966   -0.42298906    0.12543237
     atom   54 type  1   force =    -0.04211906   -0.03257027   -0.05473235
     atom   55 type  4   force =     2.40019249   -0.45995057   -1.53841198
     atom   56 type  1   force =    -0.17205068    0.37618422   -0.11411326
     The ionic contribution  to forces
     atom    1 type  1   force =    -3.03704534    0.23068460   -1.99937260
     atom    2 type  4   force =    12.20159925    4.24569638   -5.95501004
     atom    3 type  1   force =    -0.21338486    1.62447895    0.00672683
     atom    4 type  1   force =     2.80124776    2.82706232    2.02032485
     atom    5 type  4   force =    -1.30237236   -8.61145636   11.42936299
     atom    6 type  1   force =    -0.32683552    0.09668376    1.02280648
     atom    7 type  4   force =    -2.05358400    6.26876102   12.45980920
     atom    8 type  2   force =    -4.06970673    3.24941004   -1.21895625
     atom    9 type  3   force =    -2.21435278   -0.14201158   -1.96089374
     atom   10 type  3   force =    -1.22378006    2.74662803    0.69630709
     atom   11 type  4   force =   -11.13217065    6.18259145   -2.34477034
     atom   12 type  2   force =    -2.86884381    0.94443327   -4.69350685
     atom   13 type  3   force =    -2.59964860   -1.06048005   -1.58695539
     atom   14 type  3   force =     0.27688983    2.05265280   -2.52621440
     atom   15 type  3   force =     0.27688983   -2.05265280   -2.52621440
     atom   16 type  3   force =    -2.59964860    1.06048005   -1.58695539
     atom   17 type  2   force =    -2.86884381   -0.94443327   -4.69350685
     atom   18 type  4   force =   -11.13217065   -6.18259145   -2.34477034
     atom   19 type  3   force =    -1.22378006   -2.74662803    0.69630709
     atom   20 type  3   force =    -2.21435278    0.14201158   -1.96089374
     atom   21 type  2   force =    -4.06970673   -3.24941004   -1.21895625
     atom   22 type  4   force =    -2.05358400   -6.26876102   12.45980920
     atom   23 type  1   force =    -0.32683552   -0.09668376    1.02280648
     atom   24 type  4   force =    -1.30237236    8.61145636   11.42936299
     atom   25 type  1   force =     2.80124776   -2.82706232    2.02032485
     atom   26 type  1   force =    -0.21338486   -1.62447895    0.00672683
     atom   27 type  4   force =    12.20159925   -4.24569638   -5.95501004
     atom   28 type  1   force =    -3.03704534   -0.23068460   -1.99937260
     atom   29 type  3   force =    -0.27688983   -2.05265280    2.52621440
     atom   30 type  3   force =     2.59964860    1.06048005    1.58695539
     atom   31 type  2   force =     2.86884381   -0.94443327    4.69350685
     atom   32 type  4   force =    11.13217065   -6.18259145    2.34477034
     atom   33 type  3   force =     1.22378006   -2.74662803   -0.69630709
     atom   34 type  3   force =     2.21435278    0.14201158    1.96089374
     atom   35 type  2   force =     4.06970673   -3.24941004    1.21895625
     atom   36 type  4   force =     2.05358400   -6.26876102  -12.45980920
     atom   37 type  1   force =     0.32683552   -0.09668376   -1.02280648
     atom   38 type  4   force =     1.30237236    8.61145636  -11.42936299
     atom   39 type  1   force =    -2.80124776   -2.82706232   -2.02032485
     atom   40 type  1   force =     0.21338486   -1.62447895   -0.00672683
     atom   41 type  4   force =   -12.20159925   -4.24569638    5.95501004
     atom   42 type  1   force =     3.03704534   -0.23068460    1.99937260
     atom   43 type  3   force =    -0.27688983    2.05265280    2.52621440
     atom   44 type  3   force =     2.59964860   -1.06048005    1.58695539
     atom   45 type  2   force =     2.86884381    0.94443327    4.69350685
     atom   46 type  4   force =    11.13217065    6.18259145    2.34477034
     atom   47 type  3   force =     1.22378006    2.74662803   -0.69630709
     atom   48 type  3   force =     2.21435278   -0.14201158    1.96089374
     atom   49 type  2   force =     4.06970673    3.24941004    1.21895625
     atom   50 type  4   force =     2.05358400    6.26876102  -12.45980920
     atom   51 type  1   force =     0.32683552    0.09668376   -1.02280648
     atom   52 type  4   force =     1.30237236   -8.61145636  -11.42936299
     atom   53 type  1   force =    -2.80124776    2.82706232   -2.02032485
     atom   54 type  1   force =     0.21338486    1.62447895   -0.00672683
     atom   55 type  4   force =   -12.20159925    4.24569638    5.95501004
     atom   56 type  1   force =     3.03704534    0.23068460    1.99937260
     The local contribution  to forces
     atom    1 type  1   force =     2.85419620   -0.60714371    1.87701719
     atom    2 type  4   force =    -9.79188377   -3.78135788    4.41079564
     atom    3 type  1   force =     0.16977926   -1.60515363   -0.07806817
     atom    4 type  1   force =    -2.22150355   -2.41532115   -1.89358202
     atom    5 type  4   force =     1.14177248    6.72437695   -9.16465754
     atom    6 type  1   force =     0.34509003   -0.14571707   -1.09649818
     atom    7 type  4   force =     1.51031894   -5.08732408   -9.80794738
     atom    8 type  2   force =     3.61360157   -2.93245612    1.09448834
     atom    9 type  3   force =     2.01606949    0.06072998    1.76864689
     atom   10 type  3   force =     1.15508226   -2.48953389   -0.58655496
     atom   11 type  4   force =     8.84591605   -4.69553440    1.49560885
     atom   12 type  2   force =     2.61618026   -0.81500901    4.22060247
     atom   13 type  3   force =     2.30964170    0.91423788    1.48467460
[...]
     atom   22 type  4   force =    -0.00424160   -0.00887190    0.02065553
     atom   23 type  1   force =    -0.00105895    0.00147234   -0.00016201
     atom   24 type  4   force =    -0.00101899    0.01441215    0.01778167
     atom   25 type  1   force =     0.00910313   -0.00578694    0.00065164
     atom   26 type  1   force =     0.00023242   -0.00138148   -0.00000464
     atom   27 type  4   force =     0.01898838   -0.00378821   -0.01201973
     atom   28 type  1   force =    -0.00364239    0.00551132   -0.00266935
     atom   29 type  3   force =     0.00000000    0.00000000    0.00000000
     atom   30 type  3   force =     0.00000000    0.00000000    0.00000000
     atom   31 type  2   force =     0.00556267   -0.00259241    0.01019788
     atom   32 type  4   force =     0.01793034   -0.01171553    0.00679506
     atom   33 type  3   force =     0.00000000    0.00000000    0.00000000
     atom   34 type  3   force =     0.00000000    0.00000000    0.00000000
     atom   35 type  2   force =     0.00905631   -0.00687998    0.00346490
     atom   36 type  4   force =     0.00424617   -0.00886683   -0.02065117
     atom   37 type  1   force =     0.00105727    0.00147211    0.00016212
     atom   38 type  4   force =     0.00101942    0.01441044   -0.01778016
     atom   39 type  1   force =    -0.00909900   -0.00578932   -0.00064765
     atom   40 type  1   force =    -0.00023198   -0.00138104    0.00000393
     atom   41 type  4   force =    -0.01898133   -0.00377789    0.01202682
     atom   42 type  1   force =     0.00363404    0.00550774    0.00266628
     atom   43 type  3   force =     0.00000000    0.00000000    0.00000000
     atom   44 type  3   force =     0.00000000    0.00000000    0.00000000
     atom   45 type  2   force =     0.00556613    0.00259112    0.01019972
     atom   46 type  4   force =     0.01793831    0.01171321    0.00678763
     atom   47 type  3   force =     0.00000000    0.00000000    0.00000000
     atom   48 type  3   force =     0.00000000    0.00000000    0.00000000
     atom   49 type  2   force =     0.00905786    0.00687987    0.00346628
     atom   50 type  4   force =     0.00424160    0.00887190   -0.02065553
     atom   51 type  1   force =     0.00105895   -0.00147234    0.00016201
     atom   52 type  4   force =     0.00101899   -0.01441215   -0.01778167
     atom   53 type  1   force =    -0.00910313    0.00578694   -0.00065164
     atom   54 type  1   force =    -0.00023242    0.00138148    0.00000464
     atom   55 type  4   force =    -0.01898838    0.00378821    0.01201973
     atom   56 type  1   force =     0.00364239   -0.00551132    0.00266935
     The Hubbard contrib.    to forces
     atom    1 type  1   force =     0.00000000    0.00000000    0.00000000
     atom    2 type  4   force =     0.00000000    0.00000000    0.00000000
     atom    3 type  1   force =     0.00000000    0.00000000    0.00000000
     atom    4 type  1   force =     0.00000000    0.00000000    0.00000000
     atom    5 type  4   force =     0.00000000    0.00000000    0.00000000
     atom    6 type  1   force =     0.00000000    0.00000000    0.00000000
     atom    7 type  4   force =     0.00000000    0.00000000    0.00000000
     atom    8 type  2   force =     0.00000000    0.00000000    0.00000000
     atom    9 type  3   force =     0.00000000    0.00000000    0.00000000
     atom   10 type  3   force =     0.00000000    0.00000000    0.00000000
     atom   11 type  4   force =     0.00000000    0.00000000    0.00000000
     atom   12 type  2   force =     0.00000000    0.00000000    0.00000000
     atom   13 type  3   force =     0.00000000    0.00000000    0.00000000
     atom   14 type  3   force =     0.00000000    0.00000000    0.00000000
     atom   15 type  3   force =     0.00000000    0.00000000    0.00000000
     atom   16 type  3   force =     0.00000000    0.00000000    0.00000000
     atom   17 type  2   force =     0.00000000    0.00000000    0.00000000
     atom   18 type  4   force =     0.00000000    0.00000000    0.00000000
     atom   19 type  3   force =     0.00000000    0.00000000    0.00000000
     atom   20 type  3   force =     0.00000000    0.00000000    0.00000000
     atom   21 type  2   force =     0.00000000    0.00000000    0.00000000
     atom   22 type  4   force =     0.00000000    0.00000000    0.00000000
     atom   23 type  1   force =     0.00000000    0.00000000    0.00000000
     atom   24 type  4   force =     0.00000000    0.00000000    0.00000000
     atom   25 type  1   force =     0.00000000    0.00000000    0.00000000
     atom   26 type  1   force =     0.00000000    0.00000000    0.00000000
     atom   27 type  4   force =     0.00000000    0.00000000    0.00000000
     atom   28 type  1   force =     0.00000000    0.00000000    0.00000000
     atom   29 type  3   force =     0.00000000    0.00000000    0.00000000
     atom   30 type  3   force =     0.00000000    0.00000000    0.00000000
     atom   31 type  2   force =     0.00000000    0.00000000    0.00000000
     atom   32 type  4   force =     0.00000000    0.00000000    0.00000000
     atom   33 type  3   force =     0.00000000    0.00000000    0.00000000
     atom   34 type  3   force =     0.00000000    0.00000000    0.00000000
     atom   35 type  2   force =     0.00000000    0.00000000    0.00000000
     atom   36 type  4   force =     0.00000000    0.00000000    0.00000000
     atom   37 type  1   force =     0.00000000    0.00000000    0.00000000
     atom   38 type  4   force =     0.00000000    0.00000000    0.00000000
     atom   39 type  1   force =     0.00000000    0.00000000    0.00000000
     atom   40 type  1   force =     0.00000000    0.00000000    0.00000000
     atom   41 type  4   force =     0.00000000    0.00000000    0.00000000
     atom   42 type  1   force =     0.00000000    0.00000000    0.00000000
     atom   43 type  3   force =     0.00000000    0.00000000    0.00000000
     atom   44 type  3   force =     0.00000000    0.00000000    0.00000000
     atom   45 type  2   force =     0.00000000    0.00000000    0.00000000
     atom   46 type  4   force =     0.00000000    0.00000000    0.00000000
     atom   47 type  3   force =     0.00000000    0.00000000    0.00000000
     atom   48 type  3   force =     0.00000000    0.00000000    0.00000000
     atom   49 type  2   force =     0.00000000    0.00000000    0.00000000
     atom   50 type  4   force =     0.00000000    0.00000000    0.00000000
     atom   51 type  1   force =     0.00000000    0.00000000    0.00000000
     atom   52 type  4   force =     0.00000000    0.00000000    0.00000000
     atom   53 type  1   force =     0.00000000    0.00000000    0.00000000
     atom   54 type  1   force =     0.00000000    0.00000000    0.00000000
     atom   55 type  4   force =     0.00000000    0.00000000    0.00000000
     atom   56 type  1   force =     0.00000000    0.00000000    0.00000000
     The SCF correction term to forces
     atom    1 type  1   force =     0.00000773   -0.00000792   -0.00000354
     atom    2 type  4   force =     0.00001675   -0.00000978   -0.00000179
     atom    3 type  1   force =     0.00004212   -0.00001879   -0.00005659
     atom    4 type  1   force =    -0.00001510    0.00000136   -0.00001916
     atom    5 type  4   force =    -0.00000386    0.00002129   -0.00003089
     atom    6 type  1   force =    -0.00002430    0.00004340   -0.00005667
     atom    7 type  4   force =     0.00001290   -0.00001290   -0.00003279
     atom    8 type  2   force =    -0.00001163   -0.00000934    0.00000020
     atom    9 type  3   force =    -0.00000297   -0.00000279    0.00000223
     atom   10 type  3   force =    -0.00000426   -0.00000200    0.00000024
     atom   11 type  4   force =    -0.00000017    0.00001235   -0.00002954
     atom   12 type  2   force =     0.00000422    0.00000164    0.00001453
     atom   13 type  3   force =    -0.00000098    0.00000067    0.00000410
     atom   14 type  3   force =    -0.00000079    0.00000126    0.00000317
     atom   15 type  3   force =     0.00000182   -0.00000149   -0.00000125
     atom   16 type  3   force =     0.00000137    0.00000044   -0.00000102
     atom   17 type  2   force =     0.00000725   -0.00000257   -0.00000400
     atom   18 type  4   force =     0.00000661   -0.00000399    0.00000332
     atom   19 type  3   force =    -0.00000157    0.00000163    0.00000316
     atom   20 type  3   force =    -0.00000087    0.00000135    0.00000122
     atom   21 type  2   force =    -0.00000160    0.00000500    0.00000493
     atom   22 type  4   force =     0.00000754    0.00000287   -0.00000328
     atom   23 type  1   force =     0.00000805    0.00000472    0.00000800
     atom   24 type  4   force =     0.00001102    0.00000088    0.00000007
     atom   25 type  1   force =    -0.00000246    0.00000504    0.00000687
     atom   26 type  1   force =     0.00002757    0.00000524   -0.00003718
     atom   27 type  4   force =     0.00000128   -0.00000202   -0.00001540
     atom   28 type  1   force =     0.00001138    0.00000240   -0.00000560
     atom   29 type  3   force =     0.00000079   -0.00000126   -0.00000317
     atom   30 type  3   force =     0.00000098   -0.00000067   -0.00000410
     atom   31 type  2   force =    -0.00000422   -0.00000164   -0.00001453
     atom   32 type  4   force =     0.00000017   -0.00001235    0.00002954
     atom   33 type  3   force =     0.00000426    0.00000200   -0.00000024
     atom   34 type  3   force =     0.00000297    0.00000279   -0.00000223
     atom   35 type  2   force =     0.00001163    0.00000934   -0.00000020
     atom   36 type  4   force =    -0.00001290    0.00001290    0.00003279
     atom   37 type  1   force =     0.00002430   -0.00004340    0.00005667
     atom   38 type  4   force =     0.00000386   -0.00002129    0.00003089
     atom   39 type  1   force =     0.00001510   -0.00000136    0.00001916
     atom   40 type  1   force =    -0.00004212    0.00001879    0.00005659
     atom   41 type  4   force =    -0.00001675    0.00000978    0.00000179
     atom   42 type  1   force =    -0.00000773    0.00000792    0.00000354
     atom   43 type  3   force =    -0.00000182    0.00000149    0.00000125
     atom   44 type  3   force =    -0.00000137   -0.00000044    0.00000102
     atom   45 type  2   force =    -0.00000725    0.00000257    0.00000400
     atom   46 type  4   force =    -0.00000661    0.00000399   -0.00000332
     atom   47 type  3   force =     0.00000157   -0.00000163   -0.00000316
     atom   48 type  3   force =     0.00000087   -0.00000135   -0.00000122
     atom   49 type  2   force =     0.00000160   -0.00000500   -0.00000493
     atom   50 type  4   force =    -0.00000754   -0.00000287    0.00000328
     atom   51 type  1   force =    -0.00000805   -0.00000472   -0.00000800
     atom   52 type  4   force =    -0.00001102   -0.00000088   -0.00000007
     atom   53 type  1   force =     0.00000246   -0.00000504   -0.00000687
     atom   54 type  1   force =    -0.00002757   -0.00000524    0.00003718
     atom   55 type  4   force =    -0.00000128    0.00000202    0.00001540
     atom   56 type  1   force =    -0.00001138   -0.00000240    0.00000560

     Total force =     0.006020     Total SCF correction =     0.000199


     entering subroutine stress ...

          total   stress  (Ry/bohr**3)                   (kbar)     P=   19.24
   0.00013209   0.00000003  -0.00000493         19.43      0.00     -0.72
   0.00000003   0.00012895  -0.00000011          0.00     18.97     -0.02
  -0.00000493  -0.00000011   0.00013125         -0.72     -0.02     19.31

     kinetic stress (kbar)  15123.99      0.10    330.68
                                0.10  15561.22      0.07
                              330.68      0.07  15093.73

     local   stress (kbar) -15151.75      0.37   7500.63
                                0.37  -8213.99      0.53
                             7500.63      0.53 -11451.95

     nonloc. stress (kbar)   1045.48     -0.00      7.83
                               -0.00   1055.27      0.00
                                7.83      0.00   1017.32

     hartree stress (kbar)   6833.24     -0.09  -2704.79
                               -0.09   4812.38     -0.13
                            -2704.79     -0.13   5431.55

     exc-cor stress (kbar)  -2183.77     -0.00    -10.99
                               -0.00  -2204.73     -0.00
                              -10.99     -0.00  -2189.35

     corecor stress (kbar)  -1143.34     -0.00     -2.29
                               -0.00  -1145.27      0.00
                               -2.29      0.00  -1143.42

     ewald   stress (kbar)  -4504.43     -0.36  -5121.80
                               -0.36  -9845.91     -0.48
                            -5121.80     -0.48  -6738.57

     hubbard stress (kbar)      0.00      0.00      0.00
                                0.00      0.00      0.00
                                0.00      0.00      0.00

     london  stress (kbar)      0.00      0.00      0.00
                                0.00      0.00      0.00
                                0.00      0.00      0.00

     XDM     stress (kbar)      0.00      0.00      0.00
                                0.00      0.00      0.00
                                0.00      0.00      0.00

     dft-nl  stress (kbar)      0.00      0.00      0.00
                                0.00      0.00      0.00
                                0.00      0.00      0.00

     TS-vdW  stress (kbar)      0.00      0.00      0.00
                                0.00      0.00      0.00
                                0.00      0.00      0.00



     bfgs converged in  20 scf cycles and  19 bfgs steps
     (criteria: energy <  1.0E-04, force <  1.0E-03)

     End of BFGS Geometry Optimization

     Final energy   =   -1282.3767719050 Ry
Begin final coordinates

ATOMIC_POSITIONS (crystal)
N       -0.021158987   0.625320669   0.458549805
O        0.274062452   0.723659024   0.435701013
N        0.140638007   0.705824415   0.530833880
N       -0.145176154   0.523953229   0.704086971
O       -0.273009213   0.427215781   0.926179059
N       -0.304978265   0.500840483   0.794175892
O        0.140878884   0.750277270   0.685965583
C       -0.192577081   0.615663666   0.552158062
H       -0.332349241   0.588108857   0.448699899
H       -0.220292597   0.704212189   0.612318319
O       -0.470639600   0.560030502   0.737540783
C       -0.022167463   0.565735015   0.280739421
H       -0.175989750   0.521767525   0.236181021
H       -0.001459429   0.631875223   0.174313608
H        0.498544359  -0.131879334  -0.325685365
H        0.324012716  -0.021768952  -0.263815820
C        0.477832198  -0.065731537  -0.219250950
O        0.029369911  -0.060027365   0.237552365
H        0.279702479  -0.204211376   0.112318500
H        0.167647320  -0.088108844  -0.051300486
C        0.307421461  -0.115661371   0.052151624
O        0.640874382  -0.250289882   0.186010039
N        0.195008360  -0.000863558   0.294139613
O        0.226998515   0.072799184   0.426208107
N        0.354818914  -0.023948010   0.204094422
N        0.640617015  -0.205805505   0.030792934
O        0.774075785  -0.223666698  -0.064293288
N        0.478843805  -0.125323409  -0.041446433
H        0.001459429   0.368124777   0.825686392
H        0.175989750   0.478232475   0.763818979
C        0.022167463   0.434264985   0.719260579
O        0.470639600   0.439969498   0.262459217
H        0.220292597   0.295787811   0.387681681
H        0.332349241   0.411891143   0.551300101
C        0.192577081   0.384336334   0.447841938
O       -0.140878884   0.249722730   0.314034417
N        0.304978265   0.499159517   0.205824108
O        0.273009213   0.572784219   0.073820941
N        0.145176154   0.476046771   0.295913029
N       -0.140638007   0.294175585   0.469166120
O       -0.274062452   0.276340976   0.564298987
N        0.021158987   0.374679331   0.541450195
H        0.501455641   0.131879334   0.325685365
H        0.675987284   0.021768952   0.263815820
C        0.522167802   0.065731537   0.219250950
O        0.970630089   0.060027365  -0.237552365
H        0.720297521   0.204211376  -0.112318500
H        0.832352680   0.088108844   0.051300486
C        0.692578539   0.115661371  -0.052151624
O        0.359125618   0.250289882  -0.186010039
N        0.804991640   0.000863558  -0.294139613
O        0.773001485  -0.072799184  -0.426208107
N        0.645181086   0.023948010  -0.204094422
N        0.359382985   0.205805505  -0.030792934
O        0.225924215   0.223666698   0.064293288
N        0.521156195   0.125323409   0.041446433
End final coordinates



     Writing output data file relax.pbe.ec-80.kp-4x2x4.HMX-792932.np-32.default-conv-thr.save

     init_run     :     73.65s CPU    111.06s WALL (       1 calls)
     electrons    :  36896.07s CPU  42264.87s WALL (      20 calls)
     update_pot   :    517.15s CPU    549.66s WALL (      19 calls)
     forces       :    835.21s CPU   1067.40s WALL (      20 calls)
     stress       :   2588.91s CPU   2676.39s WALL (      20 calls)

     Called by init_run:
     wfcinit      :     43.10s CPU     63.20s WALL (       1 calls)
     potinit      :     10.24s CPU     11.29s WALL (       1 calls)

     Called by electrons:
     c_bands      :  31394.94s CPU  35599.45s WALL (     296 calls)
     sum_band     :   4889.76s CPU   5975.14s WALL (     296 calls)
     v_of_rho     :    133.49s CPU    158.22s WALL (     303 calls)
     v_h          :      8.11s CPU     10.12s WALL (     303 calls)
     v_xc         :    142.42s CPU    166.82s WALL (     343 calls)
     newd         :    280.24s CPU    271.82s WALL (     303 calls)
     PAW_pot      :    101.11s CPU    111.13s WALL (     322 calls)
     mix_rho      :    109.59s CPU    120.95s WALL (     296 calls)

     Called by c_bands:
     init_us_2    :    234.75s CPU    236.40s WALL (   10432 calls)
     cegterg      :  30158.94s CPU  34006.38s WALL (    4736 calls)

     Called by sum_band:
     sum_band:bec :      6.88s CPU      7.07s WALL (    5040 calls)
     addusdens    :    786.85s CPU    654.96s WALL (     296 calls)

     Called by *egterg:
     h_psi        :  13375.01s CPU  16834.53s WALL (   21954 calls)
     s_psi        :   2368.86s CPU   1809.48s WALL (   21954 calls)
     g_psi        :     32.18s CPU     37.15s WALL (   17202 calls)
     cdiaghg      :   6826.29s CPU   6150.16s WALL (   21426 calls)
     cegterg:over :   3011.57s CPU   4462.71s WALL (   17202 calls)
     cegterg:upda :   1755.77s CPU   1251.78s WALL (   17202 calls)
     cegterg:last :    989.12s CPU    723.94s WALL (    5025 calls)

     Called by h_psi:
     h_psi:vloc   :   7563.33s CPU   9267.38s WALL (   21954 calls)
     h_psi:vnl    :   5706.74s CPU   7459.93s WALL (   21954 calls)
     add_vuspsi   :   2484.97s CPU   2596.04s WALL (   21954 calls)

     General routines
     calbec       :   4793.59s CPU   7455.14s WALL (   28594 calls)
     fft          :    120.76s CPU    195.48s WALL (    5339 calls)
     ffts         :      6.05s CPU     10.59s WALL (     599 calls)
     fftw         :   6940.29s CPU   9030.36s WALL ( 3519184 calls)
     interpolate  :     48.37s CPU     60.94s WALL (     599 calls)
     davcio       :      0.24s CPU     34.34s WALL (      16 calls)

     Parallel routines
     fft_scatter  :   3340.46s CPU   5277.51s WALL ( 3525122 calls)

     PAW routines
     PAW_pot      :    101.11s CPU    111.13s WALL (     322 calls)
     PAW_symme    :      0.75s CPU      1.27s WALL (     618 calls)

     PWSCF        :    11h26m CPU       13h 5m WALL


   This run was terminated on:   9:39:21  21Jul2016            

=------------------------------------------------------------------------------=
   JOB DONE.
=------------------------------------------------------------------------------=
