
     Program PWSCF v.5.3.0 (svn rev. 11974) starts on 25Jun2016 at 10:50:10 

     This program is part of the open-source Quantum ESPRESSO suite
     for quantum simulation of materials; please cite
         "P. Giannozzi et al., J. Phys.:Condens. Matter 21 395502 (2009);
          URL http://www.quantum-espresso.org", 
     in publications or presentations arising from this work. More details at
     http://www.quantum-espresso.org/quote

     Parallel version (MPI), running on    32 processors
     R & G space division:  proc/nbgrp/npool/nimage =      32
     Waiting for input...
     Reading input from standard input
Warning: card    &IONS ignored
Warning: card TRUST_RADIUS_MAX=0.2 ignored
Warning: card / ignored
Warning: card     &CELL ignored
Warning: card CELL_DYNAMICS='BFGS' ignored
Warning: card / ignored

     Current dimensions of program PWSCF are:
     Max number of different atomic species (ntypx) = 10
     Max number of k-points (npk) =  40000
     Max angular momentum in pseudopotentials (lmaxx) =  3
               file N.pbe-n-kjpaw_psl.1.0.0.UPF: wavefunction(s)  2S renormalized
               file C.pbe-n-kjpaw_psl.1.0.0.UPF: wavefunction(s)  2S 2P renormalized
               file H.pbe-kjpaw_psl.1.0.0.UPF: wavefunction(s)  1S renormalized
               file O.pbe-n-kjpaw_psl.1.0.0.UPF: wavefunction(s)  2S 2P renormalized

     Subspace diagonalization in iterative solution of the eigenvalue problem:
     a serial algorithm will be used


     Parallelization info
     --------------------
     sticks:   dense  smooth     PW     G-vecs:    dense   smooth      PW
     Min         890     355     93                95807    24200    3272
     Max         891     356     94                95811    24270    3275
     Sum       28493   11385   2999              3065875   775501  104765


     Title: 
     HMX-scf-pbe-n-kjpaw-kp242-ec-140-nofor-nostress-conv-em4                   


     bravais-lattice index     =            0
     lattice parameter (alat)  =       1.8897  a.u.
     unit-cell volume          =    3465.5049 (a.u.)^3
     number of atoms/cell      =           56
     number of atomic types    =            4
     number of electrons       =       224.00
     number of Kohn-Sham states=          112
     kinetic-energy cutoff     =     140.0000  Ry
     charge density cutoff     =    1400.0000  Ry
     convergence threshold     =      1.0E-06
     mixing beta               =       0.7000
     number of iterations used =            8  plain     mixing
     Exchange-correlation      =  SLA  PW   PBX  PBC ( 1  4  3  4 0 0)

     celldm(1)=   1.889726  celldm(2)=   0.000000  celldm(3)=   0.000000
     celldm(4)=   0.000000  celldm(5)=   0.000000  celldm(6)=   0.000000

     crystal axes: (cart. coord. in units of alat)
               a(1) = (   6.525400   0.000000   0.000000 )  
               a(2) = (   0.000000  10.970200   0.000000 )  
               a(3) = (  -1.601165   0.000000   7.173784 )  

     reciprocal axes: (cart. coord. in units 2 pi/alat)
               b(1) = (  0.153247 -0.000000  0.034204 )  
               b(2) = (  0.000000  0.091156 -0.000000 )  
               b(3) = (  0.000000  0.000000  0.139396 )  


     PseudoPot. # 1 for  N read from file:
     /users/majewski/.data/PSEUDOPOTENTIALS/N.pbe-n-kjpaw_psl.1.0.0.UPF
     MD5 check sum: c21df8f53e59d08c3548513d559cdda6
     Pseudo is Projector augmented-wave + core cor, Zval =  5.0
     Generated using "atomic" code by A. Dal Corso  v.5.3.0 svn rev. 11974
     Shape of augmentation charge: PSQ
     Using radial grid of 1085 points,  4 beta functions with: 
                l(1) =   0
                l(2) =   0
                l(3) =   1
                l(4) =   1
     Q(r) pseudized with 0 coefficients 


     PseudoPot. # 2 for  C read from file:
     /users/majewski/.data/PSEUDOPOTENTIALS/C.pbe-n-kjpaw_psl.1.0.0.UPF
     MD5 check sum: 2ba8448e293caca687844dde9a1b88a8
     Pseudo is Projector augmented-wave + core cor, Zval =  4.0
     Generated using "atomic" code by A. Dal Corso  v.5.3.0 svn rev. 11974
     Shape of augmentation charge: PSQ
     Using radial grid of 1073 points,  4 beta functions with: 
                l(1) =   0
                l(2) =   0
                l(3) =   1
                l(4) =   1
     Q(r) pseudized with 0 coefficients 


     PseudoPot. # 3 for  H read from file:
     /users/majewski/.data/PSEUDOPOTENTIALS/H.pbe-kjpaw_psl.1.0.0.UPF
     MD5 check sum: bc0feb48a24907a0b97fa6ee2d589a29
     Pseudo is Projector augmented-wave, Zval =  1.0
     Generated using "atomic" code by A. Dal Corso  v.5.3.0 svn rev. 11974
     Shape of augmentation charge: PSQ
     Using radial grid of  929 points,  2 beta functions with: 
                l(1) =   0
                l(2) =   0
     Q(r) pseudized with 0 coefficients 


     PseudoPot. # 4 for  O read from file:
     /users/majewski/.data/PSEUDOPOTENTIALS/O.pbe-n-kjpaw_psl.1.0.0.UPF
     MD5 check sum: 9c0ade6c043cf4a781bde3908a3a8206
     Pseudo is Projector augmented-wave + core cor, Zval =  6.0
     Generated using "atomic" code by A. Dal Corso  v.5.3.0 svn rev. 11974
     Shape of augmentation charge: PSQ
     Using radial grid of 1095 points,  4 beta functions with: 
                l(1) =   0
                l(2) =   0
                l(3) =   1
                l(4) =   1
     Q(r) pseudized with 0 coefficients 


     atomic species   valence    mass     pseudopotential
        N              5.00    14.00670      N( 1.00)
        C              4.00    12.01100      C( 1.00)
        H              1.00     1.00790      H( 1.00)
        O              6.00    15.99940      O( 1.00)

      4 Sym. Ops., with inversion, found ( 2 have fractional translation)


                                    s                        frac. trans.

      isym =  1     identity                                     

 cryst.   s( 1) = (     1          0          0      )
                  (     0          1          0      )
                  (     0          0          1      )

 cart.    s( 1) = (  1.0000000  0.0000000  0.0000000 )
                  (  0.0000000  1.0000000  0.0000000 )
                  (  0.0000000  0.0000000  1.0000000 )


      isym =  2     180 deg rotation - cart. axis [0,1,0]        

 cryst.   s( 2) = (    -1          0          0      )    f =(  0.5000000 )
                  (     0          1          0      )       (  0.5000000 )
                  (     0          0         -1      )       (  0.5000000 )

 cart.    s( 2) = ( -1.0000000  0.0000000  0.0000000 )    f =(  2.4621177 )
                  (  0.0000000  1.0000000  0.0000000 )       (  5.4851000 )
                  (  0.0000000  0.0000000 -1.0000000 )       (  3.5868922 )


      isym =  3     inversion                                    

 cryst.   s( 3) = (    -1          0          0      )
                  (     0         -1          0      )
                  (     0          0         -1      )

 cart.    s( 3) = ( -1.0000000  0.0000000  0.0000000 )
                  (  0.0000000 -1.0000000  0.0000000 )
                  (  0.0000000  0.0000000 -1.0000000 )


      isym =  4     inv. 180 deg rotation - cart. axis [0,1,0]   

 cryst.   s( 4) = (     1          0          0      )    f =( -0.5000000 )
                  (     0         -1          0      )       (  0.5000000 )
                  (     0          0          1      )       ( -0.5000000 )

 cart.    s( 4) = (  1.0000000  0.0000000  0.0000000 )    f =( -2.4621177 )
                  (  0.0000000 -1.0000000  0.0000000 )       (  5.4851000 )
                  (  0.0000000  0.0000000  1.0000000 )       ( -3.5868922 )


   Cartesian axes

     site n.     atom                  positions (alat units)
         1           N   tau(   1) = (  -0.8600534   6.8323503   3.3057516  )
         2           O   tau(   2) = (   1.0740307   7.8956917   3.1284874  )
         3           N   tau(   3) = (   0.0641502   7.7134767   3.8085621  )
         4           N   tau(   4) = (  -2.0611165   5.7640722   5.0625396  )
         5           O   tau(   5) = (  -3.2546734   4.7030344   6.6181748  )
         6           N   tau(   6) = (  -3.2420076   5.5007874   5.6931153  )
         7           O   tau(   7) = (  -0.1744868   8.2015409   4.9011295  )
         8           C   tau(   8) = (  -2.1308106   6.7490864   3.9685375  )
         9           H   tau(   9) = (  -2.8209601   6.4811942   3.3272012  )
        10           H   tau(  10) = (  -2.3726867   7.6275801   4.3300962  )
        11           O   tau(  11) = (  -4.2139476   6.1474807   5.2942529  )
        12           C   tau(  12) = (  -0.5939543   6.2077071   2.0208551  )
        13           H   tau(  13) = (  -1.4110814   5.7834894   1.7145345  )
        14           H   tau(  14) = (  -0.3209154   6.8519869   1.3501062  )
        15           H   tau(  15) = (   2.1412023  -1.3668869   4.9369984  )
        16           H   tau(  16) = (   1.0510363  -0.2983894   5.3014266  )
        17           C   tau(  17) = (   1.8681633  -0.7226071   5.6077472  )
        18           O   tau(  18) = (  -1.7518299  -0.6623807   8.8811450  )
        19           H   tau(  19) = (   0.0894310  -2.1424801   7.9169884  )
        20           H   tau(  20) = (  -0.3588424  -0.9960942   6.9140934  )
        21           C   tau(  21) = (   0.3313071  -1.2639864   7.5554297  )
        22           O   tau(  22) = (   2.2876309  -2.7164409   8.4880216  )
        23           N   tau(  23) = (  -0.7798899  -0.0156874   9.2800074  )
        24           O   tau(  24) = (  -0.7925557   0.7820656  10.2050669  )
        25           N   tau(  25) = (   0.4010012  -0.2789722   8.6494318  )
        26           N   tau(  26) = (   2.5262679  -2.2283767   7.3954543  )
        27           O   tau(  27) = (   3.5361484  -2.4105917   6.7153795  )
        28           N   tau(  28) = (   1.6020643  -1.3472503   6.8926437  )
        29           H   tau(  29) = (  -1.2802493   4.1182131   5.8236781  )
        30           H   tau(  30) = (  -0.1900832   5.1867106   5.4592499  )
        31           C   tau(  31) = (  -1.0072103   4.7624929   5.1529293  )
        32           O   tau(  32) = (   2.6127830   4.8227193   1.8795315  )
        33           H   tau(  33) = (   0.7715220   3.3426199   2.8436881  )
        34           H   tau(  34) = (   1.2197954   4.4890058   3.8465832  )
        35           C   tau(  35) = (   0.5296460   4.2211136   3.2052468  )
        36           O   tau(  36) = (  -1.4266778   2.7686591   2.2726549  )
        37           N   tau(  37) = (   1.6408430   5.4694126   1.4806691  )
        38           O   tau(  38) = (   1.6535088   6.2671656   0.5556096  )
        39           N   tau(  39) = (   0.4599518   5.2061278   2.1112447  )
        40           N   tau(  40) = (  -1.6653149   3.2567233   3.3652222  )
        41           O   tau(  41) = (  -2.6751954   3.0745083   4.0452970  )
        42           N   tau(  42) = (  -0.7411112   4.1378497   3.8680328  )
        43           H   tau(  43) = (   1.1818684   1.3668869   9.4105703  )
        44           H   tau(  44) = (   2.2720344   0.2983894   9.0461421  )
        45           C   tau(  45) = (   1.4549074   0.7226071   8.7398215  )
        46           O   tau(  46) = (   5.0749007   0.6623807   5.4664237  )
        47           H   tau(  47) = (   3.2336397   2.1424801   6.4305803  )
        48           H   tau(  48) = (   3.6819131   0.9960942   7.4334753  )
        49           C   tau(  49) = (   2.9917636   1.2639864   6.7921390  )
        50           O   tau(  50) = (   1.0354399   2.7164409   5.8595471  )
        51           N   tau(  51) = (   4.1029606   0.0156874   5.0675613  )
        52           O   tau(  52) = (   4.1156264  -0.7820656   4.1425018  )
        53           N   tau(  53) = (   2.9220695   0.2789722   5.6981369  )
        54           N   tau(  54) = (   0.7968028   2.2283767   6.9521144  )
        55           O   tau(  55) = (  -0.2130777   2.4105917   7.6321892  )
        56           N   tau(  56) = (   1.7210065   1.3472503   7.4549250  )

   Crystallographic axes

     site n.     atom                  positions (cryst. coord.)
         1           N   tau(   1) = ( -0.0187300  0.6228100  0.4608100  )
         2           O   tau(   2) = (  0.2716000  0.7197400  0.4361000  )
         3           N   tau(   3) = (  0.1401000  0.7031300  0.5309000  )
         4           N   tau(   4) = ( -0.1427000  0.5254300  0.7057000  )
         5           O   tau(   5) = ( -0.2724000  0.4287100  0.9225500  )
         6           N   tau(   6) = ( -0.3021000  0.5014300  0.7936000  )
         7           O   tau(   7) = (  0.1409000  0.7476200  0.6832000  )
         8           C   tau(   8) = ( -0.1908000  0.6152200  0.5532000  )
         9           H   tau(   9) = ( -0.3185000  0.5908000  0.4638000  )
        10           H   tau(  10) = ( -0.2155000  0.6953000  0.6036000  )
        11           O   tau(  11) = ( -0.4646900  0.5603800  0.7380000  )
        12           C   tau(  12) = ( -0.0219000  0.5658700  0.2817000  )
        13           H   tau(  13) = ( -0.1576000  0.5272000  0.2390000  )
        14           H   tau(  14) = ( -0.0030000  0.6246000  0.1882000  )
        15           H   tau(  15) = (  0.4970000 -0.1246000  0.6882000  )
        16           H   tau(  16) = (  0.3424000 -0.0272000  0.7390000  )
        17           C   tau(  17) = (  0.4781000 -0.0658700  0.7817000  )
        18           O   tau(  18) = (  0.0353100 -0.0603800  1.2380000  )
        19           H   tau(  19) = (  0.2845000 -0.1953000  1.1036000  )
        20           H   tau(  20) = (  0.1815000 -0.0908000  0.9638000  )
        21           C   tau(  21) = (  0.3092000 -0.1152200  1.0532000  )
        22           O   tau(  22) = (  0.6409000 -0.2476200  1.1832000  )
        23           N   tau(  23) = (  0.1979000 -0.0014300  1.2936000  )
        24           O   tau(  24) = (  0.2276000  0.0712900  1.4225500  )
        25           N   tau(  25) = (  0.3573000 -0.0254300  1.2057000  )
        26           N   tau(  26) = (  0.6401000 -0.2031300  1.0309000  )
        27           O   tau(  27) = (  0.7716000 -0.2197400  0.9361000  )
        28           N   tau(  28) = (  0.4812700 -0.1228100  0.9608100  )
        29           H   tau(  29) = (  0.0030000  0.3754000  0.8118000  )
        30           H   tau(  30) = (  0.1576000  0.4728000  0.7610000  )
        31           C   tau(  31) = (  0.0219000  0.4341300  0.7183000  )
        32           O   tau(  32) = (  0.4646900  0.4396200  0.2620000  )
        33           H   tau(  33) = (  0.2155000  0.3047000  0.3964000  )
        34           H   tau(  34) = (  0.3185000  0.4092000  0.5362000  )
        35           C   tau(  35) = (  0.1908000  0.3847800  0.4468000  )
        36           O   tau(  36) = ( -0.1409000  0.2523800  0.3168000  )
        37           N   tau(  37) = (  0.3021000  0.4985700  0.2064000  )
        38           O   tau(  38) = (  0.2724000  0.5712900  0.0774500  )
        39           N   tau(  39) = (  0.1427000  0.4745700  0.2943000  )
        40           N   tau(  40) = ( -0.1401000  0.2968700  0.4691000  )
        41           O   tau(  41) = ( -0.2716000  0.2802600  0.5639000  )
        42           N   tau(  42) = (  0.0187300  0.3771900  0.5391900  )
        43           H   tau(  43) = (  0.5030000  0.1246000  1.3118000  )
        44           H   tau(  44) = (  0.6576000  0.0272000  1.2610000  )
        45           C   tau(  45) = (  0.5219000  0.0658700  1.2183000  )
        46           O   tau(  46) = (  0.9646900  0.0603800  0.7620000  )
        47           H   tau(  47) = (  0.7155000  0.1953000  0.8964000  )
        48           H   tau(  48) = (  0.8185000  0.0908000  1.0362000  )
        49           C   tau(  49) = (  0.6908000  0.1152200  0.9468000  )
        50           O   tau(  50) = (  0.3591000  0.2476200  0.8168000  )
        51           N   tau(  51) = (  0.8021000  0.0014300  0.7064000  )
        52           O   tau(  52) = (  0.7724000 -0.0712900  0.5774500  )
        53           N   tau(  53) = (  0.6427000  0.0254300  0.7943000  )
        54           N   tau(  54) = (  0.3599000  0.2031300  0.9691000  )
        55           O   tau(  55) = (  0.2284000  0.2197400  1.0639000  )
        56           N   tau(  56) = (  0.5187300  0.1228100  1.0391900  )

     number of k points=    16
                       cart. coord. in units 2pi/alat
        k(    1) = (   0.0191559   0.0113945   0.0217001), wk =   0.1250000
        k(    2) = (   0.0191559   0.0113945   0.0565492), wk =   0.1250000
        k(    3) = (   0.0191559   0.0113945  -0.0479981), wk =   0.1250000
        k(    4) = (   0.0191559   0.0113945  -0.0131490), wk =   0.1250000
        k(    5) = (   0.0191559   0.0341835   0.0217001), wk =   0.1250000
        k(    6) = (   0.0191559   0.0341835   0.0565492), wk =   0.1250000
        k(    7) = (   0.0191559   0.0341835  -0.0479981), wk =   0.1250000
        k(    8) = (   0.0191559   0.0341835  -0.0131490), wk =   0.1250000
        k(    9) = (   0.0574677   0.0113945   0.0302512), wk =   0.1250000
        k(   10) = (   0.0574677   0.0113945   0.0651003), wk =   0.1250000
        k(   11) = (   0.0574677   0.0113945  -0.0394471), wk =   0.1250000
        k(   12) = (   0.0574677   0.0113945  -0.0045979), wk =   0.1250000
        k(   13) = (   0.0574677   0.0341835   0.0302512), wk =   0.1250000
        k(   14) = (   0.0574677   0.0341835   0.0651003), wk =   0.1250000
        k(   15) = (   0.0574677   0.0341835  -0.0394471), wk =   0.1250000
        k(   16) = (   0.0574677   0.0341835  -0.0045979), wk =   0.1250000

                       cryst. coord.
        k(    1) = (   0.1250000   0.1250000   0.1250000), wk =   0.1250000
        k(    2) = (   0.1250000   0.1250000   0.3750000), wk =   0.1250000
        k(    3) = (   0.1250000   0.1250000  -0.3750000), wk =   0.1250000
        k(    4) = (   0.1250000   0.1250000  -0.1250000), wk =   0.1250000
        k(    5) = (   0.1250000   0.3750000   0.1250000), wk =   0.1250000
        k(    6) = (   0.1250000   0.3750000   0.3750000), wk =   0.1250000
        k(    7) = (   0.1250000   0.3750000  -0.3750000), wk =   0.1250000
        k(    8) = (   0.1250000   0.3750000  -0.1250000), wk =   0.1250000
        k(    9) = (   0.3750000   0.1250000   0.1250000), wk =   0.1250000
        k(   10) = (   0.3750000   0.1250000   0.3750000), wk =   0.1250000
        k(   11) = (   0.3750000   0.1250000  -0.3750000), wk =   0.1250000
        k(   12) = (   0.3750000   0.1250000  -0.1250000), wk =   0.1250000
        k(   13) = (   0.3750000   0.3750000   0.1250000), wk =   0.1250000
        k(   14) = (   0.3750000   0.3750000   0.3750000), wk =   0.1250000
        k(   15) = (   0.3750000   0.3750000  -0.3750000), wk =   0.1250000
        k(   16) = (   0.3750000   0.3750000  -0.1250000), wk =   0.1250000

     Dense  grid:  3065875 G-vectors     FFT dimensions: ( 150, 250, 180)

     Smooth grid:   775501 G-vectors     FFT dimensions: (  96, 160, 108)

     Largest allocated arrays     est. size (Mb)     dimensions
        Kohn-Sham Wavefunctions         5.20 Mb     (    3044,  112)
        NL pseudopotentials            16.35 Mb     (    3044,  352)
        Each V/rho on FFT grid          3.43 Mb     (  225000)
        Each G-vector array             0.73 Mb     (   95811)
        G-vector shells                 0.72 Mb     (   94379)
     Largest temporary arrays     est. size (Mb)     dimensions
        Auxiliary wavefunctions        20.81 Mb     (    3044,  448)
        Each subspace H/S matrix        3.06 Mb     (     448,  448)
        Each <psi_i|beta_j> matrix      0.60 Mb     (     352,  112)
        Arrays for rho mixing          27.47 Mb     (  225000,    8)

     Initial potential from superposition of free atoms

     starting charge  223.99937, renormalised to  224.00000
     Starting wfc are  176 randomized atomic wfcs
     Checking if some PAW data can be deallocated... 
       node    0, deallocated PAW data for type:  2
       node    0, deallocated PAW data for type:  3
       node    1, deallocated PAW data for type:  2
       node    1, deallocated PAW data for type:  3
       node    1, deallocated PAW data for type:  4
       node    2, deallocated PAW data for type:  2
       node    2, deallocated PAW data for type:  3
       node    3, deallocated PAW data for type:  1
       node    3, deallocated PAW data for type:  3
       node    4, deallocated PAW data for type:  1
       node    4, deallocated PAW data for type:  2
       node    4, deallocated PAW data for type:  4
       node    5, deallocated PAW data for type:  1
       node    5, deallocated PAW data for type:  3
       node    6, deallocated PAW data for type:  1
       node    6, deallocated PAW data for type:  2
       node    6, deallocated PAW data for type:  4
       node    7, deallocated PAW data for type:  1
       node    7, deallocated PAW data for type:  2
       node    7, deallocated PAW data for type:  4
       node    8, deallocated PAW data for type:  1
       node    8, deallocated PAW data for type:  3
       node    9, deallocated PAW data for type:  1
       node    9, deallocated PAW data for type:  2
       node    9, deallocated PAW data for type:  4
       node   10, deallocated PAW data for type:  1
       node   10, deallocated PAW data for type:  3
       node   11, deallocated PAW data for type:  2
       node   11, deallocated PAW data for type:  3
       node   12, deallocated PAW data for type:  2
       node   12, deallocated PAW data for type:  3
       node   12, deallocated PAW data for type:  4
       node   13, deallocated PAW data for type:  2
       node   13, deallocated PAW data for type:  3
       node   14, deallocated PAW data for type:  1
       node   14, deallocated PAW data for type:  2
       node   14, deallocated PAW data for type:  4
       node   15, deallocated PAW data for type:  1
       node   15, deallocated PAW data for type:  3
       node   16, deallocated PAW data for type:  1
       node   16, deallocated PAW data for type:  2
       node   16, deallocated PAW data for type:  4
       node   17, deallocated PAW data for type:  1
       node   17, deallocated PAW data for type:  3
       node   18, deallocated PAW data for type:  2
       node   18, deallocated PAW data for type:  3
       node   19, deallocated PAW data for type:  2
       node   19, deallocated PAW data for type:  3
       node   19, deallocated PAW data for type:  4
       node   20, deallocated PAW data for type:  2
       node   20, deallocated PAW data for type:  3
       node   21, deallocated PAW data for type:  1
       node   21, deallocated PAW data for type:  2
       node   21, deallocated PAW data for type:  4
       node   22, deallocated PAW data for type:  1
       node   22, deallocated PAW data for type:  3
       node   23, deallocated PAW data for type:  1
       node   23, deallocated PAW data for type:  2
       node   23, deallocated PAW data for type:  4
       node   24, deallocated PAW data for type:  1
       node   24, deallocated PAW data for type:  3
       node   24, deallocated PAW data for type:  4
       node   25, deallocated PAW data for type:  1
       node   25, deallocated PAW data for type:  2
       node   25, deallocated PAW data for type:  3
       node   26, deallocated PAW data for type:  2
       node   26, deallocated PAW data for type:  3
       node   26, deallocated PAW data for type:  4
       node   27, deallocated PAW data for type:  1
       node   27, deallocated PAW data for type:  2
       node   27, deallocated PAW data for type:  3
       node   28, deallocated PAW data for type:  2
       node   28, deallocated PAW data for type:  3
       node   28, deallocated PAW data for type:  4
       node   29, deallocated PAW data for type:  2
       node   29, deallocated PAW data for type:  3
       node   29, deallocated PAW data for type:  4
       node   30, deallocated PAW data for type:  1
       node   30, deallocated PAW data for type:  2
       node   30, deallocated PAW data for type:  3
       node   31, deallocated PAW data for type:  2
       node   31, deallocated PAW data for type:  3
       node   31, deallocated PAW data for type:  4

     total cpu time spent up to now is      254.6 secs

     per-process dynamical memory:   172.2 Mb

     Self-consistent Calculation

     iteration #  1     ecut=   140.00 Ry     beta=0.70
     Davidson diagonalization with overlap
     ethr =  1.00E-02,  avg # of iterations =  3.0

     total cpu time spent up to now is      812.0 secs

     total energy              =   -1279.64796365 Ry
     Harris-Foulkes estimate   =   -1283.98211305 Ry
     estimated scf accuracy    <       6.67734182 Ry

     iteration #  2     ecut=   140.00 Ry     beta=0.70
     Davidson diagonalization with overlap
     ethr =  2.98E-03,  avg # of iterations =  4.0

     total cpu time spent up to now is     1416.5 secs

     total energy              =   -1280.31651365 Ry
     Harris-Foulkes estimate   =   -1283.80308756 Ry
     estimated scf accuracy    <       7.03098549 Ry

     iteration #  3     ecut=   140.00 Ry     beta=0.70
     Davidson diagonalization with overlap
     ethr =  2.98E-03,  avg # of iterations =  4.6

     total cpu time spent up to now is     1855.9 secs

     total energy              =   -1281.82467368 Ry
     Harris-Foulkes estimate   =   -1282.05124782 Ry
     estimated scf accuracy    <       0.41994855 Ry

     iteration #  4     ecut=   140.00 Ry     beta=0.70
     Davidson diagonalization with overlap
     ethr =  1.87E-04,  avg # of iterations =  4.8

     total cpu time spent up to now is     2434.3 secs

     total energy              =   -1281.97312987 Ry
     Harris-Foulkes estimate   =   -1282.05813811 Ry
     estimated scf accuracy    <       0.18624943 Ry

     iteration #  5     ecut=   140.00 Ry     beta=0.70
     Davidson diagonalization with overlap
     ethr =  8.31E-05,  avg # of iterations =  4.0

     total cpu time spent up to now is     2862.3 secs

     total energy              =   -1282.01147323 Ry
     Harris-Foulkes estimate   =   -1282.02044220 Ry
     estimated scf accuracy    <       0.02230890 Ry

     iteration #  6     ecut=   140.00 Ry     beta=0.70
     Davidson diagonalization with overlap
     ethr =  9.96E-06,  avg # of iterations =  5.8

     total cpu time spent up to now is     3215.3 secs

     total energy              =   -1282.01328381 Ry
     Harris-Foulkes estimate   =   -1282.01472112 Ry
     estimated scf accuracy    <       0.00385445 Ry

     iteration #  7     ecut=   140.00 Ry     beta=0.70
     Davidson diagonalization with overlap
     ethr =  1.72E-06,  avg # of iterations =  4.8

     total cpu time spent up to now is     3751.2 secs

     total energy              =   -1282.01597709 Ry
     Harris-Foulkes estimate   =   -1282.01708540 Ry
     estimated scf accuracy    <       0.00403232 Ry

     iteration #  8     ecut=   140.00 Ry     beta=0.70
     Davidson diagonalization with overlap
     ethr =  1.72E-06,  avg # of iterations =  1.0

     total cpu time spent up to now is     4025.8 secs

     total energy              =   -1282.01490290 Ry
     Harris-Foulkes estimate   =   -1282.01604546 Ry
     estimated scf accuracy    <       0.00226807 Ry

     iteration #  9     ecut=   140.00 Ry     beta=0.70
     Davidson diagonalization with overlap
     ethr =  1.01E-06,  avg # of iterations =  5.0

     total cpu time spent up to now is     4502.0 secs

     total energy              =   -1282.01633282 Ry
     Harris-Foulkes estimate   =   -1282.01732519 Ry
     estimated scf accuracy    <       0.00532264 Ry

     iteration # 10     ecut=   140.00 Ry     beta=0.70
     Davidson diagonalization with overlap
     ethr =  1.01E-06,  avg # of iterations =  1.0

     total cpu time spent up to now is     4763.4 secs

     total energy              =   -1282.01505693 Ry
     Harris-Foulkes estimate   =   -1282.01636258 Ry
     estimated scf accuracy    <       0.00372182 Ry

     iteration # 11     ecut=   140.00 Ry     beta=0.70
     Davidson diagonalization with overlap
     ethr =  1.01E-06,  avg # of iterations =  5.0

     total cpu time spent up to now is     5188.3 secs

     total energy              =   -1282.01625119 Ry
     Harris-Foulkes estimate   =   -1282.01644903 Ry
     estimated scf accuracy    <       0.00075443 Ry

     iteration # 12     ecut=   140.00 Ry     beta=0.70
     Davidson diagonalization with overlap
     ethr =  3.37E-07,  avg # of iterations =  1.0

     total cpu time spent up to now is     5464.7 secs

     total energy              =   -1282.01608025 Ry
     Harris-Foulkes estimate   =   -1282.01626184 Ry
     estimated scf accuracy    <       0.00043855 Ry

     iteration # 13     ecut=   140.00 Ry     beta=0.70
     Davidson diagonalization with overlap
     ethr =  1.96E-07,  avg # of iterations =  5.0

     total cpu time spent up to now is     5861.3 secs

     total energy              =   -1282.01630663 Ry
     Harris-Foulkes estimate   =   -1282.01637867 Ry
     estimated scf accuracy    <       0.00037377 Ry

     iteration # 14     ecut=   140.00 Ry     beta=0.70
     Davidson diagonalization with overlap
     ethr =  1.67E-07,  avg # of iterations =  1.0

     total cpu time spent up to now is     6135.6 secs

     total energy              =   -1282.01624193 Ry
     Harris-Foulkes estimate   =   -1282.01630894 Ry
     estimated scf accuracy    <       0.00025884 Ry

     iteration # 15     ecut=   140.00 Ry     beta=0.70
     Davidson diagonalization with overlap
     ethr =  1.16E-07,  avg # of iterations =  5.0

     total cpu time spent up to now is     6484.4 secs

     total energy              =   -1282.01632017 Ry
     Harris-Foulkes estimate   =   -1282.01630701 Ry
     estimated scf accuracy    <       0.00000631 Ry

     iteration # 16     ecut=   140.00 Ry     beta=0.70
     Davidson diagonalization with overlap
     ethr =  2.81E-09,  avg # of iterations =  5.0

     total cpu time spent up to now is     7010.2 secs

     total energy              =   -1282.01629915 Ry
     Harris-Foulkes estimate   =   -1282.01633816 Ry
     estimated scf accuracy    <       0.00016131 Ry

     iteration # 17     ecut=   140.00 Ry     beta=0.70
     Davidson diagonalization with overlap
     ethr =  2.81E-09,  avg # of iterations =  5.0

     total cpu time spent up to now is     7556.5 secs

     total energy              =   -1282.01630496 Ry
     Harris-Foulkes estimate   =   -1282.01630998 Ry
     estimated scf accuracy    <       0.00001732 Ry

     iteration # 18     ecut=   140.00 Ry     beta=0.70
     Davidson diagonalization with overlap
     ethr =  2.81E-09,  avg # of iterations =  6.2

     total cpu time spent up to now is     7925.3 secs

     End of self-consistent calculation

          k = 0.0192 0.0114 0.0217 ( 96928 PWs)   bands (ev):

   -23.9415 -23.9184 -23.9065 -23.8967 -23.6491 -23.6400 -23.6391 -23.6357
   -19.1680 -19.1625 -19.1555 -19.1431 -18.8482 -18.8481 -18.8438 -18.8426
   -18.2517 -18.2265 -17.2298 -17.1795 -17.0678 -17.0656 -16.0503 -16.0370
   -12.1051 -12.1020 -12.0816 -11.9632 -11.9076 -11.8331 -11.7783 -11.7582
    -8.8863  -8.8471  -8.2874  -8.2507  -7.5711  -7.5298  -7.4465  -7.4452
    -6.8632  -6.7565  -6.6085  -6.5281  -6.5110  -6.4135  -6.3517  -6.2688
    -6.1360  -6.1062  -6.0763  -5.9579  -5.9036  -5.8195  -5.7557  -5.7157
    -5.6580  -5.6373  -5.5584  -5.5176  -5.1356  -5.0206  -4.9329  -4.9229
    -4.4658  -4.4562  -4.4241  -4.3833  -4.2307  -4.1294  -3.8582  -3.8535
    -3.6977  -3.5862  -3.5331  -3.4941  -3.1649  -3.1255  -3.0539  -3.0339
    -0.8022  -0.7970  -0.3133  -0.3108  -0.2131  -0.1605  -0.1003  -0.0813
    -0.0259   0.0022   0.1686   0.2020   0.2137   0.2426   0.3718   0.3894
     0.4406   0.4568   0.6322   0.6849   0.7691   0.8152   0.8635   0.8897
     0.9124   1.0261   1.0583   1.1246   1.2122   1.3455   1.3649   1.3886

     occupation numbers 
     1.0000   1.0000   1.0000   1.0000   1.0000   1.0000   1.0000   1.0000
     1.0000   1.0000   1.0000   1.0000   1.0000   1.0000   1.0000   1.0000
     1.0000   1.0000   1.0000   1.0000   1.0000   1.0000   1.0000   1.0000
     1.0000   1.0000   1.0000   1.0000   1.0000   1.0000   1.0000   1.0000
     1.0000   1.0000   1.0000   1.0000   1.0000   1.0000   1.0000   1.0000
     1.0000   1.0000   1.0000   1.0000   1.0000   1.0000   1.0000   1.0000
     1.0000   1.0000   1.0000   1.0000   1.0000   1.0000   1.0000   1.0000
     1.0000   1.0000   1.0000   1.0000   1.0000   1.0000   1.0000   1.0000
     1.0000   1.0000   1.0000   1.0000   1.0000   1.0000   1.0000   1.0000
     1.0000   1.0000   1.0000   1.0000   1.0000   1.0000   1.0000   1.0000
     1.0000   1.0000   1.0000   1.0000   1.0000   1.0000   1.0000   1.0000
     1.0000   1.0000   1.0000   1.0000   1.0000   1.0000   1.0000   1.0000
     1.0000   1.0000   1.0000   1.0000   1.0000   1.0000   1.0000   1.0000
     1.0000   1.0000   1.0000   1.0000   1.0000   1.0000   1.0000   1.0000

          k = 0.0192 0.0114 0.0565 ( 96957 PWs)   bands (ev):

   -23.9333 -23.9240 -23.9027 -23.9016 -23.6506 -23.6474 -23.6359 -23.6314
   -19.1661 -19.1613 -19.1564 -19.1468 -18.8544 -18.8536 -18.8389 -18.8372
   -18.2399 -18.2397 -17.2058 -17.2032 -17.0635 -17.0610 -16.0457 -16.0440
   -12.1139 -12.1123 -12.0277 -12.0076 -11.8647 -11.8548 -11.7863 -11.7778
    -8.8666  -8.8307  -8.2689  -8.2441  -7.5849  -7.5351  -7.4274  -7.3508
    -6.9100  -6.7833  -6.5947  -6.5622  -6.5505  -6.4346  -6.3756  -6.3472
    -6.1969  -6.1629  -5.9638  -5.9105  -5.8951  -5.8280  -5.8006  -5.7619
    -5.7147  -5.6601  -5.4775  -5.4334  -5.1389  -5.0588  -4.9297  -4.8930
    -4.4236  -4.4150  -4.3711  -4.2944  -4.1559  -4.1270  -3.9731  -3.9689
    -3.6825  -3.6337  -3.4720  -3.4614  -3.1881  -3.1839  -3.0367  -3.0119
    -0.7685  -0.7344  -0.3266  -0.3155  -0.2213  -0.1895  -0.1337  -0.1116
    -0.0803  -0.0395   0.0683   0.1298   0.2342   0.2857   0.3423   0.3536
     0.5472   0.6085   0.6530   0.6964   0.7733   0.7919   0.8244   0.8741
     0.9835   1.0233   1.0946   1.1193   1.2230   1.2936   1.3708   1.3951

     occupation numbers 
     1.0000   1.0000   1.0000   1.0000   1.0000   1.0000   1.0000   1.0000
     1.0000   1.0000   1.0000   1.0000   1.0000   1.0000   1.0000   1.0000
     1.0000   1.0000   1.0000   1.0000   1.0000   1.0000   1.0000   1.0000
     1.0000   1.0000   1.0000   1.0000   1.0000   1.0000   1.0000   1.0000
     1.0000   1.0000   1.0000   1.0000   1.0000   1.0000   1.0000   1.0000
     1.0000   1.0000   1.0000   1.0000   1.0000   1.0000   1.0000   1.0000
     1.0000   1.0000   1.0000   1.0000   1.0000   1.0000   1.0000   1.0000
     1.0000   1.0000   1.0000   1.0000   1.0000   1.0000   1.0000   1.0000
     1.0000   1.0000   1.0000   1.0000   1.0000   1.0000   1.0000   1.0000
     1.0000   1.0000   1.0000   1.0000   1.0000   1.0000   1.0000   1.0000
     1.0000   1.0000   1.0000   1.0000   1.0000   1.0000   1.0000   1.0000
     1.0000   1.0000   1.0000   1.0000   1.0000   1.0000   1.0000   1.0000
     1.0000   1.0000   1.0000   1.0000   1.0000   1.0000   1.0000   1.0000
     1.0000   1.0000   1.0000   1.0000   1.0000   1.0000   1.0000   1.0000

          k = 0.0192 0.0114-0.0480 ( 96942 PWs)   bands (ev):

   -23.9343 -23.9234 -23.9065 -23.8975 -23.6521 -23.6490 -23.6327 -23.6314
   -19.1638 -19.1621 -19.1531 -19.1518 -18.8560 -18.8553 -18.8371 -18.8356
   -18.2516 -18.2267 -17.2276 -17.1811 -17.0661 -17.0643 -16.0495 -16.0337
   -12.1237 -12.1109 -12.0619 -11.9740 -11.8953 -11.8198 -11.7898 -11.7765
    -8.8758  -8.7921  -8.2561  -8.2532  -7.5796  -7.5642  -7.4392  -7.3251
    -6.9186  -6.8094  -6.5943  -6.5611  -6.5110  -6.4858  -6.3906  -6.3547
    -6.2139  -6.1874  -5.9693  -5.9350  -5.8278  -5.7929  -5.7862  -5.7725
    -5.7148  -5.6460  -5.4798  -5.4283  -5.1330  -5.0593  -4.9160  -4.8871
    -4.4537  -4.3863  -4.3533  -4.2964  -4.1867  -4.1449  -3.9776  -3.9279
    -3.6884  -3.6360  -3.5256  -3.4433  -3.1941  -3.1722  -3.0301  -3.0201
    -0.7034  -0.6432  -0.3157  -0.3075  -0.2775  -0.2462  -0.1713  -0.1524
    -0.0917  -0.0872   0.0346   0.1161   0.2528   0.2883   0.2984   0.3485
     0.5886   0.6725   0.6920   0.7055   0.7411   0.8346   0.8446   0.8569
     0.9760   1.0301   1.1064   1.1629   1.2295   1.2558   1.3596   1.3798

     occupation numbers 
     1.0000   1.0000   1.0000   1.0000   1.0000   1.0000   1.0000   1.0000
     1.0000   1.0000   1.0000   1.0000   1.0000   1.0000   1.0000   1.0000
     1.0000   1.0000   1.0000   1.0000   1.0000   1.0000   1.0000   1.0000
     1.0000   1.0000   1.0000   1.0000   1.0000   1.0000   1.0000   1.0000
     1.0000   1.0000   1.0000   1.0000   1.0000   1.0000   1.0000   1.0000
     1.0000   1.0000   1.0000   1.0000   1.0000   1.0000   1.0000   1.0000
     1.0000   1.0000   1.0000   1.0000   1.0000   1.0000   1.0000   1.0000
     1.0000   1.0000   1.0000   1.0000   1.0000   1.0000   1.0000   1.0000
     1.0000   1.0000   1.0000   1.0000   1.0000   1.0000   1.0000   1.0000
     1.0000   1.0000   1.0000   1.0000   1.0000   1.0000   1.0000   1.0000
     1.0000   1.0000   1.0000   1.0000   1.0000   1.0000   1.0000   1.0000
     1.0000   1.0000   1.0000   1.0000   1.0000   1.0000   1.0000   1.0000
     1.0000   1.0000   1.0000   1.0000   1.0000   1.0000   1.0000   1.0000
     1.0000   1.0000   1.0000   1.0000   1.0000   1.0000   1.0000   1.0000

          k = 0.0192 0.0114-0.0131 ( 96893 PWs)   bands (ev):

   -23.9419 -23.9185 -23.9076 -23.8950 -23.6515 -23.6430 -23.6355 -23.6338
   -19.1669 -19.1612 -19.1558 -19.1454 -18.8520 -18.8514 -18.8396 -18.8395
   -18.2563 -18.2206 -17.2388 -17.1701 -17.0699 -17.0694 -16.0507 -16.0301
   -12.1194 -12.1027 -12.0871 -11.9620 -11.9075 -11.8223 -11.7762 -11.7588
    -8.8974  -8.8067  -8.2810  -8.2537  -7.5756  -7.5537  -7.4799  -7.3953
    -6.8311  -6.8159  -6.6054  -6.5155  -6.5091  -6.4600  -6.3587  -6.2857
    -6.1813  -6.1402  -6.0117  -5.9606  -5.8642  -5.8167  -5.7380  -5.7116
    -5.6727  -5.6257  -5.5308  -5.5219  -5.1025  -5.0571  -4.9294  -4.8931
    -4.4682  -4.4468  -4.4218  -4.3992  -4.2392  -4.1394  -3.8657  -3.8069
    -3.7326  -3.5953  -3.5458  -3.4929  -3.1708  -3.1214  -3.0468  -3.0402
    -0.7539  -0.7319  -0.3031  -0.2991  -0.2138  -0.1794  -0.1131  -0.0929
    -0.0823  -0.0443   0.0613   0.1209   0.1879   0.2651   0.3170   0.3819
     0.5608   0.5970   0.6246   0.7093   0.7590   0.8201   0.8765   0.8893
     0.9208   1.0047   1.0859   1.1529   1.2096   1.3258   1.3512   1.3761

     occupation numbers 
     1.0000   1.0000   1.0000   1.0000   1.0000   1.0000   1.0000   1.0000
     1.0000   1.0000   1.0000   1.0000   1.0000   1.0000   1.0000   1.0000
     1.0000   1.0000   1.0000   1.0000   1.0000   1.0000   1.0000   1.0000
     1.0000   1.0000   1.0000   1.0000   1.0000   1.0000   1.0000   1.0000
     1.0000   1.0000   1.0000   1.0000   1.0000   1.0000   1.0000   1.0000
     1.0000   1.0000   1.0000   1.0000   1.0000   1.0000   1.0000   1.0000
     1.0000   1.0000   1.0000   1.0000   1.0000   1.0000   1.0000   1.0000
     1.0000   1.0000   1.0000   1.0000   1.0000   1.0000   1.0000   1.0000
     1.0000   1.0000   1.0000   1.0000   1.0000   1.0000   1.0000   1.0000
     1.0000   1.0000   1.0000   1.0000   1.0000   1.0000   1.0000   1.0000
     1.0000   1.0000   1.0000   1.0000   1.0000   1.0000   1.0000   1.0000
     1.0000   1.0000   1.0000   1.0000   1.0000   1.0000   1.0000   1.0000
     1.0000   1.0000   1.0000   1.0000   1.0000   1.0000   1.0000   1.0000
     1.0000   1.0000   1.0000   1.0000   1.0000   1.0000   1.0000   1.0000

          k = 0.0192 0.0342 0.0217 ( 96958 PWs)   bands (ev):

   -23.9360 -23.9271 -23.9018 -23.8984 -23.6454 -23.6411 -23.6390 -23.6380
   -19.1676 -19.1660 -19.1500 -19.1455 -18.8482 -18.8482 -18.8434 -18.8429
   -18.2446 -18.2341 -17.2150 -17.1942 -17.0671 -17.0661 -16.0463 -16.0408
   -12.1049 -12.1039 -12.0563 -12.0135 -11.8693 -11.8441 -11.7726 -11.7642
    -8.8758  -8.8595  -8.2774  -8.2622  -7.5619  -7.5442  -7.4400  -7.4392
    -6.8395  -6.7923  -6.5555  -6.5229  -6.5191  -6.4634  -6.3277  -6.3010
    -6.1464  -6.1291  -6.0033  -5.9685  -5.9030  -5.8601  -5.7639  -5.7485
    -5.6230  -5.6104  -5.5378  -5.5176  -5.0910  -5.0244  -4.9769  -4.9535
    -4.4750  -4.4685  -4.3893  -4.3721  -4.2115  -4.1628  -3.8530  -3.8478
    -3.6677  -3.6182  -3.5225  -3.5035  -3.1572  -3.1416  -3.0443  -3.0369
    -0.7974  -0.7949  -0.3055  -0.2976  -0.2263  -0.1899  -0.1226  -0.1163
     0.0086   0.0181   0.1942   0.2042   0.2354   0.2413   0.3937   0.3958
     0.4155   0.4384   0.6449   0.6717   0.7536   0.7702   0.8802   0.8999
     0.9499   0.9967   1.0874   1.1127   1.2487   1.3031   1.3749   1.3823

     occupation numbers 
     1.0000   1.0000   1.0000   1.0000   1.0000   1.0000   1.0000   1.0000
     1.0000   1.0000   1.0000   1.0000   1.0000   1.0000   1.0000   1.0000
     1.0000   1.0000   1.0000   1.0000   1.0000   1.0000   1.0000   1.0000
     1.0000   1.0000   1.0000   1.0000   1.0000   1.0000   1.0000   1.0000
     1.0000   1.0000   1.0000   1.0000   1.0000   1.0000   1.0000   1.0000
     1.0000   1.0000   1.0000   1.0000   1.0000   1.0000   1.0000   1.0000
     1.0000   1.0000   1.0000   1.0000   1.0000   1.0000   1.0000   1.0000
     1.0000   1.0000   1.0000   1.0000   1.0000   1.0000   1.0000   1.0000
     1.0000   1.0000   1.0000   1.0000   1.0000   1.0000   1.0000   1.0000
     1.0000   1.0000   1.0000   1.0000   1.0000   1.0000   1.0000   1.0000
     1.0000   1.0000   1.0000   1.0000   1.0000   1.0000   1.0000   1.0000
     1.0000   1.0000   1.0000   1.0000   1.0000   1.0000   1.0000   1.0000
     1.0000   1.0000   1.0000   1.0000   1.0000   1.0000   1.0000   1.0000
     1.0000   1.0000   1.0000   1.0000   1.0000   1.0000   1.0000   1.0000

          k = 0.0192 0.0342 0.0565 ( 96975 PWs)   bands (ev):

   -23.9303 -23.9264 -23.9029 -23.9023 -23.6490 -23.6477 -23.6351 -23.6332
   -19.1660 -19.1645 -19.1517 -19.1483 -18.8542 -18.8538 -18.8384 -18.8377
   -18.2399 -18.2398 -17.2054 -17.2043 -17.0625 -17.0614 -16.0452 -16.0445
   -12.1130 -12.1121 -12.0245 -12.0160 -11.8582 -11.8534 -11.7857 -11.7820
    -8.8564  -8.8415  -8.2621  -8.2518  -7.5688  -7.5485  -7.4050  -7.3741
    -6.8894  -6.8427  -6.5811  -6.5708  -6.4977  -6.4491  -6.3872  -6.3681
    -6.1508  -6.1218  -5.9857  -5.9379  -5.8701  -5.8371  -5.8028  -5.7855
    -5.7012  -5.6671  -5.4833  -5.4621  -5.0752  -5.0227  -4.9785  -4.9410
    -4.4013  -4.3867  -4.3599  -4.3232  -4.1562  -4.1428  -3.9708  -3.9695
    -3.6624  -3.6414  -3.4716  -3.4664  -3.1832  -3.1794  -3.0365  -3.0246
    -0.7576  -0.7436  -0.3191  -0.3100  -0.2329  -0.2055  -0.1490  -0.1326
    -0.0540  -0.0361   0.1171   0.1378   0.2391   0.2640   0.3347   0.3462
     0.5631   0.5902   0.6647   0.6848   0.7816   0.7909   0.8291   0.8595
     0.9865   1.0070   1.1065   1.1163   1.2468   1.2754   1.3770   1.3869

     occupation numbers 
     1.0000   1.0000   1.0000   1.0000   1.0000   1.0000   1.0000   1.0000
     1.0000   1.0000   1.0000   1.0000   1.0000   1.0000   1.0000   1.0000
     1.0000   1.0000   1.0000   1.0000   1.0000   1.0000   1.0000   1.0000
     1.0000   1.0000   1.0000   1.0000   1.0000   1.0000   1.0000   1.0000
     1.0000   1.0000   1.0000   1.0000   1.0000   1.0000   1.0000   1.0000
     1.0000   1.0000   1.0000   1.0000   1.0000   1.0000   1.0000   1.0000
     1.0000   1.0000   1.0000   1.0000   1.0000   1.0000   1.0000   1.0000
     1.0000   1.0000   1.0000   1.0000   1.0000   1.0000   1.0000   1.0000
     1.0000   1.0000   1.0000   1.0000   1.0000   1.0000   1.0000   1.0000
     1.0000   1.0000   1.0000   1.0000   1.0000   1.0000   1.0000   1.0000
     1.0000   1.0000   1.0000   1.0000   1.0000   1.0000   1.0000   1.0000
     1.0000   1.0000   1.0000   1.0000   1.0000   1.0000   1.0000   1.0000
     1.0000   1.0000   1.0000   1.0000   1.0000   1.0000   1.0000   1.0000
     1.0000   1.0000   1.0000   1.0000   1.0000   1.0000   1.0000   1.0000

          k = 0.0192 0.0342-0.0480 ( 96945 PWs)   bands (ev):

   -23.9312 -23.9267 -23.9038 -23.9001 -23.6507 -23.6494 -23.6328 -23.6322
   -19.1642 -19.1636 -19.1516 -19.1512 -18.8558 -18.8555 -18.8367 -18.8360
   -18.2446 -18.2342 -17.2140 -17.1947 -17.0654 -17.0647 -16.0448 -16.0382
   -12.1201 -12.1149 -12.0436 -12.0106 -11.8623 -11.8343 -11.7858 -11.7801
    -8.8523  -8.8177  -8.2566  -8.2551  -7.5717  -7.5663  -7.4086  -7.3604
    -6.8854  -6.8395  -6.5985  -6.5724  -6.4971  -6.4841  -6.4182  -6.3976
    -6.1303  -6.1134  -6.0038  -5.9740  -5.8234  -5.8082  -5.7869  -5.7657
    -5.7015  -5.6670  -5.4719  -5.4446  -5.1065  -5.0550  -4.9403  -4.9072
    -4.4409  -4.4126  -4.3137  -4.2928  -4.1835  -4.1658  -3.9633  -3.9427
    -3.6656  -3.6436  -3.5024  -3.4681  -3.1823  -3.1716  -3.0358  -3.0324
    -0.6868  -0.6622  -0.3158  -0.3119  -0.2483  -0.2315  -0.1958  -0.1733
    -0.1082  -0.0971   0.0865   0.1178   0.2544   0.2706   0.3105   0.3370
     0.6130   0.6463   0.7108   0.7244   0.7386   0.7855   0.8523   0.8574
     0.9914   1.0090   1.1310   1.1523   1.2350   1.2466   1.3651   1.3738

     occupation numbers 
     1.0000   1.0000   1.0000   1.0000   1.0000   1.0000   1.0000   1.0000
     1.0000   1.0000   1.0000   1.0000   1.0000   1.0000   1.0000   1.0000
     1.0000   1.0000   1.0000   1.0000   1.0000   1.0000   1.0000   1.0000
     1.0000   1.0000   1.0000   1.0000   1.0000   1.0000   1.0000   1.0000
     1.0000   1.0000   1.0000   1.0000   1.0000   1.0000   1.0000   1.0000
     1.0000   1.0000   1.0000   1.0000   1.0000   1.0000   1.0000   1.0000
     1.0000   1.0000   1.0000   1.0000   1.0000   1.0000   1.0000   1.0000
     1.0000   1.0000   1.0000   1.0000   1.0000   1.0000   1.0000   1.0000
     1.0000   1.0000   1.0000   1.0000   1.0000   1.0000   1.0000   1.0000
     1.0000   1.0000   1.0000   1.0000   1.0000   1.0000   1.0000   1.0000
     1.0000   1.0000   1.0000   1.0000   1.0000   1.0000   1.0000   1.0000
     1.0000   1.0000   1.0000   1.0000   1.0000   1.0000   1.0000   1.0000
     1.0000   1.0000   1.0000   1.0000   1.0000   1.0000   1.0000   1.0000
     1.0000   1.0000   1.0000   1.0000   1.0000   1.0000   1.0000   1.0000

          k = 0.0192 0.0342-0.0131 ( 96925 PWs)   bands (ev):

   -23.9366 -23.9277 -23.9017 -23.8973 -23.6485 -23.6449 -23.6354 -23.6348
   -19.1666 -19.1649 -19.1507 -19.1471 -18.8518 -18.8516 -18.8396 -18.8395
   -18.2463 -18.2315 -17.2183 -17.1899 -17.0699 -17.0696 -16.0445 -16.0360
   -12.1141 -12.1084 -12.0618 -12.0171 -11.8644 -11.8359 -11.7707 -11.7634
    -8.8725  -8.8350  -8.2746  -8.2634  -7.5695  -7.5595  -7.4521  -7.4182
    -6.8066  -6.7915  -6.5942  -6.5454  -6.5107  -6.4844  -6.3767  -6.3439
    -6.1228  -6.1028  -6.0177  -5.9878  -5.8580  -5.8340  -5.7422  -5.7403
    -5.6268  -5.6130  -5.5214  -5.5128  -5.0992  -5.0692  -4.9370  -4.9149
    -4.4797  -4.4739  -4.3933  -4.3725  -4.2212  -4.1725  -3.8467  -3.8225
    -3.6829  -3.6248  -3.5337  -3.5107  -3.1599  -3.1398  -3.0431  -3.0408
    -0.7443  -0.7352  -0.2960  -0.2885  -0.2262  -0.1914  -0.1273  -0.1167
    -0.0779  -0.0580   0.0932   0.1216   0.2103   0.2458   0.3518   0.3799
     0.5710   0.5949   0.6356   0.6882   0.7384   0.7729   0.8920   0.8939
     0.9570   0.9882   1.1167   1.1433   1.2358   1.2856   1.3609   1.3683

     occupation numbers 
     1.0000   1.0000   1.0000   1.0000   1.0000   1.0000   1.0000   1.0000
     1.0000   1.0000   1.0000   1.0000   1.0000   1.0000   1.0000   1.0000
     1.0000   1.0000   1.0000   1.0000   1.0000   1.0000   1.0000   1.0000
     1.0000   1.0000   1.0000   1.0000   1.0000   1.0000   1.0000   1.0000
     1.0000   1.0000   1.0000   1.0000   1.0000   1.0000   1.0000   1.0000
     1.0000   1.0000   1.0000   1.0000   1.0000   1.0000   1.0000   1.0000
     1.0000   1.0000   1.0000   1.0000   1.0000   1.0000   1.0000   1.0000
     1.0000   1.0000   1.0000   1.0000   1.0000   1.0000   1.0000   1.0000
     1.0000   1.0000   1.0000   1.0000   1.0000   1.0000   1.0000   1.0000
     1.0000   1.0000   1.0000   1.0000   1.0000   1.0000   1.0000   1.0000
     1.0000   1.0000   1.0000   1.0000   1.0000   1.0000   1.0000   1.0000
     1.0000   1.0000   1.0000   1.0000   1.0000   1.0000   1.0000   1.0000
     1.0000   1.0000   1.0000   1.0000   1.0000   1.0000   1.0000   1.0000
     1.0000   1.0000   1.0000   1.0000   1.0000   1.0000   1.0000   1.0000

          k = 0.0575 0.0114 0.0303 ( 96917 PWs)   bands (ev):

   -23.9307 -23.9209 -23.9034 -23.9028 -23.6476 -23.6445 -23.6404 -23.6356
   -19.1658 -19.1616 -19.1571 -19.1476 -18.8509 -18.8497 -18.8421 -18.8408
   -18.2462 -18.2461 -17.2035 -17.2012 -17.0680 -17.0660 -16.0464 -16.0445
   -12.1025 -12.1020 -11.9987 -11.9789 -11.8374 -11.8222 -11.7875 -11.7723
    -8.8861  -8.8528  -8.2868  -8.2647  -7.5622  -7.5366  -7.5152  -7.4572
    -6.9832  -6.9101  -6.6745  -6.5493  -6.4782  -6.4389  -6.2632  -6.2276
    -6.2037  -6.1538  -6.0194  -5.9503  -5.8943  -5.8436  -5.7639  -5.7432
    -5.6560  -5.6104  -5.5544  -5.5400  -5.1497  -5.0384  -4.9189  -4.9110
    -4.4538  -4.4325  -4.3890  -4.3375  -4.0427  -3.9875  -3.8093  -3.7814
    -3.7351  -3.6391  -3.5885  -3.5807  -3.1610  -3.1557  -3.0545  -3.0245
    -0.7574  -0.7430  -0.2955  -0.2923  -0.2032  -0.1835  -0.1221  -0.0982
    -0.0659  -0.0370   0.1100   0.1245   0.2044   0.2198   0.3501   0.3727
     0.5772   0.5849   0.6533   0.7055   0.7797   0.7868   0.8639   0.8781
     0.9363   0.9845   1.0115   1.0614   1.2873   1.3174   1.3512   1.3884

     occupation numbers 
     1.0000   1.0000   1.0000   1.0000   1.0000   1.0000   1.0000   1.0000
     1.0000   1.0000   1.0000   1.0000   1.0000   1.0000   1.0000   1.0000
     1.0000   1.0000   1.0000   1.0000   1.0000   1.0000   1.0000   1.0000
     1.0000   1.0000   1.0000   1.0000   1.0000   1.0000   1.0000   1.0000
     1.0000   1.0000   1.0000   1.0000   1.0000   1.0000   1.0000   1.0000
     1.0000   1.0000   1.0000   1.0000   1.0000   1.0000   1.0000   1.0000
     1.0000   1.0000   1.0000   1.0000   1.0000   1.0000   1.0000   1.0000
     1.0000   1.0000   1.0000   1.0000   1.0000   1.0000   1.0000   1.0000
     1.0000   1.0000   1.0000   1.0000   1.0000   1.0000   1.0000   1.0000
     1.0000   1.0000   1.0000   1.0000   1.0000   1.0000   1.0000   1.0000
     1.0000   1.0000   1.0000   1.0000   1.0000   1.0000   1.0000   1.0000
     1.0000   1.0000   1.0000   1.0000   1.0000   1.0000   1.0000   1.0000
     1.0000   1.0000   1.0000   1.0000   1.0000   1.0000   1.0000   1.0000
     1.0000   1.0000   1.0000   1.0000   1.0000   1.0000   1.0000   1.0000

          k = 0.0575 0.0114 0.0651 ( 96959 PWs)   bands (ev):

   -23.9266 -23.9237 -23.9072 -23.8990 -23.6466 -23.6463 -23.6430 -23.6334
   -19.1662 -19.1630 -19.1576 -19.1467 -18.8606 -18.8584 -18.8349 -18.8314
   -18.2608 -18.2362 -17.2235 -17.1794 -17.0585 -17.0549 -16.0620 -16.0433
   -12.1149 -12.1108 -12.0281 -11.9505 -11.8390 -11.7923 -11.7919 -11.7768
    -8.9303  -8.8080  -8.2816  -8.2452  -7.5665  -7.5410  -7.4768  -7.3417
    -7.0843  -6.8580  -6.6798  -6.5110  -6.5007  -6.4386  -6.4165  -6.3157
    -6.2602  -6.1785  -5.9902  -5.9628  -5.9160  -5.8617  -5.7954  -5.7371
    -5.6318  -5.5786  -5.5082  -5.4370  -5.1603  -4.9977  -4.9853  -4.9241
    -4.3999  -4.3852  -4.3261  -4.2827  -4.0001  -3.9619  -3.9095  -3.8709
    -3.7636  -3.6674  -3.5980  -3.5049  -3.2029  -3.1761  -3.0507  -2.9931
    -0.8330  -0.7900  -0.3021  -0.2664  -0.2050  -0.1745  -0.1175  -0.0788
    -0.0306   0.0020   0.1733   0.2057   0.2242   0.2441   0.3162   0.4112
     0.4932   0.5121   0.5616   0.6714   0.7686   0.8010   0.8454   0.8757
     0.9711   1.0096   1.0245   1.0521   1.3009   1.3378   1.3562   1.4008

     occupation numbers 
     1.0000   1.0000   1.0000   1.0000   1.0000   1.0000   1.0000   1.0000
     1.0000   1.0000   1.0000   1.0000   1.0000   1.0000   1.0000   1.0000
     1.0000   1.0000   1.0000   1.0000   1.0000   1.0000   1.0000   1.0000
     1.0000   1.0000   1.0000   1.0000   1.0000   1.0000   1.0000   1.0000
     1.0000   1.0000   1.0000   1.0000   1.0000   1.0000   1.0000   1.0000
     1.0000   1.0000   1.0000   1.0000   1.0000   1.0000   1.0000   1.0000
     1.0000   1.0000   1.0000   1.0000   1.0000   1.0000   1.0000   1.0000
     1.0000   1.0000   1.0000   1.0000   1.0000   1.0000   1.0000   1.0000
     1.0000   1.0000   1.0000   1.0000   1.0000   1.0000   1.0000   1.0000
     1.0000   1.0000   1.0000   1.0000   1.0000   1.0000   1.0000   1.0000
     1.0000   1.0000   1.0000   1.0000   1.0000   1.0000   1.0000   1.0000
     1.0000   1.0000   1.0000   1.0000   1.0000   1.0000   1.0000   1.0000
     1.0000   1.0000   1.0000   1.0000   1.0000   1.0000   1.0000   1.0000
     1.0000   1.0000   1.0000   1.0000   1.0000   1.0000   1.0000   1.0000

          k = 0.0575 0.0114-0.0394 ( 96919 PWs)   bands (ev):

   -23.9283 -23.9225 -23.9089 -23.8969 -23.6498 -23.6487 -23.6386 -23.6322
   -19.1642 -19.1621 -19.1577 -19.1496 -18.8617 -18.8595 -18.8338 -18.8303
   -18.2653 -18.2303 -17.2334 -17.1688 -17.0613 -17.0583 -16.0617 -16.0372
   -12.1191 -12.1117 -12.0523 -11.9295 -11.8554 -11.7914 -11.7865 -11.7654
    -8.9255  -8.7837  -8.2757  -8.2467  -7.5651  -7.5462  -7.4987  -7.3294
    -7.1020  -6.8603  -6.6669  -6.5319  -6.5012  -6.4799  -6.4052  -6.3402
    -6.2644  -6.1946  -5.9781  -5.9227  -5.8846  -5.8684  -5.7957  -5.7526
    -5.6064  -5.5745  -5.5152  -5.4358  -5.1506  -5.0220  -4.9591  -4.9106
    -4.4025  -4.3640  -4.3243  -4.2989  -4.0258  -4.0026  -3.8568  -3.8496
    -3.7104  -3.6973  -3.6571  -3.5122  -3.2070  -3.1718  -3.0462  -2.9986
    -0.7907  -0.7258  -0.2948  -0.2425  -0.2185  -0.1944  -0.1242  -0.0993
    -0.0910  -0.0501   0.1049   0.1877   0.2233   0.2662   0.2833   0.3089
     0.5429   0.6161   0.6434   0.6588   0.7670   0.7951   0.8663   0.8881
     0.9614   0.9895   1.0431   1.1086   1.3168   1.3331   1.3379   1.3637

     occupation numbers 
     1.0000   1.0000   1.0000   1.0000   1.0000   1.0000   1.0000   1.0000
     1.0000   1.0000   1.0000   1.0000   1.0000   1.0000   1.0000   1.0000
     1.0000   1.0000   1.0000   1.0000   1.0000   1.0000   1.0000   1.0000
     1.0000   1.0000   1.0000   1.0000   1.0000   1.0000   1.0000   1.0000
     1.0000   1.0000   1.0000   1.0000   1.0000   1.0000   1.0000   1.0000
     1.0000   1.0000   1.0000   1.0000   1.0000   1.0000   1.0000   1.0000
     1.0000   1.0000   1.0000   1.0000   1.0000   1.0000   1.0000   1.0000
     1.0000   1.0000   1.0000   1.0000   1.0000   1.0000   1.0000   1.0000
     1.0000   1.0000   1.0000   1.0000   1.0000   1.0000   1.0000   1.0000
     1.0000   1.0000   1.0000   1.0000   1.0000   1.0000   1.0000   1.0000
     1.0000   1.0000   1.0000   1.0000   1.0000   1.0000   1.0000   1.0000
     1.0000   1.0000   1.0000   1.0000   1.0000   1.0000   1.0000   1.0000
     1.0000   1.0000   1.0000   1.0000   1.0000   1.0000   1.0000   1.0000
     1.0000   1.0000   1.0000   1.0000   1.0000   1.0000   1.0000   1.0000

          k = 0.0575 0.0114-0.0046 ( 96917 PWs)   bands (ev):

   -23.9315 -23.9205 -23.9072 -23.8984 -23.6503 -23.6468 -23.6363 -23.6346
   -19.1636 -19.1619 -19.1541 -19.1528 -18.8535 -18.8524 -18.8393 -18.8381
   -18.2580 -18.2330 -17.2258 -17.1783 -17.0702 -17.0700 -16.0502 -16.0343
   -12.1076 -12.1021 -12.0399 -11.9399 -11.8639 -11.8040 -11.7768 -11.7743
    -8.8957  -8.8136  -8.2754  -8.2721  -7.5615  -7.5515  -7.5392  -7.4349
    -6.9985  -6.9083  -6.6303  -6.6058  -6.4736  -6.4699  -6.2982  -6.2663
    -6.1851  -6.1801  -5.9597  -5.9249  -5.8593  -5.8266  -5.7787  -5.7701
    -5.6307  -5.6168  -5.5501  -5.5402  -5.1091  -5.0898  -4.8983  -4.8911
    -4.4556  -4.4296  -4.3798  -4.3492  -4.0481  -4.0139  -3.7749  -3.7680
    -3.7028  -3.6773  -3.6325  -3.5809  -3.1762  -3.1427  -3.0479  -3.0309
    -0.7031  -0.6547  -0.2993  -0.2896  -0.2119  -0.2084  -0.1765  -0.1750
    -0.0807  -0.0515   0.0643   0.1281   0.1878   0.2278   0.3227   0.3587
     0.5616   0.6278   0.7123   0.7505   0.7670   0.8100   0.8781   0.9016
     0.9333   0.9506   1.0256   1.1122   1.3043   1.3107   1.3315   1.3491

     occupation numbers 
     1.0000   1.0000   1.0000   1.0000   1.0000   1.0000   1.0000   1.0000
     1.0000   1.0000   1.0000   1.0000   1.0000   1.0000   1.0000   1.0000
     1.0000   1.0000   1.0000   1.0000   1.0000   1.0000   1.0000   1.0000
     1.0000   1.0000   1.0000   1.0000   1.0000   1.0000   1.0000   1.0000
     1.0000   1.0000   1.0000   1.0000   1.0000   1.0000   1.0000   1.0000
     1.0000   1.0000   1.0000   1.0000   1.0000   1.0000   1.0000   1.0000
     1.0000   1.0000   1.0000   1.0000   1.0000   1.0000   1.0000   1.0000
     1.0000   1.0000   1.0000   1.0000   1.0000   1.0000   1.0000   1.0000
     1.0000   1.0000   1.0000   1.0000   1.0000   1.0000   1.0000   1.0000
     1.0000   1.0000   1.0000   1.0000   1.0000   1.0000   1.0000   1.0000
     1.0000   1.0000   1.0000   1.0000   1.0000   1.0000   1.0000   1.0000
     1.0000   1.0000   1.0000   1.0000   1.0000   1.0000   1.0000   1.0000
     1.0000   1.0000   1.0000   1.0000   1.0000   1.0000   1.0000   1.0000
     1.0000   1.0000   1.0000   1.0000   1.0000   1.0000   1.0000   1.0000

          k = 0.0575 0.0342 0.0303 ( 96968 PWs)   bands (ev):

   -23.9276 -23.9234 -23.9037 -23.9032 -23.6457 -23.6445 -23.6399 -23.6378
   -19.1658 -19.1646 -19.1526 -19.1492 -18.8505 -18.8500 -18.8417 -18.8412
   -18.2462 -18.2462 -17.2030 -17.2021 -17.0672 -17.0664 -16.0459 -16.0451
   -12.1024 -12.1022 -11.9915 -11.9832 -11.8348 -11.8284 -11.7829 -11.7766
    -8.8763  -8.8625  -8.2773  -8.2679  -7.5545  -7.5445  -7.5011  -7.4768
    -6.9850  -6.9601  -6.5983  -6.5551  -6.4607  -6.4354  -6.2914  -6.2568
    -6.1921  -6.1641  -5.9902  -5.9613  -5.8850  -5.8589  -5.7641  -5.7434
    -5.6365  -5.6229  -5.5489  -5.5413  -5.1199  -5.0738  -4.9220  -4.9177
    -4.4468  -4.4346  -4.3770  -4.3566  -4.0192  -3.9945  -3.7981  -3.7820
    -3.7158  -3.6723  -3.5877  -3.5809  -3.1591  -3.1562  -3.0497  -3.0365
    -0.7496  -0.7437  -0.2863  -0.2793  -0.2389  -0.2201  -0.1020  -0.0813
    -0.0617  -0.0459   0.1216   0.1377   0.2100   0.2242   0.3498   0.3605
     0.5998   0.6064   0.6340   0.6629   0.7792   0.7866   0.8708   0.8902
     0.9485   0.9788   1.0155   1.0393   1.2968   1.3090   1.3629   1.3779

     occupation numbers 
     1.0000   1.0000   1.0000   1.0000   1.0000   1.0000   1.0000   1.0000
     1.0000   1.0000   1.0000   1.0000   1.0000   1.0000   1.0000   1.0000
     1.0000   1.0000   1.0000   1.0000   1.0000   1.0000   1.0000   1.0000
     1.0000   1.0000   1.0000   1.0000   1.0000   1.0000   1.0000   1.0000
     1.0000   1.0000   1.0000   1.0000   1.0000   1.0000   1.0000   1.0000
     1.0000   1.0000   1.0000   1.0000   1.0000   1.0000   1.0000   1.0000
     1.0000   1.0000   1.0000   1.0000   1.0000   1.0000   1.0000   1.0000
     1.0000   1.0000   1.0000   1.0000   1.0000   1.0000   1.0000   1.0000
     1.0000   1.0000   1.0000   1.0000   1.0000   1.0000   1.0000   1.0000
     1.0000   1.0000   1.0000   1.0000   1.0000   1.0000   1.0000   1.0000
     1.0000   1.0000   1.0000   1.0000   1.0000   1.0000   1.0000   1.0000
     1.0000   1.0000   1.0000   1.0000   1.0000   1.0000   1.0000   1.0000
     1.0000   1.0000   1.0000   1.0000   1.0000   1.0000   1.0000   1.0000
     1.0000   1.0000   1.0000   1.0000   1.0000   1.0000   1.0000   1.0000

          k = 0.0575 0.0342 0.0651 ( 96969 PWs)   bands (ev):

   -23.9253 -23.9241 -23.9054 -23.9019 -23.6464 -23.6462 -23.6402 -23.6362
   -19.1666 -19.1657 -19.1526 -19.1486 -18.8600 -18.8591 -18.8339 -18.8324
   -18.2538 -18.2436 -17.2105 -17.1923 -17.0574 -17.0559 -16.0564 -16.0487
   -12.1158 -12.1140 -12.0050 -11.9738 -11.8229 -11.8039 -11.7879 -11.7816
    -8.8958  -8.8452  -8.2694  -8.2542  -7.5432  -7.5302  -7.4644  -7.4027
    -7.0420  -6.9623  -6.5817  -6.5277  -6.4892  -6.4679  -6.3739  -6.3188
    -6.2451  -6.1945  -5.9696  -5.9518  -5.9121  -5.8898  -5.8078  -5.7706
    -5.6223  -5.6012  -5.4785  -5.4495  -5.1222  -5.0540  -4.9653  -4.9392
    -4.3849  -4.3652  -4.3225  -4.2884  -3.9866  -3.9716  -3.9015  -3.8857
    -3.7415  -3.7075  -3.5641  -3.5284  -3.1957  -3.1847  -3.0346  -3.0106
    -0.8171  -0.7995  -0.2894  -0.2735  -0.2327  -0.2229  -0.0916  -0.0800
    -0.0004   0.0110   0.1906   0.2012   0.2387   0.2507   0.3389   0.3835
     0.4784   0.4880   0.6124   0.6685   0.7468   0.7828   0.8569   0.8736
     0.9634   0.9873   1.0435   1.0591   1.3105   1.3255   1.3695   1.3876

     occupation numbers 
     1.0000   1.0000   1.0000   1.0000   1.0000   1.0000   1.0000   1.0000
     1.0000   1.0000   1.0000   1.0000   1.0000   1.0000   1.0000   1.0000
     1.0000   1.0000   1.0000   1.0000   1.0000   1.0000   1.0000   1.0000
     1.0000   1.0000   1.0000   1.0000   1.0000   1.0000   1.0000   1.0000
     1.0000   1.0000   1.0000   1.0000   1.0000   1.0000   1.0000   1.0000
     1.0000   1.0000   1.0000   1.0000   1.0000   1.0000   1.0000   1.0000
     1.0000   1.0000   1.0000   1.0000   1.0000   1.0000   1.0000   1.0000
     1.0000   1.0000   1.0000   1.0000   1.0000   1.0000   1.0000   1.0000
     1.0000   1.0000   1.0000   1.0000   1.0000   1.0000   1.0000   1.0000
     1.0000   1.0000   1.0000   1.0000   1.0000   1.0000   1.0000   1.0000
     1.0000   1.0000   1.0000   1.0000   1.0000   1.0000   1.0000   1.0000
     1.0000   1.0000   1.0000   1.0000   1.0000   1.0000   1.0000   1.0000
     1.0000   1.0000   1.0000   1.0000   1.0000   1.0000   1.0000   1.0000
     1.0000   1.0000   1.0000   1.0000   1.0000   1.0000   1.0000   1.0000

          k = 0.0575 0.0342-0.0394 ( 96948 PWs)   bands (ev):

   -23.9267 -23.9243 -23.9053 -23.9003 -23.6492 -23.6487 -23.6369 -23.6342
   -19.1650 -19.1646 -19.1534 -19.1506 -18.8610 -18.8601 -18.8328 -18.8313
   -18.2555 -18.2410 -17.2142 -17.1875 -17.0605 -17.0593 -16.0543 -16.0441
   -12.1199 -12.1172 -12.0199 -11.9737 -11.8245 -11.8017 -11.7815 -11.7732
    -8.8860  -8.8274  -8.2668  -8.2547  -7.5482  -7.5307  -7.4764  -7.3967
    -7.0481  -6.9606  -6.5812  -6.5418  -6.5001  -6.4794  -6.4227  -6.3671
    -6.2096  -6.1684  -5.9731  -5.9380  -5.8920  -5.8835  -5.8023  -5.7742
    -5.6036  -5.5903  -5.4777  -5.4451  -5.1360  -5.0833  -4.9333  -4.9125
    -4.4027  -4.3860  -4.2957  -4.2782  -4.0155  -4.0067  -3.8573  -3.8540
    -3.7200  -3.7140  -3.6050  -3.5488  -3.1949  -3.1794  -3.0362  -3.0159
    -0.7693  -0.7421  -0.2852  -0.2659  -0.2407  -0.2238  -0.1039  -0.0967
    -0.0619  -0.0371   0.1328   0.1641   0.2319   0.2491   0.2875   0.3116
     0.5673   0.5951   0.6697   0.6722   0.7639   0.7761   0.8512   0.8586
     0.9719   0.9895   1.0686   1.0937   1.3203   1.3284   1.3431   1.3552

     occupation numbers 
     1.0000   1.0000   1.0000   1.0000   1.0000   1.0000   1.0000   1.0000
     1.0000   1.0000   1.0000   1.0000   1.0000   1.0000   1.0000   1.0000
     1.0000   1.0000   1.0000   1.0000   1.0000   1.0000   1.0000   1.0000
     1.0000   1.0000   1.0000   1.0000   1.0000   1.0000   1.0000   1.0000
     1.0000   1.0000   1.0000   1.0000   1.0000   1.0000   1.0000   1.0000
     1.0000   1.0000   1.0000   1.0000   1.0000   1.0000   1.0000   1.0000
     1.0000   1.0000   1.0000   1.0000   1.0000   1.0000   1.0000   1.0000
     1.0000   1.0000   1.0000   1.0000   1.0000   1.0000   1.0000   1.0000
     1.0000   1.0000   1.0000   1.0000   1.0000   1.0000   1.0000   1.0000
     1.0000   1.0000   1.0000   1.0000   1.0000   1.0000   1.0000   1.0000
     1.0000   1.0000   1.0000   1.0000   1.0000   1.0000   1.0000   1.0000
     1.0000   1.0000   1.0000   1.0000   1.0000   1.0000   1.0000   1.0000
     1.0000   1.0000   1.0000   1.0000   1.0000   1.0000   1.0000   1.0000
     1.0000   1.0000   1.0000   1.0000   1.0000   1.0000   1.0000   1.0000

          k = 0.0575 0.0342-0.0046 ( 96933 PWs)   bands (ev):

   -23.9285 -23.9240 -23.9044 -23.9009 -23.6489 -23.6473 -23.6362 -23.6355
   -19.1640 -19.1634 -19.1526 -19.1522 -18.8532 -18.8527 -18.8390 -18.8385
   -18.2509 -18.2406 -17.2118 -17.1921 -17.0701 -17.0700 -16.0454 -16.0388
   -12.1071 -12.1052 -12.0146 -11.9761 -11.8381 -11.8156 -11.7771 -11.7751
    -8.8722  -8.8383  -8.2733  -8.2704  -7.5582  -7.5541  -7.5118  -7.4685
    -6.9864  -6.9502  -6.5917  -6.5800  -6.4609  -6.4554  -6.3537  -6.3411
    -6.1388  -6.1313  -5.9703  -5.9497  -5.8516  -5.8380  -5.7609  -5.7553
    -5.6336  -5.6197  -5.5472  -5.5441  -5.1138  -5.1031  -4.8942  -4.8922
    -4.4557  -4.4392  -4.3771  -4.3541  -4.0257  -4.0111  -3.7766  -3.7745
    -3.6792  -3.6516  -3.6483  -3.6087  -3.1651  -3.1501  -3.0488  -3.0425
    -0.6873  -0.6672  -0.2846  -0.2780  -0.2293  -0.2067  -0.1980  -0.1792
    -0.0802  -0.0595   0.0875   0.1147   0.2065   0.2262   0.3331   0.3528
     0.5925   0.6272   0.6946   0.7183   0.7737   0.8026   0.8835   0.8889
     0.9522   0.9634   1.0421   1.0819   1.3070   1.3087   1.3359   1.3437

     occupation numbers 
     1.0000   1.0000   1.0000   1.0000   1.0000   1.0000   1.0000   1.0000
     1.0000   1.0000   1.0000   1.0000   1.0000   1.0000   1.0000   1.0000
     1.0000   1.0000   1.0000   1.0000   1.0000   1.0000   1.0000   1.0000
     1.0000   1.0000   1.0000   1.0000   1.0000   1.0000   1.0000   1.0000
     1.0000   1.0000   1.0000   1.0000   1.0000   1.0000   1.0000   1.0000
     1.0000   1.0000   1.0000   1.0000   1.0000   1.0000   1.0000   1.0000
     1.0000   1.0000   1.0000   1.0000   1.0000   1.0000   1.0000   1.0000
     1.0000   1.0000   1.0000   1.0000   1.0000   1.0000   1.0000   1.0000
     1.0000   1.0000   1.0000   1.0000   1.0000   1.0000   1.0000   1.0000
     1.0000   1.0000   1.0000   1.0000   1.0000   1.0000   1.0000   1.0000
     1.0000   1.0000   1.0000   1.0000   1.0000   1.0000   1.0000   1.0000
     1.0000   1.0000   1.0000   1.0000   1.0000   1.0000   1.0000   1.0000
     1.0000   1.0000   1.0000   1.0000   1.0000   1.0000   1.0000   1.0000
     1.0000   1.0000   1.0000   1.0000   1.0000   1.0000   1.0000   1.0000

     highest occupied level (ev):     1.4008

!    total energy              =   -1282.01630576 Ry
     Harris-Foulkes estimate   =   -1282.01630660 Ry
     estimated scf accuracy    <       0.00000093 Ry

     total all-electron energy =     -4786.460053 Ry

     The total energy is the sum of the following terms:

     one-electron contribution =    -643.01824500 Ry
     hartree contribution      =     419.77446527 Ry
     xc contribution           =    -260.28436425 Ry
     ewald contribution        =    -468.09466675 Ry
     one-center paw contrib.   =    -330.39349504 Ry

     convergence has been achieved in  18 iterations

     Writing output data file scf.pbe-ec-140-kp444.HMX-792829-nofor.nostress.save

     init_run     :    185.53s CPU    252.52s WALL (       1 calls)
     electrons    :   5935.30s CPU   7673.63s WALL (       1 calls)

     Called by init_run:
     wfcinit      :    112.01s CPU    157.54s WALL (       1 calls)
     potinit      :     23.85s CPU     25.61s WALL (       1 calls)

     Called by electrons:
     c_bands      :   4975.33s CPU   6262.06s WALL (      18 calls)
     sum_band     :    841.72s CPU   1205.96s WALL (      18 calls)
     v_of_rho     :     24.94s CPU     32.19s WALL (      19 calls)
     v_h          :      2.14s CPU      2.34s WALL (      19 calls)
     v_xc         :     22.80s CPU     29.84s WALL (      19 calls)
     newd         :     58.09s CPU    141.58s WALL (      19 calls)
     PAW_pot      :      6.12s CPU      6.34s WALL (      19 calls)
     mix_rho      :     18.17s CPU     18.63s WALL (      18 calls)

     Called by c_bands:
     init_us_2    :     37.60s CPU     37.17s WALL (     592 calls)
     cegterg      :   4776.99s CPU   6020.08s WALL (     288 calls)

     Called by sum_band:
     sum_band:bec :      0.43s CPU      0.42s WALL (     288 calls)
     addusdens    :     65.02s CPU    193.27s WALL (      18 calls)

     Called by *egterg:
     h_psi        :   2867.25s CPU   3725.77s WALL (    1443 calls)
     s_psi        :    380.20s CPU    289.06s WALL (    1443 calls)
     g_psi        :      5.46s CPU      7.45s WALL (    1139 calls)
     cdiaghg      :    463.16s CPU    415.61s WALL (    1427 calls)
     cegterg:over :    484.62s CPU    682.69s WALL (    1139 calls)
     cegterg:upda :    316.94s CPU    227.43s WALL (    1139 calls)
     cegterg:last :    155.63s CPU    133.32s WALL (     304 calls)

     Called by h_psi:
     h_psi:vloc   :   1809.00s CPU   2287.75s WALL (    1443 calls)
     h_psi:vnl    :   1019.47s CPU   1398.23s WALL (    1443 calls)
     add_vuspsi   :    393.75s CPU    342.60s WALL (    1443 calls)

     General routines
     calbec       :    784.27s CPU   1305.59s WALL (    1731 calls)
     fft          :     45.31s CPU    110.61s WALL (     300 calls)
     ffts         :      2.53s CPU      3.55s WALL (      37 calls)
     fftw         :   1480.05s CPU   2097.25s WALL (  229208 calls)
     interpolate  :     14.48s CPU     17.80s WALL (      37 calls)
     davcio       :      0.34s CPU     70.69s WALL (      16 calls)

     Parallel routines
     fft_scatter  :    735.03s CPU   1425.64s WALL (  229545 calls)

     PAW routines
     PAW_pot      :      6.12s CPU      6.34s WALL (      19 calls)
     PAW_symme    :      0.06s CPU      0.73s WALL (      37 calls)

     PWSCF        :     1h42m CPU        2h13m WALL


   This run was terminated on:  13: 3:36  25Jun2016            

=------------------------------------------------------------------------------=
   JOB DONE.
=------------------------------------------------------------------------------=
