
     Program PWSCF v.5.3.0 (svn rev. 11974) starts on 24May2016 at  7:41:38 

     This program is part of the open-source Quantum ESPRESSO suite
     for quantum simulation of materials; please cite
         "P. Giannozzi et al., J. Phys.:Condens. Matter 21 395502 (2009);
          URL http://www.quantum-espresso.org", 
     in publications or presentations arising from this work. More details at
     http://www.quantum-espresso.org/quote

     Parallel version (MPI), running on     8 processors
     R & G space division:  proc/nbgrp/npool/nimage =       8
     Waiting for input...
     Reading input from standard input
Warning: card     &CELL ignored
Warning: card CELL_DYNAMICS='BFGS' ignored
Warning: card / ignored

     Current dimensions of program PWSCF are:
     Max number of different atomic species (ntypx) = 10
     Max number of k-points (npk) =  40000
     Max angular momentum in pseudopotentials (lmaxx) =  3
               file N.pbe-n-kjpaw_psl.1.0.0.UPF: wavefunction(s)  2S renormalized
               file C.pbe-n-kjpaw_psl.1.0.0.UPF: wavefunction(s)  2S 2P renormalized
               file H.pbe-kjpaw_psl.1.0.0.UPF: wavefunction(s)  1S renormalized
               file O.pbe-n-kjpaw_psl.1.0.0.UPF: wavefunction(s)  2S 2P renormalized

     gamma-point specific algorithms are used

     Subspace diagonalization in iterative solution of the eigenvalue problem:
     a serial algorithm will be used


     Parallelization info
     --------------------
     sticks:   dense  smooth     PW     G-vecs:    dense   smooth      PW
     Min        3565    1428    355               383701    97008   12125
     Max        3568    1429    358               383706    97090   12132
     Sum       28529   11425   2857              3069631   776471   97029
     Tot       14265    5713   1429


     Title: 
     HMX-scf-pbe-n-kjpaw-gamma-ec-140-relax                                     


     bravais-lattice index     =            0
     lattice parameter (alat)  =       1.8897  a.u.
     unit-cell volume          =    3470.0091 (a.u.)^3
     number of atoms/cell      =           56
     number of atomic types    =            4
     number of electrons       =       224.00
     number of Kohn-Sham states=          112
     kinetic-energy cutoff     =     140.0000  Ry
     charge density cutoff     =    1400.0000  Ry
     convergence threshold     =      1.0E-06
     mixing beta               =       0.7000
     number of iterations used =            8  plain     mixing
     Exchange-correlation      =  SLA  PW   PBX  PBC ( 1  4  3  4 0 0)
     nstep                     =          200


     celldm(1)=   1.889726  celldm(2)=   0.000000  celldm(3)=   0.000000
     celldm(4)=   0.000000  celldm(5)=   0.000000  celldm(6)=   0.000000

     crystal axes: (cart. coord. in units of alat)
               a(1) = (   6.528900   0.000000   0.000000 )  
               a(2) = (   0.000000  10.987500   0.000000 )  
               a(3) = (  -1.604329   0.000000   7.167954 )  

     reciprocal axes: (cart. coord. in units 2 pi/alat)
               b(1) = (  0.153165 -0.000000  0.034281 )  
               b(2) = (  0.000000  0.091013 -0.000000 )  
               b(3) = (  0.000000  0.000000  0.139510 )  


     PseudoPot. # 1 for  N read from file:
     /users/majewski/.data/PSEUDOPOTENTIALS/N.pbe-n-kjpaw_psl.1.0.0.UPF
     MD5 check sum: c21df8f53e59d08c3548513d559cdda6
     Pseudo is Projector augmented-wave + core cor, Zval =  5.0
     Generated using "atomic" code by A. Dal Corso  v.5.3.0 svn rev. 11974
     Shape of augmentation charge: PSQ
     Using radial grid of 1085 points,  4 beta functions with: 
                l(1) =   0
                l(2) =   0
                l(3) =   1
                l(4) =   1
     Q(r) pseudized with 0 coefficients 


     PseudoPot. # 2 for  C read from file:
     /users/majewski/.data/PSEUDOPOTENTIALS/C.pbe-n-kjpaw_psl.1.0.0.UPF
     MD5 check sum: 2ba8448e293caca687844dde9a1b88a8
     Pseudo is Projector augmented-wave + core cor, Zval =  4.0
     Generated using "atomic" code by A. Dal Corso  v.5.3.0 svn rev. 11974
     Shape of augmentation charge: PSQ
     Using radial grid of 1073 points,  4 beta functions with: 
                l(1) =   0
                l(2) =   0
                l(3) =   1
                l(4) =   1
     Q(r) pseudized with 0 coefficients 


     PseudoPot. # 3 for  H read from file:
     /users/majewski/.data/PSEUDOPOTENTIALS/H.pbe-kjpaw_psl.1.0.0.UPF
     MD5 check sum: bc0feb48a24907a0b97fa6ee2d589a29
     Pseudo is Projector augmented-wave, Zval =  1.0
     Generated using "atomic" code by A. Dal Corso  v.5.3.0 svn rev. 11974
     Shape of augmentation charge: PSQ
     Using radial grid of  929 points,  2 beta functions with: 
                l(1) =   0
                l(2) =   0
     Q(r) pseudized with 0 coefficients 


     PseudoPot. # 4 for  O read from file:
     /users/majewski/.data/PSEUDOPOTENTIALS/O.pbe-n-kjpaw_psl.1.0.0.UPF
     MD5 check sum: 9c0ade6c043cf4a781bde3908a3a8206
     Pseudo is Projector augmented-wave + core cor, Zval =  6.0
     Generated using "atomic" code by A. Dal Corso  v.5.3.0 svn rev. 11974
     Shape of augmentation charge: PSQ
     Using radial grid of 1095 points,  4 beta functions with: 
                l(1) =   0
                l(2) =   0
                l(3) =   1
                l(4) =   1
     Q(r) pseudized with 0 coefficients 


     atomic species   valence    mass     pseudopotential
        N              5.00    14.00670      N( 1.00)
        C              4.00    12.01100      C( 1.00)
        H              1.00     1.00790      H( 1.00)
        O              6.00    15.99940      O( 1.00)

      4 Sym. Ops., with inversion, found ( 2 have fractional translation)


                                    s                        frac. trans.

      isym =  1     identity                                     

 cryst.   s( 1) = (     1          0          0      )
                  (     0          1          0      )
                  (     0          0          1      )

 cart.    s( 1) = (  1.0000000  0.0000000  0.0000000 )
                  (  0.0000000  1.0000000  0.0000000 )
                  (  0.0000000  0.0000000  1.0000000 )


      isym =  2     180 deg rotation - cart. axis [0,1,0]        

 cryst.   s( 2) = (    -1          0          0      )    f =(  0.5000000 )
                  (     0          1          0      )       (  0.5000000 )
                  (     0          0         -1      )       (  0.5000000 )

 cart.    s( 2) = ( -1.0000000  0.0000000 -0.0000000 )    f =(  2.4622854 )
                  (  0.0000000  1.0000000  0.0000000 )       (  5.4937500 )
                  (  0.0000000  0.0000000 -1.0000000 )       (  3.5839768 )


      isym =  3     inversion                                    

 cryst.   s( 3) = (    -1          0          0      )
                  (     0         -1          0      )
                  (     0          0         -1      )

 cart.    s( 3) = ( -1.0000000  0.0000000 -0.0000000 )
                  (  0.0000000 -1.0000000  0.0000000 )
                  (  0.0000000  0.0000000 -1.0000000 )


      isym =  4     inv. 180 deg rotation - cart. axis [0,1,0]   

 cryst.   s( 4) = (     1          0          0      )    f =( -0.5000000 )
                  (     0         -1          0      )       (  0.5000000 )
                  (     0          0          1      )       (  0.5000000 )

 cart.    s( 4) = (  1.0000000  0.0000000  0.0000000 )    f =( -4.0666146 )
                  (  0.0000000 -1.0000000  0.0000000 )       (  5.4937500 )
                  (  0.0000000  0.0000000  1.0000000 )       (  3.5839768 )


   Cartesian axes

     site n.     atom                  positions (alat units)
         1           N   tau(   1) = (  -0.8614487   6.8444434   3.3109495  )
         2           O   tau(   2) = (   1.0746241   7.9096815   3.1371266  )
         3           N   tau(   3) = (   0.0618658   7.7221249   3.8135664  )
         4           N   tau(   4) = (  -2.0647129   5.7697560   5.0587833  )
         5           O   tau(   5) = (  -3.2542440   4.7069351   6.6110753  )
         6           N   tau(   6) = (  -3.2426279   5.5114399   5.6869828  )
         7           O   tau(   7) = (  -0.1753723   8.2085415   4.8971459  )
         8           C   tau(   8) = (  -2.1300386   6.7612680   3.9714764  )
         9           H   tau(   9) = (  -2.8138762   6.5024025   3.3338152  )
        10           H   tau(  10) = (  -2.3673225   7.6286213   4.3344616  )
        11           O   tau(  11) = (  -4.2140784   6.1608011   5.2929603  )
        12           C   tau(  12) = (  -0.5990533   6.2146399   2.0230832  )
        13           H   tau(  13) = (  -1.3903515   5.7475613   1.7138577  )
        14           H   tau(  14) = (  -0.3482788   6.8660888   1.3518761  )
        15           H   tau(  15) = (   3.7183358  -1.3723388  -2.2321008  )
        16           H   tau(  16) = (   2.6762631  -0.2538112  -1.8701191  )
        17           C   tau(  17) = (   3.4675614  -0.7208899  -1.5608936  )
        18           O   tau(  18) = (  -0.1474638  -0.6670511   1.7089835  )
        19           H   tau(  19) = (   1.6992921  -2.1348713   0.7504847  )
        20           H   tau(  20) = (   1.2527385  -1.0086525  -0.2501616  )
        21           C   tau(  21) = (   1.9365761  -1.2675180   0.3874996  )
        22           O   tau(  22) = (   3.8912424  -2.7147915   1.3131691  )
        23           N   tau(  23) = (   0.8239867  -0.0176899   2.1030059  )
        24           O   tau(  24) = (   0.8123707   0.7868149   3.0270985  )
        25           N   tau(  25) = (   2.0019018  -0.2760060   1.4748065  )
        26           N   tau(  26) = (   4.1284804  -2.2283749   0.2295896  )
        27           O   tau(  27) = (   5.1412387  -2.4159315  -0.4468502  )
        28           N   tau(  28) = (   3.2051660  -1.3506934  -0.2730274  )
        29           H   tau(  29) = (  -1.2560505   4.1214113   5.8160776  )
        30           H   tau(  30) = (  -0.2139778   5.2399388   5.4540959  )
        31           C   tau(  31) = (  -1.0052760   4.7728601   5.1448704  )
        32           O   tau(  32) = (   2.6097491   4.8266989   1.8749933  )
        33           H   tau(  33) = (   0.7629932   3.3588788   2.8334921  )
        34           H   tau(  34) = (   1.2095469   4.4850975   3.8341384  )
        35           C   tau(  35) = (   0.5257093   4.2262320   3.1964773  )
        36           O   tau(  36) = (  -1.4289570   2.7789585   2.2708077  )
        37           N   tau(  37) = (   1.6382987   5.4760601   1.4809709  )
        38           O   tau(  38) = (   1.6499147   6.2805649   0.5568783  )
        39           N   tau(  39) = (   0.4603836   5.2177440   2.1091704  )
        40           N   tau(  40) = (  -1.6661950   3.2653751   3.3543873  )
        41           O   tau(  41) = (  -2.6789534   3.0778185   4.0308271  )
        42           N   tau(  42) = (  -0.7428806   4.1430566   3.8570042  )
        43           H   tau(  43) = (   2.8105642   1.3723388   2.2321008  )
        44           H   tau(  44) = (   3.8526369   0.2538112   1.8701191  )
        45           C   tau(  45) = (   3.0613386   0.7208899   1.5608936  )
        46           O   tau(  46) = (   6.6763638   0.6670511  -1.7089835  )
        47           H   tau(  47) = (   4.8296079   2.1348713  -0.7504847  )
        48           H   tau(  48) = (   5.2761615   1.0086525   0.2501616  )
        49           C   tau(  49) = (   4.5923239   1.2675180  -0.3874996  )
        50           O   tau(  50) = (   2.6376576   2.7147915  -1.3131691  )
        51           N   tau(  51) = (   5.7049133   0.0176899  -2.1030059  )
        52           O   tau(  52) = (   5.7165293  -0.7868149  -3.0270985  )
        53           N   tau(  53) = (   4.5269982   0.2760060  -1.4748065  )
        54           N   tau(  54) = (   2.4004196   2.2283749  -0.2295896  )
        55           O   tau(  55) = (   1.3876613   2.4159315   0.4468502  )
        56           N   tau(  56) = (   3.3237340   1.3506934   0.2730274  )

   Crystallographic axes

     site n.     atom                  positions (cryst. coord.)
         1           N   tau(   1) = ( -0.0184400  0.6229300  0.4619100  )
         2           O   tau(   2) = (  0.2721400  0.7198800  0.4376600  )
         3           N   tau(   3) = (  0.1402100  0.7028100  0.5320300  )
         4           N   tau(   4) = ( -0.1428200  0.5251200  0.7057500  )
         5           O   tau(   5) = ( -0.2718000  0.4283900  0.9223100  )
         6           N   tau(   6) = ( -0.3017000  0.5016100  0.7933900  )
         7           O   tau(   7) = (  0.1410200  0.7470800  0.6832000  )
         8           C   tau(   8) = ( -0.1901000  0.6153600  0.5540600  )
         9           H   tau(   9) = ( -0.3167000  0.5918000  0.4651000  )
        10           H   tau(  10) = ( -0.2140000  0.6943000  0.6047000  )
        11           O   tau(  11) = ( -0.4640000  0.5607100  0.7384200  )
        12           C   tau(  12) = ( -0.0224000  0.5656100  0.2822400  )
        13           H   tau(  13) = ( -0.1542000  0.5231000  0.2391000  )
        14           H   tau(  14) = ( -0.0070000  0.6249000  0.1886000  )
        15           H   tau(  15) = (  0.4930000 -0.1249000 -0.3114000  )
        16           H   tau(  16) = (  0.3458000 -0.0231000 -0.2609000  )
        17           C   tau(  17) = (  0.4776000 -0.0656100 -0.2177600  )
        18           O   tau(  18) = (  0.0360000 -0.0607100  0.2384200  )
        19           H   tau(  19) = (  0.2860000 -0.1943000  0.1047000  )
        20           H   tau(  20) = (  0.1833000 -0.0918000 -0.0349000  )
        21           C   tau(  21) = (  0.3099000 -0.1153600  0.0540600  )
        22           O   tau(  22) = (  0.6410200 -0.2470800  0.1832000  )
        23           N   tau(  23) = (  0.1983000 -0.0016100  0.2933900  )
        24           O   tau(  24) = (  0.2282000  0.0716100  0.4223100  )
        25           N   tau(  25) = (  0.3571800 -0.0251200  0.2057500  )
        26           N   tau(  26) = (  0.6402100 -0.2028100  0.0320300  )
        27           O   tau(  27) = (  0.7721400 -0.2198800 -0.0623400  )
        28           N   tau(  28) = (  0.4815600 -0.1229300 -0.0380900  )
        29           H   tau(  29) = (  0.0070000  0.3751000  0.8114000  )
        30           H   tau(  30) = (  0.1542000  0.4769000  0.7609000  )
        31           C   tau(  31) = (  0.0224000  0.4343900  0.7177600  )
        32           O   tau(  32) = (  0.4640000  0.4392900  0.2615800  )
        33           H   tau(  33) = (  0.2140000  0.3057000  0.3953000  )
        34           H   tau(  34) = (  0.3167000  0.4082000  0.5349000  )
        35           C   tau(  35) = (  0.1901000  0.3846400  0.4459400  )
        36           O   tau(  36) = ( -0.1410200  0.2529200  0.3168000  )
        37           N   tau(  37) = (  0.3017000  0.4983900  0.2066100  )
        38           O   tau(  38) = (  0.2718000  0.5716100  0.0776900  )
        39           N   tau(  39) = (  0.1428200  0.4748800  0.2942500  )
        40           N   tau(  40) = ( -0.1402100  0.2971900  0.4679700  )
        41           O   tau(  41) = ( -0.2721400  0.2801200  0.5623400  )
        42           N   tau(  42) = (  0.0184400  0.3770700  0.5380900  )
        43           H   tau(  43) = (  0.5070000  0.1249000  0.3114000  )
        44           H   tau(  44) = (  0.6542000  0.0231000  0.2609000  )
        45           C   tau(  45) = (  0.5224000  0.0656100  0.2177600  )
        46           O   tau(  46) = (  0.9640000  0.0607100 -0.2384200  )
        47           H   tau(  47) = (  0.7140000  0.1943000 -0.1047000  )
        48           H   tau(  48) = (  0.8167000  0.0918000  0.0349000  )
        49           C   tau(  49) = (  0.6901000  0.1153600 -0.0540600  )
        50           O   tau(  50) = (  0.3589800  0.2470800 -0.1832000  )
        51           N   tau(  51) = (  0.8017000  0.0016100 -0.2933900  )
        52           O   tau(  52) = (  0.7718000 -0.0716100 -0.4223100  )
        53           N   tau(  53) = (  0.6428200  0.0251200 -0.2057500  )
        54           N   tau(  54) = (  0.3597900  0.2028100 -0.0320300  )
        55           O   tau(  55) = (  0.2278600  0.2198800  0.0623400  )
        56           N   tau(  56) = (  0.5184400  0.1229300  0.0380900  )

     number of k points=     1
                       cart. coord. in units 2pi/alat
        k(    1) = (   0.0000000   0.0000000   0.0000000), wk =   2.0000000

                       cryst. coord.
        k(    1) = (   0.0000000   0.0000000   0.0000000), wk =   2.0000000

     Dense  grid:  1534816 G-vectors     FFT dimensions: ( 150, 250, 180)

     Smooth grid:   388236 G-vectors     FFT dimensions: (  96, 160, 108)

     Largest allocated arrays     est. size (Mb)     dimensions
        Kohn-Sham Wavefunctions        10.37 Mb     (    6066,  112)
        NL pseudopotentials            32.58 Mb     (    6066,  352)
        Each V/rho on FFT grid         13.16 Mb     (  862500)
        Each G-vector array             1.46 Mb     (  191852)
        G-vector shells                 1.39 Mb     (  181889)
     Largest temporary arrays     est. size (Mb)     dimensions
        Auxiliary wavefunctions        20.73 Mb     (    6066,  448)
        Each subspace H/S matrix        1.53 Mb     (     448,  448)
        Each <psi_i|beta_j> matrix      0.30 Mb     (     352,  112)
        Arrays for rho mixing         105.29 Mb     (  862500,    8)

     Initial potential from superposition of free atoms

     starting charge  223.99937, renormalised to  224.00000
     Starting wfc are  176 randomized atomic wfcs
     Checking if some PAW data can be deallocated... 
       node    0, deallocated PAW data for type:  2
       node    0, deallocated PAW data for type:  3
       node    1, deallocated PAW data for type:  1
       node    2, deallocated PAW data for type:  1
       node    3, deallocated PAW data for type:  2
       node    3, deallocated PAW data for type:  3
       node    4, deallocated PAW data for type:  1
       node    5, deallocated PAW data for type:  2
       node    5, deallocated PAW data for type:  3
       node    6, deallocated PAW data for type:  1
       node    7, deallocated PAW data for type:  2
       node    7, deallocated PAW data for type:  3

     total cpu time spent up to now is      118.4 secs

     per-process dynamical memory:   192.8 Mb

     Self-consistent Calculation

     iteration #  1     ecut=   140.00 Ry     beta=0.70
     Davidson diagonalization with overlap
     ethr =  1.00E-02,  avg # of iterations =  3.0

     total cpu time spent up to now is      185.0 secs

     total energy              =   -1279.59944564 Ry
     Harris-Foulkes estimate   =   -1283.96382938 Ry
     estimated scf accuracy    <       6.72981351 Ry

     iteration #  2     ecut=   140.00 Ry     beta=0.70
     Davidson diagonalization with overlap
     ethr =  3.00E-03,  avg # of iterations =  4.0

     total cpu time spent up to now is      255.6 secs

     total energy              =   -1280.27042998 Ry
     Harris-Foulkes estimate   =   -1283.75070831 Ry
     estimated scf accuracy    <       6.99893996 Ry

     iteration #  3     ecut=   140.00 Ry     beta=0.70
     Davidson diagonalization with overlap
     ethr =  3.00E-03,  avg # of iterations =  5.0

     total cpu time spent up to now is      317.5 secs

     total energy              =   -1281.77620554 Ry
     Harris-Foulkes estimate   =   -1282.01683580 Ry
     estimated scf accuracy    <       0.44893965 Ry

     iteration #  4     ecut=   140.00 Ry     beta=0.70
     Davidson diagonalization with overlap
     ethr =  2.00E-04,  avg # of iterations =  5.0

     total cpu time spent up to now is      384.4 secs

     total energy              =   -1281.92805540 Ry
     Harris-Foulkes estimate   =   -1282.01527081 Ry
     estimated scf accuracy    <       0.19125455 Ry

     iteration #  5     ecut=   140.00 Ry     beta=0.70
     Davidson diagonalization with overlap
     ethr =  8.54E-05,  avg # of iterations =  5.0

     total cpu time spent up to now is      446.9 secs

     total energy              =   -1281.96765209 Ry
     Harris-Foulkes estimate   =   -1281.97551094 Ry
     estimated scf accuracy    <       0.01892663 Ry

     iteration #  6     ecut=   140.00 Ry     beta=0.70
     Davidson diagonalization with overlap
     ethr =  8.45E-06,  avg # of iterations =  5.0

     total cpu time spent up to now is      506.9 secs

     total energy              =   -1281.97078904 Ry
     Harris-Foulkes estimate   =   -1281.97243813 Ry
     estimated scf accuracy    <       0.00374680 Ry

     iteration #  7     ecut=   140.00 Ry     beta=0.70
     Davidson diagonalization with overlap
     ethr =  1.67E-06,  avg # of iterations =  5.0

     total cpu time spent up to now is      569.2 secs

     total energy              =   -1281.97191697 Ry
     Harris-Foulkes estimate   =   -1281.97218331 Ry
     estimated scf accuracy    <       0.00065379 Ry

     iteration #  8     ecut=   140.00 Ry     beta=0.70
     Davidson diagonalization with overlap
     ethr =  2.92E-07,  avg # of iterations =  6.0

     total cpu time spent up to now is      627.8 secs

     total energy              =   -1281.97201512 Ry
     Harris-Foulkes estimate   =   -1281.97209477 Ry
     estimated scf accuracy    <       0.00018952 Ry

     iteration #  9     ecut=   140.00 Ry     beta=0.70
     Davidson diagonalization with overlap
     ethr =  8.46E-08,  avg # of iterations =  5.0

     total cpu time spent up to now is      689.9 secs

     total energy              =   -1281.97207848 Ry
     Harris-Foulkes estimate   =   -1281.97209107 Ry
     estimated scf accuracy    <       0.00003626 Ry

     iteration # 10     ecut=   140.00 Ry     beta=0.70
     Davidson diagonalization with overlap
     ethr =  1.62E-08,  avg # of iterations =  2.0

     total cpu time spent up to now is      743.7 secs

     total energy              =   -1281.97207535 Ry
     Harris-Foulkes estimate   =   -1281.97208103 Ry
     estimated scf accuracy    <       0.00001443 Ry

     iteration # 11     ecut=   140.00 Ry     beta=0.70
     Davidson diagonalization with overlap
     ethr =  6.44E-09,  avg # of iterations =  5.0

     total cpu time spent up to now is      808.9 secs

     total energy              =   -1281.97208630 Ry
     Harris-Foulkes estimate   =   -1281.97208857 Ry
     estimated scf accuracy    <       0.00002205 Ry

     iteration # 12     ecut=   140.00 Ry     beta=0.70
     Davidson diagonalization with overlap
     ethr =  6.44E-09,  avg # of iterations =  1.0

     total cpu time spent up to now is      861.4 secs

     total energy              =   -1281.97207907 Ry
     Harris-Foulkes estimate   =   -1281.97208640 Ry
     estimated scf accuracy    <       0.00001840 Ry

     iteration # 13     ecut=   140.00 Ry     beta=0.70
     Davidson diagonalization with overlap
     ethr =  6.44E-09,  avg # of iterations =  5.0

     total cpu time spent up to now is      921.6 secs

     total energy              =   -1281.97208410 Ry
     Harris-Foulkes estimate   =   -1281.97208577 Ry
     estimated scf accuracy    <       0.00000715 Ry

     iteration # 14     ecut=   140.00 Ry     beta=0.70
     Davidson diagonalization with overlap
     ethr =  3.19E-09,  avg # of iterations =  1.0

     total cpu time spent up to now is      973.6 secs

     total energy              =   -1281.97208292 Ry
     Harris-Foulkes estimate   =   -1281.97208418 Ry
     estimated scf accuracy    <       0.00000451 Ry

     iteration # 15     ecut=   140.00 Ry     beta=0.70
     Davidson diagonalization with overlap
     ethr =  2.01E-09,  avg # of iterations =  5.0

     total cpu time spent up to now is     1032.5 secs

     End of self-consistent calculation

          k = 0.0000 0.0000 0.0000 ( 48515 PWs)   bands (ev):

   -24.0603 -24.0350 -24.0328 -24.0173 -23.6371 -23.6277 -23.6224 -23.6217
   -19.2319 -19.2259 -19.2200 -19.2068 -18.8260 -18.8246 -18.8192 -18.8182
   -18.2906 -18.2533 -17.2933 -17.2234 -17.0906 -17.0895 -16.0945 -16.0744
   -12.1598 -12.1425 -12.1367 -12.0096 -11.9820 -11.8892 -11.8398 -11.8115
    -8.9345  -8.8477  -8.3165  -8.2744  -7.5942  -7.5585  -7.5097  -7.4547
    -6.8415  -6.7442  -6.6457  -6.5650  -6.5298  -6.4016  -6.3868  -6.2938
    -6.1453  -6.1019  -6.0768  -6.0380  -5.9649  -5.9118  -5.7425  -5.6937
    -5.6573  -5.6493  -5.6267  -5.5971  -5.1237  -5.0411  -4.9682  -4.9286
    -4.5471  -4.4807  -4.4569  -4.4401  -4.3026  -4.1668  -3.8896  -3.8097
    -3.7868  -3.6157  -3.5612  -3.5269  -3.1827  -3.1258  -3.1081  -3.0921
    -0.7934  -0.7902  -0.3469  -0.3387  -0.2510  -0.1657  -0.1629  -0.0624
    -0.0462  -0.0082   0.1672   0.1944   0.2003   0.2403   0.3483   0.4021
     0.4240   0.4480   0.5956   0.6998   0.7439   0.8481   0.8488   0.8846
     0.8956   1.0213   1.0661   1.1379   1.1905   1.3588   1.3724   1.3745

     occupation numbers 
     1.0000   1.0000   1.0000   1.0000   1.0000   1.0000   1.0000   1.0000
     1.0000   1.0000   1.0000   1.0000   1.0000   1.0000   1.0000   1.0000
     1.0000   1.0000   1.0000   1.0000   1.0000   1.0000   1.0000   1.0000
     1.0000   1.0000   1.0000   1.0000   1.0000   1.0000   1.0000   1.0000
     1.0000   1.0000   1.0000   1.0000   1.0000   1.0000   1.0000   1.0000
     1.0000   1.0000   1.0000   1.0000   1.0000   1.0000   1.0000   1.0000
     1.0000   1.0000   1.0000   1.0000   1.0000   1.0000   1.0000   1.0000
     1.0000   1.0000   1.0000   1.0000   1.0000   1.0000   1.0000   1.0000
     1.0000   1.0000   1.0000   1.0000   1.0000   1.0000   1.0000   1.0000
     1.0000   1.0000   1.0000   1.0000   1.0000   1.0000   1.0000   1.0000
     1.0000   1.0000   1.0000   1.0000   1.0000   1.0000   1.0000   1.0000
     1.0000   1.0000   1.0000   1.0000   1.0000   1.0000   1.0000   1.0000
     1.0000   1.0000   1.0000   1.0000   1.0000   1.0000   1.0000   1.0000
     1.0000   1.0000   1.0000   1.0000   1.0000   1.0000   1.0000   1.0000

     highest occupied level (ev):     1.3745

!    total energy              =   -1281.97208372 Ry
     Harris-Foulkes estimate   =   -1281.97208456 Ry
     estimated scf accuracy    <       0.00000093 Ry

     total all-electron energy =     -4786.415831 Ry

     The total energy is the sum of the following terms:

     one-electron contribution =    -646.84774548 Ry
     hartree contribution      =     421.56106510 Ry
     xc contribution           =    -260.42238713 Ry
     ewald contribution        =    -465.86389729 Ry
     one-center paw contrib.   =    -330.39911892 Ry

     convergence has been achieved in  15 iterations

     Forces acting on atoms (Ry/au):

     atom    1 type  1   force =    -0.01261457   -0.01516385   -0.02479234
     atom    2 type  4   force =     0.02726121    0.00211070   -0.02270888
     atom    3 type  1   force =     0.00850032   -0.01149236   -0.03231919
     atom    4 type  1   force =     0.01123546   -0.00340973    0.00540116
     atom    5 type  4   force =     0.00273206   -0.03174740    0.03165219
     atom    6 type  1   force =     0.00686830    0.00270729   -0.00568029
     atom    7 type  4   force =    -0.01575595    0.03036227    0.06684362
     atom    8 type  2   force =     0.19202096   -0.12850878    0.06056802
     atom    9 type  3   force =    -0.15243924   -0.06545451   -0.15666575
     atom   10 type  3   force =    -0.05088270    0.20263564    0.09291149
     atom   11 type  4   force =    -0.03911720    0.01991161   -0.01868661
     atom   12 type  2   force =     0.12384647   -0.05310282    0.21527584
     atom   13 type  3   force =    -0.20199235   -0.10277295   -0.06003909
     atom   14 type  3   force =     0.06589883    0.15657476   -0.15673559
     atom   15 type  3   force =     0.06589883   -0.15657476   -0.15673559
     atom   16 type  3   force =    -0.20199235    0.10277295   -0.06003909
     atom   17 type  2   force =     0.12384647    0.05310282    0.21527584
     atom   18 type  4   force =    -0.03911720   -0.01991161   -0.01868661
     atom   19 type  3   force =    -0.05088270   -0.20263564    0.09291149
     atom   20 type  3   force =    -0.15243924    0.06545451   -0.15666575
     atom   21 type  2   force =     0.19202096    0.12850878    0.06056802
     atom   22 type  4   force =    -0.01575595   -0.03036227    0.06684362
     atom   23 type  1   force =     0.00686830   -0.00270729   -0.00568029
     atom   24 type  4   force =     0.00273206    0.03174740    0.03165219
     atom   25 type  1   force =     0.01123546    0.00340973    0.00540116
     atom   26 type  1   force =     0.00850032    0.01149236   -0.03231919
     atom   27 type  4   force =     0.02726121   -0.00211070   -0.02270888
     atom   28 type  1   force =    -0.01261457    0.01516385   -0.02479234
     atom   29 type  3   force =    -0.06589883   -0.15657476    0.15673559
     atom   30 type  3   force =     0.20199235    0.10277295    0.06003909
     atom   31 type  2   force =    -0.12384647    0.05310282   -0.21527584
     atom   32 type  4   force =     0.03911720   -0.01991161    0.01868661
     atom   33 type  3   force =     0.05088270   -0.20263564   -0.09291149
     atom   34 type  3   force =     0.15243924    0.06545451    0.15666575
     atom   35 type  2   force =    -0.19202096    0.12850878   -0.06056802
     atom   36 type  4   force =     0.01575595   -0.03036227   -0.06684362
     atom   37 type  1   force =    -0.00686830   -0.00270729    0.00568029
     atom   38 type  4   force =    -0.00273206    0.03174740   -0.03165219
     atom   39 type  1   force =    -0.01123546    0.00340973   -0.00540116
     atom   40 type  1   force =    -0.00850032    0.01149236    0.03231919
     atom   41 type  4   force =    -0.02726121   -0.00211070    0.02270888
     atom   42 type  1   force =     0.01261457    0.01516385    0.02479234
     atom   43 type  3   force =    -0.06589883    0.15657476    0.15673559
     atom   44 type  3   force =     0.20199235   -0.10277295    0.06003909
     atom   45 type  2   force =    -0.12384647   -0.05310282   -0.21527584
     atom   46 type  4   force =     0.03911720    0.01991161    0.01868661
     atom   47 type  3   force =     0.05088270    0.20263564   -0.09291149
     atom   48 type  3   force =     0.15243924   -0.06545451    0.15666575
     atom   49 type  2   force =    -0.19202096   -0.12850878   -0.06056802
     atom   50 type  4   force =     0.01575595    0.03036227   -0.06684362
     atom   51 type  1   force =    -0.00686830    0.00270729    0.00568029
     atom   52 type  4   force =    -0.00273206   -0.03174740   -0.03165219
     atom   53 type  1   force =    -0.01123546   -0.00340973   -0.00540116
     atom   54 type  1   force =    -0.00850032   -0.01149236    0.03231919
     atom   55 type  4   force =    -0.02726121    0.00211070    0.02270888
     atom   56 type  1   force =     0.01261457   -0.01516385    0.02479234
     The non-local contrib.  to forces
     atom    1 type  1   force =     0.17892220    0.36383301    0.11109008
     atom    2 type  4   force =    -2.39916520   -0.46481426    1.51356969
     atom    3 type  1   force =     0.03033404   -0.02339547    0.07302395
     atom    4 type  1   force =    -0.58365447   -0.41547971   -0.12809545
     atom    5 type  4   force =     0.15335929    1.87839969   -2.21583881
     atom    6 type  1   force =    -0.00578576    0.06423246    0.05662334
     atom    7 type  4   force =     0.54332339   -1.19002137   -2.65081752
     atom    8 type  2   force =     0.64803942   -0.45431332    0.18500104
     atom    9 type  3   force =     0.08169369    0.02727410    0.07200436
     atom   10 type  3   force =     0.02961425   -0.10162564   -0.04145864
     atom   11 type  4   force =     2.26329248   -1.47258841    0.84142253
     atom   12 type  2   force =     0.38880849   -0.16597357    0.70486113
     atom   13 type  3   force =     0.09013486    0.05418442    0.04070330
     atom   14 type  3   force =    -0.02746551   -0.07643634    0.08014900
     atom   15 type  3   force =    -0.02746551    0.07643634    0.08014900
     atom   16 type  3   force =     0.09013486   -0.05418442    0.04070330
     atom   17 type  2   force =     0.38880849    0.16597357    0.70486113
     atom   18 type  4   force =     2.26329248    1.47258841    0.84142253
     atom   19 type  3   force =     0.02961425    0.10162564   -0.04145864
     atom   20 type  3   force =     0.08169369   -0.02727410    0.07200436
     atom   21 type  2   force =     0.64803942    0.45431332    0.18500104
     atom   22 type  4   force =     0.54332339    1.19002137   -2.65081752
     atom   23 type  1   force =    -0.00578576   -0.06423246    0.05662334
     atom   24 type  4   force =     0.15335929   -1.87839969   -2.21583881
     atom   25 type  1   force =    -0.58365447    0.41547971   -0.12809545
     atom   26 type  1   force =     0.03033404    0.02339547    0.07302395
     atom   27 type  4   force =    -2.39916520    0.46481426    1.51356969
     atom   28 type  1   force =     0.17892220   -0.36383301    0.11109008
     atom   29 type  3   force =     0.02746551    0.07643634   -0.08014900
     atom   30 type  3   force =    -0.09013486   -0.05418442   -0.04070330
     atom   31 type  2   force =    -0.38880849    0.16597357   -0.70486113
     atom   32 type  4   force =    -2.26329248    1.47258841   -0.84142253
     atom   33 type  3   force =    -0.02961425    0.10162564    0.04145864
     atom   34 type  3   force =    -0.08169369   -0.02727410   -0.07200436
     atom   35 type  2   force =    -0.64803942    0.45431332   -0.18500104
     atom   36 type  4   force =    -0.54332339    1.19002137    2.65081752
     atom   37 type  1   force =     0.00578576   -0.06423246   -0.05662334
     atom   38 type  4   force =    -0.15335929   -1.87839969    2.21583881
     atom   39 type  1   force =     0.58365447    0.41547971    0.12809545
     atom   40 type  1   force =    -0.03033404    0.02339547   -0.07302395
     atom   41 type  4   force =     2.39916520    0.46481426   -1.51356969
     atom   42 type  1   force =    -0.17892220   -0.36383301   -0.11109008
     atom   43 type  3   force =     0.02746551   -0.07643634   -0.08014900
     atom   44 type  3   force =    -0.09013486    0.05418442   -0.04070330
     atom   45 type  2   force =    -0.38880849   -0.16597357   -0.70486113
     atom   46 type  4   force =    -2.26329248   -1.47258841   -0.84142253
     atom   47 type  3   force =    -0.02961425   -0.10162564    0.04145864
     atom   48 type  3   force =    -0.08169369    0.02727410   -0.07200436
     atom   49 type  2   force =    -0.64803942   -0.45431332   -0.18500104
     atom   50 type  4   force =    -0.54332339   -1.19002137    2.65081752
     atom   51 type  1   force =     0.00578576    0.06423246   -0.05662334
     atom   52 type  4   force =    -0.15335929    1.87839969    2.21583881
     atom   53 type  1   force =     0.58365447   -0.41547971    0.12809545
     atom   54 type  1   force =    -0.03033404   -0.02339547   -0.07302395
     atom   55 type  4   force =     2.39916520   -0.46481426   -1.51356969
     atom   56 type  1   force =    -0.17892220    0.36383301   -0.11109008
     The ionic contribution  to forces
     atom    1 type  1   force =    -2.99716665    0.23374213   -2.11266882
     atom    2 type  4   force =    12.25573500    4.35721034   -5.99291823
     atom    3 type  1   force =    -0.09932969    1.58892577   -0.18731531
     atom    4 type  1   force =     2.72864904    2.68975951    1.99166692
     atom    5 type  4   force =    -1.36956345   -8.69923043   11.32880610
     atom    6 type  1   force =    -0.43857926    0.04525173    1.13225701
     atom    7 type  4   force =    -2.12601387    6.51369092   12.71652439
     atom    8 type  2   force =    -4.05976909    3.23779416   -1.18068441
     atom    9 type  3   force =    -2.32760816   -0.14093782   -2.07090026
     atom   10 type  3   force =    -1.26941218    2.88176397    0.78393315
     atom   11 type  4   force =   -11.19660201    6.25871088   -2.20177594
     atom   12 type  2   force =    -2.90641371    1.08698465   -4.68487403
     atom   13 type  3   force =    -2.58951255   -1.14499927   -1.61508182
     atom   14 type  3   force =     0.22943040    2.07418851   -2.52908397
     atom   15 type  3   force =     0.22943040   -2.07418851   -2.52908397
     atom   16 type  3   force =    -2.58951255    1.14499927   -1.61508182
     atom   17 type  2   force =    -2.90641371   -1.08698465   -4.68487403
     atom   18 type  4   force =   -11.19660201   -6.25871088   -2.20177594
     atom   19 type  3   force =    -1.26941218   -2.88176397    0.78393315
     atom   20 type  3   force =    -2.32760816    0.14093782   -2.07090026
     atom   21 type  2   force =    -4.05976909   -3.23779416   -1.18068441
     atom   22 type  4   force =    -2.12601387   -6.51369092   12.71652439
     atom   23 type  1   force =    -0.43857926   -0.04525173    1.13225701
     atom   24 type  4   force =    -1.36956345    8.69923043   11.32880610
     atom   25 type  1   force =     2.72864904   -2.68975951    1.99166692
     atom   26 type  1   force =    -0.09932969   -1.58892577   -0.18731531
     atom   27 type  4   force =    12.25573500   -4.35721034   -5.99291823
     atom   28 type  1   force =    -2.99716665   -0.23374213   -2.11266882
     atom   29 type  3   force =    -0.22943040   -2.07418851    2.52908397
     atom   30 type  3   force =     2.58951255    1.14499927    1.61508182
     atom   31 type  2   force =     2.90641371   -1.08698465    4.68487403
     atom   32 type  4   force =    11.19660201   -6.25871088    2.20177594
     atom   33 type  3   force =     1.26941218   -2.88176397   -0.78393315
     atom   34 type  3   force =     2.32760816    0.14093782    2.07090026
     atom   35 type  2   force =     4.05976909   -3.23779416    1.18068441
     atom   36 type  4   force =     2.12601387   -6.51369092  -12.71652439
     atom   37 type  1   force =     0.43857926   -0.04525173   -1.13225701
     atom   38 type  4   force =     1.36956345    8.69923043  -11.32880610
     atom   39 type  1   force =    -2.72864904   -2.68975951   -1.99166692
     atom   40 type  1   force =     0.09932969   -1.58892577    0.18731531
     atom   41 type  4   force =   -12.25573500   -4.35721034    5.99291823
     atom   42 type  1   force =     2.99716665   -0.23374213    2.11266882
     atom   43 type  3   force =    -0.22943040    2.07418851    2.52908397
     atom   44 type  3   force =     2.58951255   -1.14499927    1.61508182
     atom   45 type  2   force =     2.90641371    1.08698465    4.68487403
     atom   46 type  4   force =    11.19660201    6.25871088    2.20177594
     atom   47 type  3   force =     1.26941218    2.88176397   -0.78393315
     atom   48 type  3   force =     2.32760816   -0.14093782    2.07090026
     atom   49 type  2   force =     4.05976909    3.23779416    1.18068441
     atom   50 type  4   force =     2.12601387    6.51369092  -12.71652439
     atom   51 type  1   force =     0.43857926    0.04525173   -1.13225701
     atom   52 type  4   force =     1.36956345   -8.69923043  -11.32880610
     atom   53 type  1   force =    -2.72864904    2.68975951   -1.99166692
     atom   54 type  1   force =     0.09932969    1.58892577    0.18731531
     atom   55 type  4   force =   -12.25573500    4.35721034    5.99291823
     atom   56 type  1   force =     2.99716665    0.23374213    2.11266882
     The local contribution  to forces
     atom    1 type  1   force =     2.80864296   -0.60674224    1.97869970
     atom    2 type  4   force =    -9.84828464   -3.89379414    4.46876254
     atom    3 type  1   force =     0.07655982   -1.57858619    0.08270486
     atom    4 type  1   force =    -2.14299138   -2.28410810   -1.85998554
     atom    5 type  4   force =     1.22006782    6.80323928   -9.09845287
     atom    6 type  1   force =     0.45233293   -0.10542511   -1.19412656
     atom    7 type  4   force =     1.57087799   -5.30209061  -10.01861026
     atom    8 type  2   force =     3.61797451   -2.92232420    1.06125635
     atom    9 type  3   force =     2.09350139    0.04819747    1.84224396
     atom   10 type  3   force =     1.18895354   -2.57749713   -0.64954341
     atom   11 type  4   force =     8.91161009   -4.77768635    1.34844248
     atom   12 type  2   force =     2.65014459   -0.97743142    4.21136539
     atom   13 type  3   force =     2.29737643    0.98802905    1.51433447
     atom   14 type  3   force =    -0.13608911   -1.84119593    2.29217816
     atom   15 type  3   force =    -0.13608301    1.84119859    2.29222446
     atom   16 type  3   force =     2.29738320   -0.98802990    1.51433290
     atom   17 type  2   force =     2.65017681    0.97739609    4.21136765
     atom   18 type  4   force =     8.91169363    4.77774069    1.34841803
     atom   19 type  3   force =     1.18892949    2.57751066   -0.64962509
     atom   20 type  3   force =     2.09349826   -0.04822816    1.84218432
     atom   21 type  2   force =     3.61794746    2.92233702    1.06103439
     atom   22 type  4   force =     1.57102611    5.30220216  -10.01906037
     atom   23 type  1   force =     0.45244549    0.10547830   -1.19395548
     atom   24 type  4   force =     1.22020306   -6.80323772   -9.09808986
     atom   25 type  1   force =    -2.14295110    2.28412247   -1.85992778
     atom   26 type  1   force =     0.07699364    1.57869498    0.08181771
     atom   27 type  4   force =    -9.84795104    3.89372156    4.46826072
     atom   28 type  1   force =     2.80869841    0.60674655    1.97834309
     atom   29 type  3   force =     0.13607485    1.84117448   -2.29222321
     atom   30 type  3   force =    -2.29738074   -0.98805998   -1.51434283
     atom   31 type  2   force =    -2.65018215    0.97729606   -4.21138003
     atom   32 type  4   force =    -8.91152720    4.77746784   -1.34834715
     atom   33 type  3   force =    -1.18891806    2.57749258    0.64962100
     atom   34 type  3   force =    -2.09348578   -0.04825242   -1.84219808
     atom   35 type  2   force =    -3.61789480    2.92225522   -1.06106447
     atom   36 type  4   force =    -1.57104176    5.30222549   10.01906734
     atom   37 type  1   force =    -0.45225266    0.10511302    1.19417362
     atom   38 type  4   force =    -1.22012986   -6.80350515    9.09822856
     atom   39 type  1   force =     2.14300555    2.28397144    1.85997737
     atom   40 type  1   force =    -0.07701163    1.57866601   -0.08184719
     atom   41 type  4   force =     9.84792299    3.89370935   -4.46830281
     atom   42 type  1   force =    -2.80871820    0.60663880   -1.97837725
     atom   43 type  3   force =     0.13607227   -1.84117878   -2.29217300
     atom   44 type  3   force =    -2.29739431    0.98806097   -1.51433592
     atom   45 type  2   force =    -2.65019536   -0.97735266   -4.21134648
     atom   46 type  4   force =    -8.91156917   -4.77750818   -1.34845459
     atom   47 type  3   force =    -1.18895783   -2.57748684    0.64953852
     atom   48 type  3   force =    -2.09350869    0.04822770   -1.84225704
     atom   49 type  2   force =    -3.61798450   -2.92226770   -1.06130217
     atom   50 type  4   force =    -1.57084964   -5.30210182   10.01859245
     atom   51 type  1   force =    -0.45235557   -0.10525826    1.19413472
     atom   52 type  4   force =    -1.22010704    6.80349701    9.09858589
     atom   53 type  1   force =     2.14295641   -2.28396089    1.85990534
     atom   54 type  1   force =    -0.07653474   -1.57854810   -0.08268347
     atom   55 type  4   force =     9.84833226   -3.89375821   -4.46872679
     atom   56 type  1   force =    -2.80867149   -0.60663406   -1.97870227
     The core correction contribution to forces
     atom    1 type  1   force =    -0.00316548   -0.00602752   -0.00172141
     atom    2 type  4   force =     0.01872920    0.00349112   -0.01179635
     atom    3 type  1   force =     0.00040123    0.00166236    0.00005636
     atom    4 type  1   force =     0.00936159    0.00639189    0.00175332
     atom    5 type  4   force =    -0.00124366   -0.01445725    0.01724744
     atom    6 type  1   force =    -0.00110669   -0.00157535   -0.00029742
     atom    7 type  4   force =    -0.00409337    0.00890577    0.02010011
     atom    8 type  2   force =    -0.01412949    0.01037647   -0.00496948
     atom    9 type  3   force =     0.00000000    0.00000000    0.00000000
     atom   10 type  3   force =     0.00000000    0.00000000    0.00000000
     atom   11 type  4   force =    -0.01754063    0.01141875   -0.00672289
     atom   12 type  2   force =    -0.00880781    0.00326260   -0.01608484
     atom   13 type  3   force =     0.00000000    0.00000000    0.00000000
     atom   14 type  3   force =     0.00000000    0.00000000    0.00000000
     atom   15 type  3   force =     0.00000000    0.00000000    0.00000000
     atom   16 type  3   force =     0.00000000    0.00000000    0.00000000
     atom   17 type  2   force =    -0.00880768   -0.00326248   -0.01608491
     atom   18 type  4   force =    -0.01754136   -0.01141902   -0.00672310
     atom   19 type  3   force =     0.00000000    0.00000000    0.00000000
     atom   20 type  3   force =     0.00000000    0.00000000    0.00000000
     atom   21 type  2   force =    -0.01412916   -0.01037621   -0.00496930
     atom   22 type  4   force =    -0.00409453   -0.00890597    0.02010185
     atom   23 type  1   force =    -0.00110790    0.00157444   -0.00029749
     atom   24 type  4   force =    -0.00124375    0.01445719    0.01724739
     atom   25 type  1   force =     0.00936187   -0.00639229    0.00175469
     atom   26 type  1   force =     0.00039887   -0.00166303    0.00005948
     atom   27 type  4   force =     0.01872814   -0.00349163   -0.01179454
     atom   28 type  1   force =    -0.00316510    0.00602729   -0.00172108
     atom   29 type  3   force =     0.00000000    0.00000000    0.00000000
     atom   30 type  3   force =     0.00000000    0.00000000    0.00000000
     atom   31 type  2   force =     0.00880772   -0.00326233    0.01608492
     atom   32 type  4   force =     0.01754120   -0.01141890    0.00672271
     atom   33 type  3   force =     0.00000000    0.00000000    0.00000000
     atom   34 type  3   force =     0.00000000    0.00000000    0.00000000
     atom   35 type  2   force =     0.01412935   -0.01037620    0.00496953
     atom   36 type  4   force =     0.00409461   -0.00890607   -0.02010195
     atom   37 type  1   force =     0.00110766    0.00157522    0.00029687
     atom   38 type  4   force =     0.00124355    0.01445772   -0.01724802
     atom   39 type  1   force =    -0.00936173   -0.00639189   -0.00175447
     atom   40 type  1   force =    -0.00039858   -0.00166291   -0.00005927
     atom   41 type  4   force =    -0.01872807   -0.00349156    0.01179461
     atom   42 type  1   force =     0.00316524    0.00602739    0.00172108
     atom   43 type  3   force =     0.00000000    0.00000000    0.00000000
     atom   44 type  3   force =     0.00000000    0.00000000    0.00000000
     atom   45 type  2   force =     0.00880765    0.00326237    0.01608496
     atom   46 type  4   force =     0.01754107    0.01141895    0.00672302
     atom   47 type  3   force =     0.00000000    0.00000000    0.00000000
     atom   48 type  3   force =     0.00000000    0.00000000    0.00000000
     atom   49 type  2   force =     0.01412936    0.01037645    0.00496954
     atom   50 type  4   force =     0.00409338    0.00890594   -0.02010016
     atom   51 type  1   force =     0.00110706   -0.00157677    0.00029526
     atom   52 type  4   force =     0.00124381   -0.01445736   -0.01724792
     atom   53 type  1   force =    -0.00936180    0.00639222   -0.00175412
     atom   54 type  1   force =    -0.00040147    0.00166276   -0.00005618
     atom   55 type  4   force =    -0.01872928    0.00349105    0.01179620
     atom   56 type  1   force =     0.00316554   -0.00602739    0.00172152
     The Hubbard contrib.    to forces
     atom    1 type  1   force =     0.00000000    0.00000000    0.00000000
     atom    2 type  4   force =     0.00000000    0.00000000    0.00000000
     atom    3 type  1   force =     0.00000000    0.00000000    0.00000000
     atom    4 type  1   force =     0.00000000    0.00000000    0.00000000
     atom    5 type  4   force =     0.00000000    0.00000000    0.00000000
     atom    6 type  1   force =     0.00000000    0.00000000    0.00000000
     atom    7 type  4   force =     0.00000000    0.00000000    0.00000000
     atom    8 type  2   force =     0.00000000    0.00000000    0.00000000
     atom    9 type  3   force =     0.00000000    0.00000000    0.00000000
     atom   10 type  3   force =     0.00000000    0.00000000    0.00000000
     atom   11 type  4   force =     0.00000000    0.00000000    0.00000000
     atom   12 type  2   force =     0.00000000    0.00000000    0.00000000
     atom   13 type  3   force =     0.00000000    0.00000000    0.00000000
     atom   14 type  3   force =     0.00000000    0.00000000    0.00000000
     atom   15 type  3   force =     0.00000000    0.00000000    0.00000000
     atom   16 type  3   force =     0.00000000    0.00000000    0.00000000
     atom   17 type  2   force =     0.00000000    0.00000000    0.00000000
     atom   18 type  4   force =     0.00000000    0.00000000    0.00000000
     atom   19 type  3   force =     0.00000000    0.00000000    0.00000000
     atom   20 type  3   force =     0.00000000    0.00000000    0.00000000
     atom   21 type  2   force =     0.00000000    0.00000000    0.00000000
     atom   22 type  4   force =     0.00000000    0.00000000    0.00000000
     atom   23 type  1   force =     0.00000000    0.00000000    0.00000000
     atom   24 type  4   force =     0.00000000    0.00000000    0.00000000
     atom   25 type  1   force =     0.00000000    0.00000000    0.00000000
     atom   26 type  1   force =     0.00000000    0.00000000    0.00000000
     atom   27 type  4   force =     0.00000000    0.00000000    0.00000000
     atom   28 type  1   force =     0.00000000    0.00000000    0.00000000
     atom   29 type  3   force =     0.00000000    0.00000000    0.00000000
     atom   30 type  3   force =     0.00000000    0.00000000    0.00000000
     atom   31 type  2   force =     0.00000000    0.00000000    0.00000000
     atom   32 type  4   force =     0.00000000    0.00000000    0.00000000
     atom   33 type  3   force =     0.00000000    0.00000000    0.00000000
     atom   34 type  3   force =     0.00000000    0.00000000    0.00000000
     atom   35 type  2   force =     0.00000000    0.00000000    0.00000000
     atom   36 type  4   force =     0.00000000    0.00000000    0.00000000
     atom   37 type  1   force =     0.00000000    0.00000000    0.00000000
     atom   38 type  4   force =     0.00000000    0.00000000    0.00000000
     atom   39 type  1   force =     0.00000000    0.00000000    0.00000000
     atom   40 type  1   force =     0.00000000    0.00000000    0.00000000
     atom   41 type  4   force =     0.00000000    0.00000000    0.00000000
     atom   42 type  1   force =     0.00000000    0.00000000    0.00000000
     atom   43 type  3   force =     0.00000000    0.00000000    0.00000000
     atom   44 type  3   force =     0.00000000    0.00000000    0.00000000
     atom   45 type  2   force =     0.00000000    0.00000000    0.00000000
     atom   46 type  4   force =     0.00000000    0.00000000    0.00000000
     atom   47 type  3   force =     0.00000000    0.00000000    0.00000000
     atom   48 type  3   force =     0.00000000    0.00000000    0.00000000
     atom   49 type  2   force =     0.00000000    0.00000000    0.00000000
     atom   50 type  4   force =     0.00000000    0.00000000    0.00000000
     atom   51 type  1   force =     0.00000000    0.00000000    0.00000000
     atom   52 type  4   force =     0.00000000    0.00000000    0.00000000
     atom   53 type  1   force =     0.00000000    0.00000000    0.00000000
     atom   54 type  1   force =     0.00000000    0.00000000    0.00000000
     atom   55 type  4   force =     0.00000000    0.00000000    0.00000000
     atom   56 type  1   force =     0.00000000    0.00000000    0.00000000
     The SCF correction term to forces
     atom    1 type  1   force =     0.00015173    0.00003229   -0.00021162
     atom    2 type  4   force =     0.00024227   -0.00000158   -0.00036091
     atom    3 type  1   force =     0.00063563   -0.00012143   -0.00093164
     atom    4 type  1   force =    -0.00013546    0.00002389    0.00002380
     atom    5 type  4   force =     0.00011730    0.00029963   -0.00009096
     atom    6 type  1   force =     0.00001419    0.00024255   -0.00015501
     atom    7 type  4   force =     0.00017558   -0.00011400   -0.00036771
     atom    8 type  2   force =    -0.00009989   -0.00003243   -0.00005940
     atom    9 type  3   force =    -0.00002827    0.00001352   -0.00001508
     atom   10 type  3   force =    -0.00004066   -0.00000623   -0.00002226
     atom   11 type  4   force =     0.00012468    0.00006069   -0.00006164
     atom   12 type  2   force =     0.00012019    0.00006707    0.00000484
     atom   13 type  3   force =     0.00000874    0.00001363    0.00000566
     atom   14 type  3   force =     0.00002452    0.00002035    0.00002259
     atom   15 type  3   force =     0.00001709   -0.00002151   -0.00002722
     atom   16 type  3   force =     0.00000368   -0.00001317    0.00000612
     atom   17 type  2   force =     0.00008527   -0.00003451    0.00001205
     atom   18 type  4   force =     0.00004861   -0.00011127   -0.00002529
     atom   19 type  3   force =    -0.00001339   -0.00000937    0.00006466
     atom   20 type  3   force =    -0.00002216    0.00001892    0.00004802
     atom   21 type  2   force =    -0.00005960    0.00001951    0.00021320
     atom   22 type  4   force =    -0.00001910    0.00003032    0.00010391
     atom   23 type  1   force =    -0.00016205   -0.00036595   -0.00039067
     atom   24 type  4   force =    -0.00003187   -0.00030785   -0.00049194
     atom   25 type  1   force =    -0.00016739   -0.00006046    0.00002607
     atom   26 type  1   force =     0.00001284   -0.00003858    0.00024743
     atom   27 type  4   force =    -0.00008298    0.00003417    0.00020782
     atom   28 type  1   force =     0.00010112   -0.00004191    0.00018910
     atom   29 type  3   force =    -0.00000793    0.00000395    0.00002654
     atom   30 type  3   force =    -0.00000507    0.00001890    0.00000505
     atom   31 type  2   force =    -0.00007087    0.00008831    0.00000880
     atom   32 type  4   force =    -0.00020595    0.00017356   -0.00006824
     atom   33 type  3   force =     0.00000033    0.00000904   -0.00006132
     atom   34 type  3   force =     0.00000863    0.00004485   -0.00003311
     atom   35 type  2   force =     0.00000702    0.00011849   -0.00018254
     atom   36 type  4   force =     0.00004226   -0.00000149   -0.00011818
     atom   37 type  1   force =    -0.00011378    0.00012298    0.00006558
     atom   38 type  4   force =    -0.00005298   -0.00002894    0.00034457
     atom   39 type  1   force =     0.00011321    0.00012694   -0.00007692
     atom   40 type  1   force =     0.00002330   -0.00000030   -0.00020851
     atom   41 type  4   force =     0.00011478    0.00004933   -0.00015232
     atom   42 type  1   force =    -0.00007827    0.00007919   -0.00014736
     atom   43 type  3   force =    -0.00000549    0.00000023   -0.00002984
     atom   44 type  3   force =     0.00001078   -0.00002023   -0.00000488
     atom   45 type  2   force =    -0.00006236   -0.00004241   -0.00002695
     atom   46 type  4   force =    -0.00015427   -0.00011442    0.00008462
     atom   47 type  3   force =     0.00004362   -0.00001763    0.00002775
     atom   48 type  3   force =     0.00003414   -0.00001864    0.00002882
     atom   49 type  2   force =     0.00011487   -0.00010926    0.00011035
     atom   50 type  4   force =    -0.00020429   -0.00008998    0.00038105
     atom   51 type  1   force =    -0.00001001   -0.00001661    0.00005385
     atom   52 type  4   force =    -0.00007346    0.00004731   -0.00003350
     atom   53 type  1   force =     0.00016293   -0.00012091    0.00002855
     atom   54 type  1   force =    -0.00065876   -0.00016387    0.00092014
     atom   55 type  4   force =    -0.00029740   -0.00003851    0.00031176
     atom   56 type  1   force =    -0.00011868   -0.00007969    0.00021647

     Total force =     1.179828     Total SCF correction =     0.002305


     entering subroutine stress ...

          total   stress  (Ry/bohr**3)                   (kbar)     P=  152.58
   0.00108265   0.00000000   0.00011524        159.26      0.00     16.95
   0.00000000   0.00102159   0.00000000          0.00    150.28      0.00
   0.00011524   0.00000000   0.00100751         16.95      0.00    148.21

     kinetic stress (kbar)  15205.37      0.00    333.73
                                0.00  15600.44      0.00
                              333.73      0.00  15166.89

     local   stress (kbar) -15829.77      0.01   7969.79
                                0.01  -8943.34     -0.01
                             7969.79     -0.01 -11908.39

     nonloc. stress (kbar)   1026.26      0.00     11.33
                                0.00   1038.54      0.00
                               11.33      0.00    998.06

     hartree stress (kbar)   7140.44     -0.01  -2913.42
                               -0.01   5095.28      0.01
                            -2913.42      0.01   5635.64

     exc-cor stress (kbar)  -2192.42      0.00    -10.98
                                0.00  -2211.98      0.00
                              -10.98      0.00  -2197.97

     corecor stress (kbar)  -1137.69      0.00     -2.88
                                0.00  -1140.23      0.00
                               -2.88      0.00  -1137.89

     ewald   stress (kbar)  -4052.93     -0.00  -5370.62
                               -0.00  -9288.44     -0.00
                            -5370.62     -0.00  -6408.13

     hubbard stress (kbar)      0.00      0.00      0.00
                                0.00      0.00      0.00
                                0.00      0.00      0.00

     london  stress (kbar)      0.00      0.00      0.00
                                0.00      0.00      0.00
                                0.00      0.00      0.00

     XDM     stress (kbar)      0.00      0.00      0.00
                                0.00      0.00      0.00
                                0.00      0.00      0.00

     dft-nl  stress (kbar)      0.00      0.00      0.00
                                0.00      0.00      0.00
                                0.00      0.00      0.00

     TS-vdW  stress (kbar)      0.00      0.00      0.00
                                0.00      0.00      0.00
                                0.00      0.00      0.00



     BFGS Geometry Optimization

     number of scf cycles    =   1
     number of bfgs steps    =   0

     energy   new            =   -1281.9720837157 Ry

     new trust radius        =       0.2539715474 bohr
     new conv_thr            =       0.0000010000 Ry


ATOMIC_POSITIONS (crystal)
N       -0.019912186   0.622199682   0.460079695
O        0.273937603   0.719981655   0.435983507
N        0.140312664   0.702256508   0.529644022
N       -0.141811366   0.524955781   0.706148743
O       -0.271004363   0.426860990   0.924646736
N       -0.301246359   0.501740388   0.792970650
O        0.140955562   0.748542300   0.688134759
C       -0.173437650   0.609170792   0.558531460
H       -0.331897494   0.588647596   0.453534084
H       -0.216438620   0.704059288   0.611559231
O       -0.467509500   0.561668978   0.737040453
C       -0.008456752   0.563052475   0.298132831
H       -0.171660951   0.518150274   0.234667589
H       -0.004502129   0.632440914   0.177028928
H        0.495497871  -0.132440914  -0.322971072
H        0.328339049  -0.018150274  -0.265332411
C        0.491543248  -0.063052475  -0.201867169
O        0.032490500  -0.061668978   0.237040453
H        0.283561380  -0.204059288   0.111559231
H        0.168102506  -0.088647596  -0.046465916
C        0.326562350  -0.109170792   0.058531460
O        0.640955562  -0.248542300   0.188134759
N        0.198753641  -0.001740388   0.292970650
O        0.228995637   0.073139010   0.424646736
N        0.358188634  -0.024955781   0.206148743
N        0.640312664  -0.202256508   0.029644022
O        0.773937603  -0.219981655  -0.064016493
N        0.480087814  -0.122199682  -0.039920305
H        0.004502129   0.367559086   0.822971072
H        0.171660951   0.481849726   0.765332411
C        0.008456752   0.436947525   0.701867169
O        0.467509500   0.438331022   0.262959547
H        0.216438620   0.295940712   0.388440769
H        0.331897494   0.411352404   0.546465916
C        0.173437650   0.390829208   0.441468540
O       -0.140955562   0.251457700   0.311865241
N        0.301246359   0.498259612   0.207029350
O        0.271004363   0.573139010   0.075353264
N        0.141811366   0.475044219   0.293851257
N       -0.140312664   0.297743492   0.470355978
O       -0.273937603   0.280018345   0.564016493
N        0.019912186   0.377800318   0.539920305
H        0.504502129   0.132440914   0.322971072
H        0.671660951   0.018150274   0.265332411
C        0.508456752   0.063052475   0.201867169
O        0.967509500   0.061668978  -0.237040453
H        0.716438620   0.204059288  -0.111559231
H        0.831897494   0.088647596   0.046465916
C        0.673437650   0.109170792  -0.058531460
O        0.359044438   0.248542300  -0.188134759
N        0.801246359   0.001740388  -0.292970650
O        0.771004363  -0.073139010  -0.424646736
N        0.641811366   0.024955781  -0.206148743
N        0.359687336   0.202256508  -0.029644022
O        0.226062397   0.219981655   0.064016493
N        0.519912186   0.122199682   0.039920305



     Writing output data file scf.pbe-ec-140-kp444.HMX-792927-nofor.nostress.save
     NEW-OLD atomic charge density approx. for the potential

     total cpu time spent up to now is     1446.0 secs

     per-process dynamical memory:   200.1 Mb

     Self-consistent Calculation

     iteration #  1     ecut=   140.00 Ry     beta=0.70
     Davidson diagonalization with overlap
     ethr =  1.00E-06,  avg # of iterations = 13.0

     total cpu time spent up to now is     1573.2 secs

     total energy              =   -1282.04444738 Ry
     Harris-Foulkes estimate   =   -1282.20067097 Ry
     estimated scf accuracy    <       0.26162796 Ry

     iteration #  2     ecut=   140.00 Ry     beta=0.70
     Davidson diagonalization with overlap
     ethr =  1.17E-04,  avg # of iterations =  4.0

     total cpu time spent up to now is     1641.3 secs

     total energy              =   -1282.07037014 Ry
     Harris-Foulkes estimate   =   -1282.10117683 Ry
     estimated scf accuracy    <       0.05091135 Ry

     iteration #  3     ecut=   140.00 Ry     beta=0.70
     Davidson diagonalization with overlap
     ethr =  2.27E-05,  avg # of iterations =  5.0

     total cpu time spent up to now is     1721.9 secs

     total energy              =   -1282.08040865 Ry
     Harris-Foulkes estimate   =   -1282.09942633 Ry
     estimated scf accuracy    <       0.04155262 Ry

     iteration #  4     ecut=   140.00 Ry     beta=0.70
     Davidson diagonalization with overlap
     ethr =  1.86E-05,  avg # of iterations =  5.0

     total cpu time spent up to now is     1794.8 secs

     total energy              =   -1282.08993440 Ry
     Harris-Foulkes estimate   =   -1282.09278998 Ry
     estimated scf accuracy    <       0.00787877 Ry

     iteration #  5     ecut=   140.00 Ry     beta=0.70
     Davidson diagonalization with overlap
     ethr =  3.52E-06,  avg # of iterations =  7.0

     total cpu time spent up to now is     1856.3 secs

     total energy              =   -1282.09092629 Ry
     Harris-Foulkes estimate   =   -1282.09129441 Ry
     estimated scf accuracy    <       0.00082336 Ry

     iteration #  6     ecut=   140.00 Ry     beta=0.70
     Davidson diagonalization with overlap
     ethr =  3.68E-07,  avg # of iterations =  5.0

     total cpu time spent up to now is     1928.6 secs

     total energy              =   -1282.09137421 Ry
     Harris-Foulkes estimate   =   -1282.09153821 Ry
     estimated scf accuracy    <       0.00048481 Ry

     iteration #  7     ecut=   140.00 Ry     beta=0.70
     Davidson diagonalization with overlap
     ethr =  2.16E-07,  avg # of iterations =  1.0

     total cpu time spent up to now is     1981.6 secs

     total energy              =   -1282.09132696 Ry
     Harris-Foulkes estimate   =   -1282.09139377 Ry
     estimated scf accuracy    <       0.00018450 Ry

     iteration #  8     ecut=   140.00 Ry     beta=0.70
     Davidson diagonalization with overlap
     ethr =  8.24E-08,  avg # of iterations =  5.0

     total cpu time spent up to now is     2048.4 secs

     total energy              =   -1282.09146386 Ry
     Harris-Foulkes estimate   =   -1282.09150472 Ry
     estimated scf accuracy    <       0.00034428 Ry

     iteration #  9     ecut=   140.00 Ry     beta=0.70
     Davidson diagonalization with overlap
     ethr =  8.24E-08,  avg # of iterations =  1.0

     total cpu time spent up to now is     2101.8 secs

     total energy              =   -1282.09135750 Ry
     Harris-Foulkes estimate   =   -1282.09146498 Ry
     estimated scf accuracy    <       0.00027833 Ry

     iteration # 10     ecut=   140.00 Ry     beta=0.70
     Davidson diagonalization with overlap
     ethr =  8.24E-08,  avg # of iterations =  5.0

     total cpu time spent up to now is     2162.7 secs

     total energy              =   -1282.09144094 Ry
     Harris-Foulkes estimate   =   -1282.09146018 Ry
     estimated scf accuracy    <       0.00009917 Ry

     iteration # 11     ecut=   140.00 Ry     beta=0.70
     Davidson diagonalization with overlap
     ethr =  4.43E-08,  avg # of iterations =  1.0

     total cpu time spent up to now is     2216.2 secs

     total energy              =   -1282.09141027 Ry
     Harris-Foulkes estimate   =   -1282.09144184 Ry
     estimated scf accuracy    <       0.00006795 Ry

     iteration # 12     ecut=   140.00 Ry     beta=0.70
     Davidson diagonalization with overlap
     ethr =  3.03E-08,  avg # of iterations =  5.0

     total cpu time spent up to now is     2279.4 secs

     total energy              =   -1282.09144867 Ry
     Harris-Foulkes estimate   =   -1282.09145760 Ry
     estimated scf accuracy    <       0.00008453 Ry

     iteration # 13     ecut=   140.00 Ry     beta=0.70
     Davidson diagonalization with overlap
     ethr =  3.03E-08,  avg # of iterations =  1.0

     total cpu time spent up to now is     2329.3 secs

     total energy              =   -1282.09142344 Ry
     Harris-Foulkes estimate   =   -1282.09144892 Ry
     estimated scf accuracy    <       0.00007003 Ry

     iteration # 14     ecut=   140.00 Ry     beta=0.70
     Davidson diagonalization with overlap
     ethr =  3.03E-08,  avg # of iterations =  5.0

     total cpu time spent up to now is     2387.3 secs

     total energy              =   -1282.09144245 Ry
     Harris-Foulkes estimate   =   -1282.09144529 Ry
     estimated scf accuracy    <       0.00001366 Ry

     iteration # 15     ecut=   140.00 Ry     beta=0.70
     Davidson diagonalization with overlap
     ethr =  6.10E-09,  avg # of iterations =  1.0

     total cpu time spent up to now is     2440.2 secs

     total energy              =   -1282.09143981 Ry
     Harris-Foulkes estimate   =   -1282.09144268 Ry
     estimated scf accuracy    <       0.00000910 Ry

     iteration # 16     ecut=   140.00 Ry     beta=0.70
     Davidson diagonalization with overlap
     ethr =  4.06E-09,  avg # of iterations =  5.0

     total cpu time spent up to now is     2501.4 secs

     total energy              =   -1282.09144356 Ry
     Harris-Foulkes estimate   =   -1282.09144359 Ry
     estimated scf accuracy    <       0.00000278 Ry

     iteration # 17     ecut=   140.00 Ry     beta=0.70
     Davidson diagonalization with overlap
     ethr =  1.24E-09,  avg # of iterations =  1.0

     total cpu time spent up to now is     2552.7 secs

     total energy              =   -1282.09144277 Ry
     Harris-Foulkes estimate   =   -1282.09144358 Ry
     estimated scf accuracy    <       0.00000276 Ry

     iteration # 18     ecut=   140.00 Ry     beta=0.70
     Davidson diagonalization with overlap
     ethr =  1.23E-09,  avg # of iterations =  6.0

     total cpu time spent up to now is     2605.7 secs

     End of self-consistent calculation

          k = 0.0000 0.0000 0.0000 ( 48515 PWs)   bands (ev):

   -23.4927 -23.4532 -23.4176 -23.4016 -23.1927 -23.1918 -23.1904 -23.1705
   -18.9505 -18.9345 -18.7128 -18.7114 -18.6335 -18.5999 -18.4374 -18.4367
   -18.4336 -18.4307 -17.7313 -17.6653 -17.6293 -17.6156 -16.5606 -16.5326
   -12.1295 -12.1166 -12.0875 -12.0233 -11.8263 -11.8172 -11.7672 -11.6002
    -9.7166  -9.6252  -8.6541  -8.6170  -8.1487  -8.1373  -7.1635  -7.1394
    -6.9850  -6.7984  -6.7456  -6.6917  -6.4228  -6.3732  -6.2765  -6.1407
    -6.0916  -6.0605  -6.0363  -6.0125  -5.9669  -5.8393  -5.5208  -5.4975
    -5.1240  -5.0415  -5.0393  -4.9005  -4.8970  -4.7224  -4.7070  -4.6639
    -4.4209  -4.4175  -4.1984  -4.1073  -3.9478  -3.8042  -3.1867  -3.1361
    -2.9604  -2.7870  -2.4895  -2.3765  -1.9397  -1.8955  -1.7749  -1.7414
    -0.8272  -0.7868  -0.2822  -0.2792  -0.1323  -0.0900  -0.0661   0.0773
     0.0829   0.1152   0.2175   0.2301   0.2450   0.2520   0.3839   0.4226
     0.4307   0.4797   0.7180   0.7265   0.8843   0.9219   0.9908   1.0072
     1.0889   1.0903   1.1503   1.1744   1.3104   1.4659   1.5309   1.5586

     occupation numbers 
     1.0000   1.0000   1.0000   1.0000   1.0000   1.0000   1.0000   1.0000
     1.0000   1.0000   1.0000   1.0000   1.0000   1.0000   1.0000   1.0000
     1.0000   1.0000   1.0000   1.0000   1.0000   1.0000   1.0000   1.0000
     1.0000   1.0000   1.0000   1.0000   1.0000   1.0000   1.0000   1.0000
     1.0000   1.0000   1.0000   1.0000   1.0000   1.0000   1.0000   1.0000
     1.0000   1.0000   1.0000   1.0000   1.0000   1.0000   1.0000   1.0000
     1.0000   1.0000   1.0000   1.0000   1.0000   1.0000   1.0000   1.0000
     1.0000   1.0000   1.0000   1.0000   1.0000   1.0000   1.0000   1.0000
     1.0000   1.0000   1.0000   1.0000   1.0000   1.0000   1.0000   1.0000
     1.0000   1.0000   1.0000   1.0000   1.0000   1.0000   1.0000   1.0000
     1.0000   1.0000   1.0000   1.0000   1.0000   1.0000   1.0000   1.0000
     1.0000   1.0000   1.0000   1.0000   1.0000   1.0000   1.0000   1.0000
     1.0000   1.0000   1.0000   1.0000   1.0000   1.0000   1.0000   1.0000
     1.0000   1.0000   1.0000   1.0000   1.0000   1.0000   1.0000   1.0000

     highest occupied level (ev):     1.5586

!    total energy              =   -1282.09144297 Ry
     Harris-Foulkes estimate   =   -1282.09144307 Ry
     estimated scf accuracy    <       0.00000010 Ry

     total all-electron energy =     -4786.535191 Ry

     The total energy is the sum of the following terms:

     one-electron contribution =    -633.93364242 Ry
     hartree contribution      =     415.33374142 Ry
     xc contribution           =    -258.45767194 Ry
     ewald contribution        =    -474.67814891 Ry
     one-center paw contrib.   =    -330.35572112 Ry

     convergence has been achieved in  18 iterations

     Forces acting on atoms (Ry/au):

     atom    1 type  1   force =     0.07123509    0.02194562    0.04517782
     atom    2 type  4   force =    -0.00467709   -0.00325954   -0.00202715
     atom    3 type  1   force =     0.01560966    0.05189017    0.07986744
     atom    4 type  1   force =    -0.00407648    0.00232819    0.00556089
     atom    5 type  4   force =     0.00394001    0.01615018   -0.02078542
     atom    6 type  1   force =    -0.05416058   -0.00808447    0.02182216
     atom    7 type  4   force =     0.01310300   -0.02356819   -0.05505245
     atom    8 type  2   force =    -0.22891062    0.13015177   -0.04145816
     atom    9 type  3   force =     0.05633516    0.00162051    0.03538165
     atom   10 type  3   force =     0.03273144   -0.06059504   -0.01487134
     atom   11 type  4   force =     0.01811395   -0.01433711    0.00150937
     atom   12 type  2   force =    -0.12444857    0.04611551   -0.24946430
     atom   13 type  3   force =     0.04309728    0.03024933    0.03894536
     atom   14 type  3   force =    -0.00437206   -0.04537125    0.05931882
     atom   15 type  3   force =    -0.00437206    0.04537125    0.05931882
     atom   16 type  3   force =     0.04309728   -0.03024933    0.03894536
     atom   17 type  2   force =    -0.12444857   -0.04611551   -0.24946430
     atom   18 type  4   force =     0.01811395    0.01433711    0.00150937
     atom   19 type  3   force =     0.03273144    0.06059504   -0.01487134
     atom   20 type  3   force =     0.05633516   -0.00162051    0.03538165
     atom   21 type  2   force =    -0.22891062   -0.13015177   -0.04145816
     atom   22 type  4   force =     0.01310300    0.02356819   -0.05505245
     atom   23 type  1   force =    -0.05416058    0.00808447    0.02182216
     atom   24 type  4   force =     0.00394001   -0.01615018   -0.02078542
     atom   25 type  1   force =    -0.00407648   -0.00232819    0.00556089
     atom   26 type  1   force =     0.01560966   -0.05189017    0.07986744
     atom   27 type  4   force =    -0.00467709    0.00325954   -0.00202715
     atom   28 type  1   force =     0.07123509   -0.02194562    0.04517782
     atom   29 type  3   force =     0.00437206    0.04537125   -0.05931882
     atom   30 type  3   force =    -0.04309728   -0.03024933   -0.03894536
     atom   31 type  2   force =     0.12444857   -0.04611551    0.24946430
     atom   32 type  4   force =    -0.01811395    0.01433711   -0.00150937
     atom   33 type  3   force =    -0.03273144    0.06059504    0.01487134
     atom   34 type  3   force =    -0.05633516   -0.00162051   -0.03538165
     atom   35 type  2   force =     0.22891062   -0.13015177    0.04145816
     atom   36 type  4   force =    -0.01310300    0.02356819    0.05505245
     atom   37 type  1   force =     0.05416058    0.00808447   -0.02182216
     atom   38 type  4   force =    -0.00394001   -0.01615018    0.02078542
     atom   39 type  1   force =     0.00407648   -0.00232819   -0.00556089
     atom   40 type  1   force =    -0.01560966   -0.05189017   -0.07986744
     atom   41 type  4   force =     0.00467709    0.00325954    0.00202715
     atom   42 type  1   force =    -0.07123509   -0.02194562   -0.04517782
     atom   43 type  3   force =     0.00437206   -0.04537125   -0.05931882
     atom   44 type  3   force =    -0.04309728    0.03024933   -0.03894536
     atom   45 type  2   force =     0.12444857    0.04611551    0.24946430
     atom   46 type  4   force =    -0.01811395   -0.01433711   -0.00150937
     atom   47 type  3   force =    -0.03273144   -0.06059504    0.01487134
     atom   48 type  3   force =    -0.05633516    0.00162051   -0.03538165
     atom   49 type  2   force =     0.22891062    0.13015177    0.04145816
     atom   50 type  4   force =    -0.01310300   -0.02356819    0.05505245
     atom   51 type  1   force =     0.05416058   -0.00808447   -0.02182216
     atom   52 type  4   force =    -0.00394001    0.01615018    0.02078542
     atom   53 type  1   force =     0.00407648    0.00232819   -0.00556089
     atom   54 type  1   force =    -0.01560966    0.05189017   -0.07986744
     atom   55 type  4   force =     0.00467709   -0.00325954    0.00202715
     atom   56 type  1   force =    -0.07123509    0.02194562   -0.04517782
     The non-local contrib.  to forces
     atom    1 type  1   force =     0.33143320    0.11199325    0.28628187
     atom    2 type  4   force =    -2.42427225   -0.46708703    1.48709688
     atom    3 type  1   force =     0.09082032   -0.02238689    0.01738658
     atom    4 type  1   force =    -0.57027202   -0.45315342   -0.30304470
     atom    5 type  4   force =     0.17704820    1.83232328   -2.17315624
     atom    6 type  1   force =     0.04663895    0.09365449    0.05167586
     atom    7 type  4   force =     0.50846718   -1.10968465   -2.49982830
     atom    8 type  2   force =     0.27638049   -0.20676450    0.07580095
     atom    9 type  3   force =     0.04994379    0.00970568    0.04045650
     atom   10 type  3   force =     0.02233619   -0.05900743   -0.02065737
     atom   11 type  4   force =     2.21871941   -1.41781669    0.83960160
     atom   12 type  2   force =     0.14761071   -0.06878270    0.27785604
     atom   13 type  3   force =     0.05146206    0.02626359    0.02892669
     atom   14 type  3   force =    -0.01012596   -0.04158589    0.04876453
     atom   15 type  3   force =    -0.01012596    0.04158589    0.04876453
     atom   16 type  3   force =     0.05146206   -0.02626359    0.02892669
     atom   17 type  2   force =     0.14761071    0.06878270    0.27785604
     atom   18 type  4   force =     2.21871941    1.41781669    0.83960160
     atom   19 type  3   force =     0.02233619    0.05900743   -0.02065737
     atom   20 type  3   force =     0.04994379   -0.00970568    0.04045650
     atom   21 type  2   force =     0.27638049    0.20676450    0.07580095
     atom   22 type  4   force =     0.50846718    1.10968465   -2.49982830
     atom   23 type  1   force =     0.04663895   -0.09365449    0.05167586
     atom   24 type  4   force =     0.17704820   -1.83232328   -2.17315624
     atom   25 type  1   force =    -0.57027202    0.45315342   -0.30304470
     atom   26 type  1   force =     0.09082032    0.02238689    0.01738658
     atom   27 type  4   force =    -2.42427225    0.46708703    1.48709688
     atom   28 type  1   force =     0.33143320   -0.11199325    0.28628187
     atom   29 type  3   force =     0.01012596    0.04158589   -0.04876453
     atom   30 type  3   force =    -0.05146206   -0.02626359   -0.02892669
     atom   31 type  2   force =    -0.14761071    0.06878270   -0.27785604
     atom   32 type  4   force =    -2.21871941    1.41781669   -0.83960160
     atom   33 type  3   force =    -0.02233619    0.05900743    0.02065737
     atom   34 type  3   force =    -0.04994379   -0.00970568   -0.04045650
     atom   35 type  2   force =    -0.27638049    0.20676450   -0.07580095
     atom   36 type  4   force =    -0.50846718    1.10968465    2.49982830
     atom   37 type  1   force =    -0.04663895   -0.09365449   -0.05167586
     atom   38 type  4   force =    -0.17704820   -1.83232328    2.17315624
     atom   39 type  1   force =     0.57027202    0.45315342    0.30304470
     atom   40 type  1   force =    -0.09082032    0.02238689   -0.01738658
     atom   41 type  4   force =     2.42427225    0.46708703   -1.48709688
     atom   42 type  1   force =    -0.33143320   -0.11199325   -0.28628187
     atom   43 type  3   force =     0.01012596   -0.04158589   -0.04876453
     atom   44 type  3   force =    -0.05146206    0.02626359   -0.02892669
     atom   45 type  2   force =    -0.14761071   -0.06878270   -0.27785604
     atom   46 type  4   force =    -2.21871941   -1.41781669   -0.83960160
     atom   47 type  3   force =    -0.02233619   -0.05900743    0.02065737
     atom   48 type  3   force =    -0.04994379    0.00970568   -0.04045650
[...]
     The Hubbard contrib.    to forces
     atom    1 type  1   force =     0.00000000    0.00000000    0.00000000
     atom    2 type  4   force =     0.00000000    0.00000000    0.00000000
     atom    3 type  1   force =     0.00000000    0.00000000    0.00000000
     atom    4 type  1   force =     0.00000000    0.00000000    0.00000000
     atom    5 type  4   force =     0.00000000    0.00000000    0.00000000
     atom    6 type  1   force =     0.00000000    0.00000000    0.00000000
     atom    7 type  4   force =     0.00000000    0.00000000    0.00000000
     atom    8 type  2   force =     0.00000000    0.00000000    0.00000000
     atom    9 type  3   force =     0.00000000    0.00000000    0.00000000
     atom   10 type  3   force =     0.00000000    0.00000000    0.00000000
     atom   11 type  4   force =     0.00000000    0.00000000    0.00000000
     atom   12 type  2   force =     0.00000000    0.00000000    0.00000000
     atom   13 type  3   force =     0.00000000    0.00000000    0.00000000
     atom   14 type  3   force =     0.00000000    0.00000000    0.00000000
     atom   15 type  3   force =     0.00000000    0.00000000    0.00000000
     atom   16 type  3   force =     0.00000000    0.00000000    0.00000000
     atom   17 type  2   force =     0.00000000    0.00000000    0.00000000
     atom   18 type  4   force =     0.00000000    0.00000000    0.00000000
     atom   19 type  3   force =     0.00000000    0.00000000    0.00000000
     atom   20 type  3   force =     0.00000000    0.00000000    0.00000000
     atom   21 type  2   force =     0.00000000    0.00000000    0.00000000
     atom   22 type  4   force =     0.00000000    0.00000000    0.00000000
     atom   23 type  1   force =     0.00000000    0.00000000    0.00000000
     atom   24 type  4   force =     0.00000000    0.00000000    0.00000000
     atom   25 type  1   force =     0.00000000    0.00000000    0.00000000
     atom   26 type  1   force =     0.00000000    0.00000000    0.00000000
     atom   27 type  4   force =     0.00000000    0.00000000    0.00000000
     atom   28 type  1   force =     0.00000000    0.00000000    0.00000000
     atom   29 type  3   force =     0.00000000    0.00000000    0.00000000
     atom   30 type  3   force =     0.00000000    0.00000000    0.00000000
     atom   31 type  2   force =     0.00000000    0.00000000    0.00000000
     atom   32 type  4   force =     0.00000000    0.00000000    0.00000000
     atom   33 type  3   force =     0.00000000    0.00000000    0.00000000
     atom   34 type  3   force =     0.00000000    0.00000000    0.00000000
     atom   35 type  2   force =     0.00000000    0.00000000    0.00000000
     atom   36 type  4   force =     0.00000000    0.00000000    0.00000000
     atom   37 type  1   force =     0.00000000    0.00000000    0.00000000
     atom   38 type  4   force =     0.00000000    0.00000000    0.00000000
     atom   39 type  1   force =     0.00000000    0.00000000    0.00000000
     atom   40 type  1   force =     0.00000000    0.00000000    0.00000000
     atom   41 type  4   force =     0.00000000    0.00000000    0.00000000
     atom   42 type  1   force =     0.00000000    0.00000000    0.00000000
     atom   43 type  3   force =     0.00000000    0.00000000    0.00000000
     atom   44 type  3   force =     0.00000000    0.00000000    0.00000000
     atom   45 type  2   force =     0.00000000    0.00000000    0.00000000
     atom   46 type  4   force =     0.00000000    0.00000000    0.00000000
     atom   47 type  3   force =     0.00000000    0.00000000    0.00000000
     atom   48 type  3   force =     0.00000000    0.00000000    0.00000000
     atom   49 type  2   force =     0.00000000    0.00000000    0.00000000
     atom   50 type  4   force =     0.00000000    0.00000000    0.00000000
     atom   51 type  1   force =     0.00000000    0.00000000    0.00000000
     atom   52 type  4   force =     0.00000000    0.00000000    0.00000000
     atom   53 type  1   force =     0.00000000    0.00000000    0.00000000
     atom   54 type  1   force =     0.00000000    0.00000000    0.00000000
     atom   55 type  4   force =     0.00000000    0.00000000    0.00000000
     atom   56 type  1   force =     0.00000000    0.00000000    0.00000000
     The SCF correction term to forces
     atom    1 type  1   force =    -0.00000787   -0.00000421    0.00000190
     atom    2 type  4   force =     0.00000661   -0.00000689    0.00000867
     atom    3 type  1   force =    -0.00000292   -0.00000521    0.00001236
     atom    4 type  1   force =    -0.00001005    0.00001104   -0.00002832
     atom    5 type  4   force =    -0.00001893    0.00001032   -0.00001631
     atom    6 type  1   force =    -0.00005925    0.00006153   -0.00007872
     atom    7 type  4   force =     0.00000760   -0.00000211    0.00000256
     atom    8 type  2   force =    -0.00001143   -0.00000580   -0.00000781
     atom    9 type  3   force =    -0.00000354   -0.00000384   -0.00000003
     atom   10 type  3   force =    -0.00000125   -0.00000492   -0.00000131
     atom   11 type  4   force =    -0.00002575    0.00001842   -0.00003829
     atom   12 type  2   force =    -0.00001020    0.00000432    0.00001290
     atom   13 type  3   force =    -0.00000404    0.00000085    0.00000448
     atom   14 type  3   force =    -0.00000361    0.00000248    0.00000288
     atom   15 type  3   force =    -0.00000357   -0.00000245    0.00000228
     atom   16 type  3   force =    -0.00000373   -0.00000066    0.00000430
     atom   17 type  2   force =    -0.00001047   -0.00000364    0.00001225
     atom   18 type  4   force =    -0.00002265   -0.00001774   -0.00003498
     atom   19 type  3   force =    -0.00000077    0.00000486   -0.00000050
     atom   20 type  3   force =    -0.00000305    0.00000391    0.00000030
     atom   21 type  2   force =    -0.00000963    0.00000565   -0.00000563
     atom   22 type  4   force =     0.00000497    0.00000172    0.00000655
     atom   23 type  1   force =    -0.00005555   -0.00006097   -0.00007555
     atom   24 type  4   force =    -0.00001728   -0.00001128   -0.00001625
     atom   25 type  1   force =    -0.00000918   -0.00001176   -0.00002580
     atom   26 type  1   force =    -0.00000977    0.00000381    0.00002103
     atom   27 type  4   force =     0.00000211    0.00000612    0.00001141
     atom   28 type  1   force =    -0.00000829    0.00000401    0.00000400
     atom   29 type  3   force =     0.00000346   -0.00000256   -0.00000269
     atom   30 type  3   force =     0.00000398   -0.00000039   -0.00000444
     atom   31 type  2   force =     0.00000995   -0.00000366   -0.00001286
     atom   32 type  4   force =     0.00002298   -0.00001681    0.00003758
     atom   33 type  3   force =     0.00000173    0.00000497    0.00000066
     atom   34 type  3   force =     0.00000373    0.00000419   -0.00000016
     atom   35 type  2   force =     0.00001227    0.00000686    0.00000678
     atom   36 type  4   force =    -0.00000812    0.00000216   -0.00000128
     atom   37 type  1   force =     0.00005820   -0.00006086    0.00007710
     atom   38 type  4   force =     0.00002001   -0.00001041    0.00001689
     atom   39 type  1   force =     0.00001128   -0.00001052    0.00002680
     atom   40 type  1   force =    -0.00000381    0.00000646   -0.00000381
     atom   41 type  4   force =    -0.00000918    0.00000611   -0.00000686
     atom   42 type  1   force =     0.00000683    0.00000574   -0.00000084
     atom   43 type  3   force =     0.00000335    0.00000241   -0.00000245
     atom   44 type  3   force =     0.00000359    0.00000014   -0.00000418
     atom   45 type  2   force =     0.00000916    0.00000269   -0.00001190
     atom   46 type  4   force =     0.00002353    0.00001845    0.00003528
     atom   47 type  3   force =     0.00000140   -0.00000489    0.00000038
     atom   48 type  3   force =     0.00000338   -0.00000401   -0.00000018
     atom   49 type  2   force =     0.00001078   -0.00000628    0.00000617
     atom   50 type  4   force =    -0.00000671   -0.00000199   -0.00000238
     atom   51 type  1   force =     0.00005572    0.00005970    0.00007234
     atom   52 type  4   force =     0.00001800    0.00000913    0.00001184
     atom   53 type  1   force =     0.00000915    0.00001168    0.00002598
     atom   54 type  1   force =    -0.00000001   -0.00000601   -0.00000787
     atom   55 type  4   force =    -0.00000698   -0.00000630   -0.00000675
     atom   56 type  1   force =     0.00000644   -0.00000597   -0.00000153

     Total force =     0.011275     Total SCF correction =     0.000266


     entering subroutine stress ...

          total   stress  (Ry/bohr**3)                   (kbar)     P=   17.44
   0.00012340   0.00000000   0.00000957         18.15      0.00      1.41
   0.00000000   0.00011283   0.00000000          0.00     16.60      0.00
   0.00000957   0.00000000   0.00011934          1.41      0.00     17.56

     kinetic stress (kbar)  14982.04      0.00    289.11
                                0.00  15447.44      0.00
                              289.11      0.00  14935.54

     local   stress (kbar) -16122.64     -0.00   6522.57
                               -0.00  -7440.53     -0.00
                             6522.57     -0.00 -11507.40

     nonloc. stress (kbar)   1044.24      0.00      4.40
                                0.00   1059.34      0.00
                                4.40      0.00   1012.70

     hartree stress (kbar)   7255.03      0.00  -2376.62
                                0.00   4496.80      0.00
                            -2376.62      0.00   5429.86

     exc-cor stress (kbar)  -2163.85     -0.00     -8.99
                               -0.00  -2185.97      0.00
                               -8.99      0.00  -2169.57

     corecor stress (kbar)  -1133.16     -0.00     -2.26
                               -0.00  -1135.70     -0.00
                               -2.26     -0.00  -1133.64

     ewald   stress (kbar)  -3843.51     -0.00  -4426.80
                               -0.00 -10224.78     -0.00
                            -4426.80     -0.00  -6549.93

     hubbard stress (kbar)      0.00      0.00      0.00
                                0.00      0.00      0.00
                                0.00      0.00      0.00

     london  stress (kbar)      0.00      0.00      0.00
                                0.00      0.00      0.00
                                0.00      0.00      0.00

     XDM     stress (kbar)      0.00      0.00      0.00
                                0.00      0.00      0.00
                                0.00      0.00      0.00

     dft-nl  stress (kbar)      0.00      0.00      0.00
                                0.00      0.00      0.00
                                0.00      0.00      0.00

     TS-vdW  stress (kbar)      0.00      0.00      0.00
                                0.00      0.00      0.00
                                0.00      0.00      0.00



     number of scf cycles    =  20
     number of bfgs steps    =  19

     energy   old            =   -1282.3952231016 Ry
     energy   new            =   -1282.3954692052 Ry

     CASE: energy  _new < energy  _old

     new trust radius        =       0.0126803405 bohr
     new conv_thr            =       0.0000000217 Ry


ATOMIC_POSITIONS (crystal)
N       -0.021623757   0.623647421   0.456790862
O        0.273235895   0.719395983   0.429532658
N        0.142254609   0.702589472   0.527085655
N       -0.137043564   0.527019791   0.711983281
O       -0.275130483   0.421666669   0.920483124
N       -0.306685398   0.493681562   0.787844672
O        0.147124783   0.746476466   0.683087580
C       -0.188675481   0.615375609   0.555912512
H       -0.329145047   0.586045275   0.455432731
H       -0.214211155   0.704333071   0.613383967
O       -0.477791911   0.543556583   0.719112719
C       -0.028346775   0.562669685   0.278950504
H       -0.183075340   0.518320940   0.238410902
H       -0.011961376   0.628365281   0.171334293
H        0.488038624  -0.128365281  -0.328665707
H        0.316924660  -0.018320940  -0.261589098
C        0.471653225  -0.062669685  -0.221049496
O        0.022208089  -0.043556583   0.219112719
H        0.285788845  -0.204333071   0.113383967
H        0.170854953  -0.086045275  -0.044567269
C        0.311324519  -0.115375609   0.055912512
O        0.647124783  -0.246476466   0.183087580
N        0.193314602   0.006318438   0.287844672
O        0.224869517   0.078333331   0.420483124
N        0.362956436  -0.027019791   0.211983281
N        0.642254609  -0.202589472   0.027085655
O        0.773235895  -0.219395983  -0.070467342
N        0.478376243  -0.123647421  -0.043209138
H        0.011961376   0.371634719   0.828665707
H        0.183075340   0.481679060   0.761589098
C        0.028346775   0.437330315   0.721049496
O        0.477791911   0.456443417   0.280887281
H        0.214211155   0.295666929   0.386616033
H        0.329145047   0.413954725   0.544567269
C        0.188675481   0.384624391   0.444087488
O       -0.147124783   0.253523534   0.316912420
N        0.306685398   0.506318438   0.212155328
O        0.275130483   0.578333331   0.079516876
N        0.137043564   0.472980209   0.288016719
N       -0.142254609   0.297410528   0.472914345
O       -0.273235895   0.280604017   0.570467342
N        0.021623757   0.376352579   0.543209138
H        0.511961376   0.128365281   0.328665707
H        0.683075340   0.018320940   0.261589098
C        0.528346775   0.062669685   0.221049496
O        0.977791911   0.043556583  -0.219112719
H        0.714211155   0.204333071  -0.113383967
H        0.829145047   0.086045275   0.044567269
C        0.688675481   0.115375609  -0.055912512
O        0.352875217   0.246476466  -0.183087580
N        0.806685398  -0.006318438  -0.287844672
O        0.775130483  -0.078333331  -0.420483124
N        0.637043564   0.027019791  -0.211983281
N        0.357745391   0.202589472  -0.027085655
O        0.226764105   0.219395983   0.070467342
N        0.521623757   0.123647421   0.043209138



     Writing output data file scf.pbe-ec-140-kp444.HMX-792927-nofor.nostress.save
     NEW-OLD atomic charge density approx. for the potential

     total cpu time spent up to now is    33076.3 secs

     per-process dynamical memory:   200.1 Mb

     Self-consistent Calculation

     iteration #  1     ecut=   140.00 Ry     beta=0.70
     Davidson diagonalization with overlap
     ethr =  1.00E-06,  avg # of iterations =  4.0

     total cpu time spent up to now is    33249.7 secs

     total energy              =   -1282.39563897 Ry
     Harris-Foulkes estimate   =   -1282.39808854 Ry
     estimated scf accuracy    <       0.00025047 Ry

     iteration #  2     ecut=   140.00 Ry     beta=0.70
     Davidson diagonalization with overlap
     ethr =  1.12E-07,  avg # of iterations =  4.0

     total cpu time spent up to now is    33390.1 secs

     total energy              =   -1282.39562278 Ry
     Harris-Foulkes estimate   =   -1282.39573235 Ry
     estimated scf accuracy    <       0.00021500 Ry

     iteration #  3     ecut=   140.00 Ry     beta=0.70
     Davidson diagonalization with overlap
     ethr =  9.60E-08,  avg # of iterations =  5.0

     total cpu time spent up to now is    33526.9 secs

     total energy              =   -1282.39567550 Ry
     Harris-Foulkes estimate   =   -1282.39571146 Ry
     estimated scf accuracy    <       0.00010254 Ry

     iteration #  4     ecut=   140.00 Ry     beta=0.70
     Davidson diagonalization with overlap
     ethr =  4.58E-08,  avg # of iterations =  1.0

     total cpu time spent up to now is    33633.8 secs

     total energy              =   -1282.39566365 Ry
     Harris-Foulkes estimate   =   -1282.39567947 Ry
     estimated scf accuracy    <       0.00003929 Ry

     iteration #  5     ecut=   140.00 Ry     beta=0.70
     Davidson diagonalization with overlap
     ethr =  1.75E-08,  avg # of iterations =  5.0

     total cpu time spent up to now is    33780.1 secs

     total energy              =   -1282.39570054 Ry
     Harris-Foulkes estimate   =   -1282.39571059 Ry
     estimated scf accuracy    <       0.00008464 Ry

     iteration #  6     ecut=   140.00 Ry     beta=0.70
     Davidson diagonalization with overlap
     ethr =  1.75E-08,  avg # of iterations =  1.0

     total cpu time spent up to now is    33886.8 secs

     total energy              =   -1282.39568093 Ry
     Harris-Foulkes estimate   =   -1282.39570078 Ry
     estimated scf accuracy    <       0.00006848 Ry

     Program stopped by user request
     Calculation stopped in scf loop at iteration #     6

     Writing output data file scf.pbe-ec-140-kp444.HMX-792927-nofor.nostress.save

     init_run     :    113.82s CPU    117.28s WALL (       1 calls)
     electrons    :  14836.63s CPU  24390.50s WALL (      21 calls)
     update_pot   :   1859.99s CPU   2538.58s WALL (      20 calls)
     forces       :   1718.15s CPU   1956.64s WALL (      20 calls)
     stress       :   3721.13s CPU   4374.18s WALL (      20 calls)

     Called by init_run:
     wfcinit      :     11.67s CPU     12.41s WALL (       1 calls)
     potinit      :     36.66s CPU     37.19s WALL (       1 calls)

     Called by electrons:
     c_bands      :   7032.30s CPU  11485.34s WALL (     299 calls)
     sum_band     :   4403.42s CPU   7632.65s WALL (     299 calls)
     v_of_rho     :   1340.39s CPU   1935.27s WALL (     320 calls)
     v_h          :    145.15s CPU    220.02s WALL (     320 calls)
     v_xc         :   1354.07s CPU   1893.14s WALL (     360 calls)
     newd         :   1623.14s CPU   2546.09s WALL (     320 calls)
     PAW_pot      :    231.40s CPU    319.45s WALL (     340 calls)
     mix_rho      :    253.81s CPU    383.13s WALL (     299 calls)

     Called by c_bands:
     init_us_2    :     55.56s CPU     71.38s WALL (     619 calls)
     regterg      :   6971.13s CPU  11384.03s WALL (     299 calls)

     Called by sum_band:
     sum_band:bec :      0.16s CPU      0.15s WALL (     319 calls)
     addusdens    :   2802.60s CPU   5209.51s WALL (     299 calls)

     Called by *egterg:
     h_psi        :   5099.01s CPU   8361.08s WALL (    1508 calls)
     s_psi        :    408.76s CPU    520.06s WALL (    1508 calls)
     g_psi        :      7.65s CPU     12.28s WALL (    1208 calls)
     rdiaghg      :    160.19s CPU    436.70s WALL (    1487 calls)
     regterg:over :    495.51s CPU    836.71s WALL (    1208 calls)
     regterg:upda :    289.66s CPU    364.39s WALL (    1208 calls)
     regterg:last :    161.63s CPU    210.39s WALL (     327 calls)

     Called by h_psi:
     h_psi:vloc   :   4154.97s CPU   6991.41s WALL (    1508 calls)
     h_psi:vnl    :    916.58s CPU   1336.36s WALL (    1508 calls)
     add_vuspsi   :    408.81s CPU    530.13s WALL (    1508 calls)

     General routines
     calbec       :    747.20s CPU   1163.94s WALL (    1927 calls)
     fft          :   1681.89s CPU   2694.45s WALL (    5558 calls)
     ffts         :     35.93s CPU     69.30s WALL (     619 calls)
     fftw         :   2708.11s CPU   5758.28s WALL (  113438 calls)
     interpolate  :    252.72s CPU    376.37s WALL (     619 calls)
     davcio       :      0.66s CPU     26.00s WALL (      33 calls)

     Parallel routines
     fft_scatter  :   2539.29s CPU   6210.09s WALL (  119615 calls)

     PAW routines
     PAW_pot      :    231.40s CPU    319.45s WALL (     340 calls)
     PAW_symme    :      2.18s CPU     10.67s WALL (     639 calls)

     PWSCF        :     6h13m CPU        9h26m WALL


   This run was terminated on:  17: 7:52  24May2016            

=------------------------------------------------------------------------------=
   JOB DONE.
=------------------------------------------------------------------------------=
