
     Program PWSCF v.5.3.0 (svn rev. 11974) starts on  1Jun2016 at  0:27:19 

     This program is part of the open-source Quantum ESPRESSO suite
     for quantum simulation of materials; please cite
         "P. Giannozzi et al., J. Phys.:Condens. Matter 21 395502 (2009);
          URL http://www.quantum-espresso.org", 
     in publications or presentations arising from this work. More details at
     http://www.quantum-espresso.org/quote

     Parallel version (MPI), running on     8 processors
     R & G space division:  proc/nbgrp/npool/nimage =       8
     Waiting for input...
     Reading input from standard input
Warning: card    &IONS ignored
Warning: card TRUST_RADIUS_MAX=0.2 ignored
Warning: card / ignored
Warning: card     &CELL ignored
Warning: card CELL_DYNAMICS='BFGS' ignored
Warning: card / ignored

     Current dimensions of program PWSCF are:
     Max number of different atomic species (ntypx) = 10
     Max number of k-points (npk) =  40000
     Max angular momentum in pseudopotentials (lmaxx) =  3
               file N.pbe-n-kjpaw_psl.1.0.0.UPF: wavefunction(s)  2S renormalized
               file C.pbe-n-kjpaw_psl.1.0.0.UPF: wavefunction(s)  2S 2P renormalized
               file H.pbe-kjpaw_psl.1.0.0.UPF: wavefunction(s)  1S renormalized
               file O.pbe-n-kjpaw_psl.1.0.0.UPF: wavefunction(s)  2S 2P renormalized

     Subspace diagonalization in iterative solution of the eigenvalue problem:
     a serial algorithm will be used


     Parallelization info
     --------------------
     sticks:   dense  smooth     PW     G-vecs:    dense   smooth      PW
     Min        5053    2022    527               649693   164351   21919
     Max        5054    2023    528               649696   164378   21922
     Sum       40427   16183   4223              5197551  1314913  175371


     Title: 
     HMX-scf--kp-444-ec-200-default-conv-thr                                    


     bravais-lattice index     =            0
     lattice parameter (alat)  =       1.8897  a.u.
     unit-cell volume          =    3441.1511 (a.u.)^3
     number of atoms/cell      =           56
     number of atomic types    =            4
     number of electrons       =       224.00
     number of Kohn-Sham states=          112
     kinetic-energy cutoff     =     200.0000  Ry
     charge density cutoff     =    2000.0000  Ry
     convergence threshold     =      1.0E-06
     mixing beta               =       0.7000
     number of iterations used =            8  plain     mixing
     Exchange-correlation      =  SLA  PW   PBX  PBC ( 1  4  3  4 0 0)

     celldm(1)=   1.889726  celldm(2)=   0.000000  celldm(3)=   0.000000
     celldm(4)=   0.000000  celldm(5)=   0.000000  celldm(6)=   0.000000

     crystal axes: (cart. coord. in units of alat)
               a(1) = (   6.520600   0.000000   0.000000 )  
               a(2) = (   0.000000  10.912300   0.000000 )  
               a(3) = (  -1.584431   0.000000   7.166438 )  

     reciprocal axes: (cart. coord. in units 2 pi/alat)
               b(1) = (  0.153360 -0.000000  0.033906 )  
               b(2) = (  0.000000  0.091640 -0.000000 )  
               b(3) = (  0.000000  0.000000  0.139539 )  


     PseudoPot. # 1 for  N read from file:
     /users/majewski/.data/PSEUDOPOTENTIALS/N.pbe-n-kjpaw_psl.1.0.0.UPF
     MD5 check sum: c21df8f53e59d08c3548513d559cdda6
     Pseudo is Projector augmented-wave + core cor, Zval =  5.0
     Generated using "atomic" code by A. Dal Corso  v.5.3.0 svn rev. 11974
     Shape of augmentation charge: PSQ
     Using radial grid of 1085 points,  4 beta functions with: 
                l(1) =   0
                l(2) =   0
                l(3) =   1
                l(4) =   1
     Q(r) pseudized with 0 coefficients 


     PseudoPot. # 2 for  C read from file:
     /users/majewski/.data/PSEUDOPOTENTIALS/C.pbe-n-kjpaw_psl.1.0.0.UPF
     MD5 check sum: 2ba8448e293caca687844dde9a1b88a8
     Pseudo is Projector augmented-wave + core cor, Zval =  4.0
     Generated using "atomic" code by A. Dal Corso  v.5.3.0 svn rev. 11974
     Shape of augmentation charge: PSQ
     Using radial grid of 1073 points,  4 beta functions with: 
                l(1) =   0
                l(2) =   0
                l(3) =   1
                l(4) =   1
     Q(r) pseudized with 0 coefficients 


     PseudoPot. # 3 for  H read from file:
     /users/majewski/.data/PSEUDOPOTENTIALS/H.pbe-kjpaw_psl.1.0.0.UPF
     MD5 check sum: bc0feb48a24907a0b97fa6ee2d589a29
     Pseudo is Projector augmented-wave, Zval =  1.0
     Generated using "atomic" code by A. Dal Corso  v.5.3.0 svn rev. 11974
     Shape of augmentation charge: PSQ
     Using radial grid of  929 points,  2 beta functions with: 
                l(1) =   0
                l(2) =   0
     Q(r) pseudized with 0 coefficients 


     PseudoPot. # 4 for  O read from file:
     /users/majewski/.data/PSEUDOPOTENTIALS/O.pbe-n-kjpaw_psl.1.0.0.UPF
     MD5 check sum: 9c0ade6c043cf4a781bde3908a3a8206
     Pseudo is Projector augmented-wave + core cor, Zval =  6.0
     Generated using "atomic" code by A. Dal Corso  v.5.3.0 svn rev. 11974
     Shape of augmentation charge: PSQ
     Using radial grid of 1095 points,  4 beta functions with: 
                l(1) =   0
                l(2) =   0
                l(3) =   1
                l(4) =   1
     Q(r) pseudized with 0 coefficients 


     atomic species   valence    mass     pseudopotential
        N              5.00    14.00670      N( 1.00)
        C              4.00    12.01100      C( 1.00)
        H              1.00     1.00790      H( 1.00)
        O              6.00    15.99940      O( 1.00)

      4 Sym. Ops., with inversion, found ( 2 have fractional translation)


                                    s                        frac. trans.

      isym =  1     identity                                     

 cryst.   s( 1) = (     1          0          0      )
                  (     0          1          0      )
                  (     0          0          1      )

 cart.    s( 1) = (  1.0000000  0.0000000  0.0000000 )
                  (  0.0000000  1.0000000  0.0000000 )
                  (  0.0000000  0.0000000  1.0000000 )


      isym =  2     180 deg rotation - cart. axis [0,1,0]        

 cryst.   s( 2) = (    -1          0          0      )    f =(  0.5000000 )
                  (     0          1          0      )       (  0.5000000 )
                  (     0          0         -1      )       (  0.5000000 )

 cart.    s( 2) = ( -1.0000000  0.0000000  0.0000000 )    f =(  2.4680844 )
                  (  0.0000000  1.0000000  0.0000000 )       (  5.4561500 )
                  (  0.0000000  0.0000000 -1.0000000 )       (  3.5832191 )


      isym =  3     inversion                                    

 cryst.   s( 3) = (    -1          0          0      )
                  (     0         -1          0      )
                  (     0          0         -1      )

 cart.    s( 3) = ( -1.0000000  0.0000000  0.0000000 )
                  (  0.0000000 -1.0000000  0.0000000 )
                  (  0.0000000  0.0000000 -1.0000000 )


      isym =  4     inv. 180 deg rotation - cart. axis [0,1,0]   

 cryst.   s( 4) = (     1          0          0      )    f =( -0.5000000 )
                  (     0         -1          0      )       (  0.5000000 )
                  (     0          0          1      )       (  0.5000000 )

 cart.    s( 4) = (  1.0000000  0.0000000  0.0000000 )    f =( -4.0525156 )
                  (  0.0000000 -1.0000000  0.0000000 )       (  5.4561500 )
                  (  0.0000000  0.0000000  1.0000000 )       (  3.5832191 )


   Cartesian axes

     site n.     atom                  positions (alat units)
         1           N   tau(   1) = (  -0.8514256   6.7994541   3.2965616  )
         2           O   tau(   2) = (   1.0861733   7.8571834   3.1181173  )
         3           N   tau(   3) = (   0.0767309   7.6782216   3.7996456  )
         4           N   tau(   4) = (  -2.0523401   5.7423796   5.0623720  )
         5           O   tau(   5) = (  -3.2492170   4.6814858   6.6152675  )
         6           N   tau(   6) = (  -3.2346090   5.4771016   5.6880021  )
         7           O   tau(   7) = (  -0.1591847   8.1664380   4.8932441  )
         8           C   tau(   8) = (  -2.1226123   6.7208856   3.9616071  )
         9           H   tau(   9) = (  -2.8210125   6.4469868   3.3159110  )
        10           H   tau(  10) = (  -2.3671219   7.6102380   4.3213623  )
        11           O   tau(  11) = (  -4.2070896   6.1208182   5.2845316  )
        12           C   tau(  12) = (  -0.5868989   6.1719969   2.0116192  )
        13           H   tau(  13) = (  -1.4066974   5.7518733   1.7056123  )
        14           H   tau(  14) = (  -0.3093298   6.8136401   1.3401240  )
        15           H   tau(  15) = (   3.7431858  -1.3574901  -2.2430952  )
        16           H   tau(  16) = (   2.6458182  -0.2957233  -1.8776068  )
        17           C   tau(  17) = (   3.4656167  -0.7158469  -1.5715999  )
        18           O   tau(  18) = (  -0.1545740  -0.6646682   1.7013125  )
        19           H   tau(  19) = (   1.6853937  -2.1540880   0.7381431  )
        20           H   tau(  20) = (   1.2315032  -0.9908368  -0.2673081  )
        21           C   tau(  21) = (   1.9299033  -1.2647356   0.3783879  )
        22           O   tau(  22) = (   3.8933309  -2.7102880   1.3100249  )
        23           N   tau(  23) = (   0.8179066  -0.0209516   2.1047829  )
        24           O   tau(  24) = (   0.8032986   0.7746642   3.0320484  )
        25           N   tau(  25) = (   2.0001755  -0.2862296   1.4791529  )
        26           N   tau(  26) = (   4.1292465  -2.2220716   0.2164264  )
        27           O   tau(  27) = (   5.1386890  -2.4010334  -0.4651018  )
        28           N   tau(  28) = (   3.2010900  -1.3433041  -0.2866575  )
        29           H   tau(  29) = (  -1.2751014   4.0986599   5.8263143  )
        30           H   tau(  30) = (  -0.1777339   5.1604267   5.4608260  )
        31           C   tau(  31) = (  -0.9975323   4.7403031   5.1548191  )
        32           O   tau(  32) = (   2.6226584   4.7914818   1.8819067  )
        33           H   tau(  33) = (   0.7826907   3.3020620   2.8450760  )
        34           H   tau(  34) = (   1.2365812   4.4653132   3.8505273  )
        35           C   tau(  35) = (   0.5381811   4.1914144   3.2048312  )
        36           O   tau(  36) = (  -1.4252465   2.7458620   2.2731942  )
        37           N   tau(  37) = (   1.6501778   5.4351984   1.4784362  )
        38           O   tau(  38) = (   1.6647858   6.2308142   0.5511708  )
        39           N   tau(  39) = (   0.4679088   5.1699204   2.1040663  )
        40           N   tau(  40) = (  -1.6611622   3.2340784   3.3667927  )
        41           O   tau(  41) = (  -2.6706046   3.0551166   4.0483210  )
        42           N   tau(  42) = (  -0.7330056   4.1128459   3.8698767  )
        43           H   tau(  43) = (   2.7774142   1.3574901   2.2430952  )
        44           H   tau(  44) = (   3.8747818   0.2957233   1.8776068  )
        45           C   tau(  45) = (   3.0549833   0.7158469   1.5715999  )
        46           O   tau(  46) = (   6.6751740   0.6646682  -1.7013125  )
        47           H   tau(  47) = (   4.8352063   2.1540880  -0.7381431  )
        48           H   tau(  48) = (   5.2890968   0.9908368   0.2673081  )
        49           C   tau(  49) = (   4.5906967   1.2647356  -0.3783879  )
        50           O   tau(  50) = (   2.6272691   2.7102880  -1.3100249  )
        51           N   tau(  51) = (   5.7026934   0.0209516  -2.1047829  )
        52           O   tau(  52) = (   5.7173014  -0.7746642  -3.0320484  )
        53           N   tau(  53) = (   4.5204245   0.2862296  -1.4791529  )
        54           N   tau(  54) = (   2.3913535   2.2220716  -0.2164264  )
        55           O   tau(  55) = (   1.3819110   2.4010334   0.4651018  )
        56           N   tau(  56) = (   3.3195100   1.3433041   0.2866575  )

   Crystallographic axes

     site n.     atom                  positions (cryst. coord.)
         1           N   tau(   1) = ( -0.0188000  0.6231000  0.4600000  )
         2           O   tau(   2) = (  0.2723000  0.7200300  0.4351000  )
         3           N   tau(   3) = (  0.1406000  0.7036300  0.5302000  )
         4           N   tau(   4) = ( -0.1431000  0.5262300  0.7064000  )
         5           O   tau(   5) = ( -0.2740000  0.4290100  0.9230900  )
         6           N   tau(   6) = ( -0.3032000  0.5019200  0.7937000  )
         7           O   tau(   7) = (  0.1415000  0.7483700  0.6828000  )
         8           C   tau(   8) = ( -0.1912000  0.6159000  0.5528000  )
         9           H   tau(   9) = ( -0.3202000  0.5908000  0.4627000  )
        10           H   tau(  10) = ( -0.2165000  0.6974000  0.6030000  )
        11           O   tau(  11) = ( -0.4660200  0.5609100  0.7374000  )
        12           C   tau(  12) = ( -0.0218000  0.5656000  0.2807000  )
        13           H   tau(  13) = ( -0.1579000  0.5271000  0.2380000  )
        14           H   tau(  14) = ( -0.0020000  0.6244000  0.1870000  )
        15           H   tau(  15) = (  0.4980000 -0.1244000 -0.3130000  )
        16           H   tau(  16) = (  0.3421000 -0.0271000 -0.2620000  )
        17           C   tau(  17) = (  0.4782000 -0.0656000 -0.2193000  )
        18           O   tau(  18) = (  0.0339800 -0.0609100  0.2374000  )
        19           H   tau(  19) = (  0.2835000 -0.1974000  0.1030000  )
        20           H   tau(  20) = (  0.1798000 -0.0908000 -0.0373000  )
        21           C   tau(  21) = (  0.3088000 -0.1159000  0.0528000  )
        22           O   tau(  22) = (  0.6415000 -0.2483700  0.1828000  )
        23           N   tau(  23) = (  0.1968000 -0.0019200  0.2937000  )
        24           O   tau(  24) = (  0.2260000  0.0709900  0.4230900  )
        25           N   tau(  25) = (  0.3569000 -0.0262300  0.2064000  )
        26           N   tau(  26) = (  0.6406000 -0.2036300  0.0302000  )
        27           O   tau(  27) = (  0.7723000 -0.2200300 -0.0649000  )
        28           N   tau(  28) = (  0.4812000 -0.1231000 -0.0400000  )
        29           H   tau(  29) = (  0.0020000  0.3756000  0.8130000  )
        30           H   tau(  30) = (  0.1579000  0.4729000  0.7620000  )
        31           C   tau(  31) = (  0.0218000  0.4344000  0.7193000  )
        32           O   tau(  32) = (  0.4660200  0.4390900  0.2626000  )
        33           H   tau(  33) = (  0.2165000  0.3026000  0.3970000  )
        34           H   tau(  34) = (  0.3202000  0.4092000  0.5373000  )
        35           C   tau(  35) = (  0.1912000  0.3841000  0.4472000  )
        36           O   tau(  36) = ( -0.1415000  0.2516300  0.3172000  )
        37           N   tau(  37) = (  0.3032000  0.4980800  0.2063000  )
        38           O   tau(  38) = (  0.2740000  0.5709900  0.0769100  )
        39           N   tau(  39) = (  0.1431000  0.4737700  0.2936000  )
        40           N   tau(  40) = ( -0.1406000  0.2963700  0.4698000  )
        41           O   tau(  41) = ( -0.2723000  0.2799700  0.5649000  )
        42           N   tau(  42) = (  0.0188000  0.3769000  0.5400000  )
        43           H   tau(  43) = (  0.5020000  0.1244000  0.3130000  )
        44           H   tau(  44) = (  0.6579000  0.0271000  0.2620000  )
        45           C   tau(  45) = (  0.5218000  0.0656000  0.2193000  )
        46           O   tau(  46) = (  0.9660200  0.0609100 -0.2374000  )
        47           H   tau(  47) = (  0.7165000  0.1974000 -0.1030000  )
        48           H   tau(  48) = (  0.8202000  0.0908000  0.0373000  )
        49           C   tau(  49) = (  0.6912000  0.1159000 -0.0528000  )
        50           O   tau(  50) = (  0.3585000  0.2483700 -0.1828000  )
        51           N   tau(  51) = (  0.8032000  0.0019200 -0.2937000  )
        52           O   tau(  52) = (  0.7740000 -0.0709900 -0.4230900  )
        53           N   tau(  53) = (  0.6431000  0.0262300 -0.2064000  )
        54           N   tau(  54) = (  0.3594000  0.2036300 -0.0302000  )
        55           O   tau(  55) = (  0.2277000  0.2200300  0.0649000  )
        56           N   tau(  56) = (  0.5188000  0.1231000  0.0400000  )

     number of k points=    16
                       cart. coord. in units 2pi/alat
        k(    1) = (   0.0191700   0.0114550   0.0216807), wk =   0.1250000
        k(    2) = (   0.0191700   0.0114550   0.0565656), wk =   0.1250000
        k(    3) = (   0.0191700   0.0114550  -0.0480889), wk =   0.1250000
        k(    4) = (   0.0191700   0.0114550  -0.0132041), wk =   0.1250000
        k(    5) = (   0.0191700   0.0343649   0.0216807), wk =   0.1250000
        k(    6) = (   0.0191700   0.0343649   0.0565656), wk =   0.1250000
        k(    7) = (   0.0191700   0.0343649  -0.0480889), wk =   0.1250000
        k(    8) = (   0.0191700   0.0343649  -0.0132041), wk =   0.1250000
        k(    9) = (   0.0575100   0.0114550   0.0301573), wk =   0.1250000
        k(   10) = (   0.0575100   0.0114550   0.0650422), wk =   0.1250000
        k(   11) = (   0.0575100   0.0114550  -0.0396123), wk =   0.1250000
        k(   12) = (   0.0575100   0.0114550  -0.0047275), wk =   0.1250000
        k(   13) = (   0.0575100   0.0343649   0.0301573), wk =   0.1250000
        k(   14) = (   0.0575100   0.0343649   0.0650422), wk =   0.1250000
        k(   15) = (   0.0575100   0.0343649  -0.0396123), wk =   0.1250000
        k(   16) = (   0.0575100   0.0343649  -0.0047275), wk =   0.1250000

                       cryst. coord.
        k(    1) = (   0.1250000   0.1250000   0.1250000), wk =   0.1250000
        k(    2) = (   0.1250000   0.1250000   0.3750000), wk =   0.1250000
        k(    3) = (   0.1250000   0.1250000  -0.3750000), wk =   0.1250000
        k(    4) = (   0.1250000   0.1250000  -0.1250000), wk =   0.1250000
        k(    5) = (   0.1250000   0.3750000   0.1250000), wk =   0.1250000
        k(    6) = (   0.1250000   0.3750000   0.3750000), wk =   0.1250000
        k(    7) = (   0.1250000   0.3750000  -0.3750000), wk =   0.1250000
        k(    8) = (   0.1250000   0.3750000  -0.1250000), wk =   0.1250000
        k(    9) = (   0.3750000   0.1250000   0.1250000), wk =   0.1250000
        k(   10) = (   0.3750000   0.1250000   0.3750000), wk =   0.1250000
        k(   11) = (   0.3750000   0.1250000  -0.3750000), wk =   0.1250000
        k(   12) = (   0.3750000   0.1250000  -0.1250000), wk =   0.1250000
        k(   13) = (   0.3750000   0.3750000   0.1250000), wk =   0.1250000
        k(   14) = (   0.3750000   0.3750000   0.3750000), wk =   0.1250000
        k(   15) = (   0.3750000   0.3750000  -0.3750000), wk =   0.1250000
        k(   16) = (   0.3750000   0.3750000  -0.1250000), wk =   0.1250000

     Dense  grid:  5197551 G-vectors     FFT dimensions: ( 180, 300, 200)

     Smooth grid:  1314913 G-vectors     FFT dimensions: ( 120, 192, 125)

     Largest allocated arrays     est. size (Mb)     dimensions
        Kohn-Sham Wavefunctions        35.15 Mb     (   20566,  112)
        NL pseudopotentials           110.46 Mb     (   20566,  352)
        Each V/rho on FFT grid         20.60 Mb     ( 1350000)
        Each G-vector array             4.96 Mb     (  649696)
        G-vector shells                 4.60 Mb     (  602617)
     Largest temporary arrays     est. size (Mb)     dimensions
        Auxiliary wavefunctions       140.59 Mb     (   20566,  448)
        Each subspace H/S matrix        3.06 Mb     (     448,  448)
        Each <psi_i|beta_j> matrix      0.60 Mb     (     352,  112)
        Arrays for rho mixing         164.79 Mb     ( 1350000,    8)

     Initial potential from superposition of free atoms

     starting charge  223.99937, renormalised to  224.00000
     Starting wfc are  176 randomized atomic wfcs
     Checking if some PAW data can be deallocated... 
       node    0, deallocated PAW data for type:  2
       node    0, deallocated PAW data for type:  3
       node    1, deallocated PAW data for type:  1
       node    2, deallocated PAW data for type:  1
       node    3, deallocated PAW data for type:  2
       node    3, deallocated PAW data for type:  3
       node    4, deallocated PAW data for type:  1
       node    5, deallocated PAW data for type:  2
       node    5, deallocated PAW data for type:  3
       node    6, deallocated PAW data for type:  1
       node    7, deallocated PAW data for type:  2
       node    7, deallocated PAW data for type:  3

     total cpu time spent up to now is     1395.2 secs

     per-process dynamical memory:  1020.7 Mb

     Self-consistent Calculation

     iteration #  1     ecut=   200.00 Ry     beta=0.70
     Davidson diagonalization with overlap
     ethr =  1.00E-02,  avg # of iterations =  3.0

     total cpu time spent up to now is     5216.5 secs

     total energy              =   -1279.68565082 Ry
     Harris-Foulkes estimate   =   -1283.98702313 Ry
     estimated scf accuracy    <       6.62721477 Ry

     iteration #  2     ecut=   200.00 Ry     beta=0.70
     Davidson diagonalization with overlap
     ethr =  2.96E-03,  avg # of iterations =  4.0

     total cpu time spent up to now is     8786.0 secs

     total energy              =   -1280.35023032 Ry
     Harris-Foulkes estimate   =   -1283.83175990 Ry
     estimated scf accuracy    <       7.03368256 Ry

     iteration #  3     ecut=   200.00 Ry     beta=0.70
     Davidson diagonalization with overlap
     ethr =  2.96E-03,  avg # of iterations =  4.7

     total cpu time spent up to now is    11774.8 secs

     total energy              =   -1281.85582939 Ry
     Harris-Foulkes estimate   =   -1282.07987991 Ry
     estimated scf accuracy    <       0.41491782 Ry

     iteration #  4     ecut=   200.00 Ry     beta=0.70
     Davidson diagonalization with overlap
     ethr =  1.85E-04,  avg # of iterations =  4.9

     total cpu time spent up to now is    15462.8 secs

     total energy              =   -1282.00174308 Ry
     Harris-Foulkes estimate   =   -1282.08706642 Ry
     estimated scf accuracy    <       0.18749792 Ry

     iteration #  5     ecut=   200.00 Ry     beta=0.70
     Davidson diagonalization with overlap
     ethr =  8.37E-05,  avg # of iterations =  4.0

     total cpu time spent up to now is    18497.2 secs

     total energy              =   -1282.04023881 Ry
     Harris-Foulkes estimate   =   -1282.04922233 Ry
     estimated scf accuracy    <       0.02236255 Ry

     iteration #  6     ecut=   200.00 Ry     beta=0.70
     Davidson diagonalization with overlap
     ethr =  9.98E-06,  avg # of iterations =  5.5

     total cpu time spent up to now is    21256.6 secs

     total energy              =   -1282.04205699 Ry
     Harris-Foulkes estimate   =   -1282.04347734 Ry
     estimated scf accuracy    <       0.00383569 Ry

     iteration #  7     ecut=   200.00 Ry     beta=0.70
     Davidson diagonalization with overlap
     ethr =  1.71E-06,  avg # of iterations =  4.8

     total cpu time spent up to now is    25254.1 secs

     total energy              =   -1282.04480813 Ry
     Harris-Foulkes estimate   =   -1282.04588144 Ry
     estimated scf accuracy    <       0.00396334 Ry

     iteration #  8     ecut=   200.00 Ry     beta=0.70
     Davidson diagonalization with overlap
     ethr =  1.71E-06,  avg # of iterations =  1.0

     total cpu time spent up to now is    27685.9 secs

     total energy              =   -1282.04371260 Ry
     Harris-Foulkes estimate   =   -1282.04487351 Ry
     estimated scf accuracy    <       0.00225511 Ry

     iteration #  9     ecut=   200.00 Ry     beta=0.70
     Davidson diagonalization with overlap
     ethr =  1.01E-06,  avg # of iterations =  5.0

     total cpu time spent up to now is    31191.2 secs

     total energy              =   -1282.04511861 Ry
     Harris-Foulkes estimate   =   -1282.04617504 Ry
     estimated scf accuracy    <       0.00553739 Ry

     iteration # 10     ecut=   200.00 Ry     beta=0.70
     Davidson diagonalization with overlap
     ethr =  1.01E-06,  avg # of iterations =  1.0

     total cpu time spent up to now is    33454.2 secs

     total energy              =   -1282.04377735 Ry
     Harris-Foulkes estimate   =   -1282.04515069 Ry
     estimated scf accuracy    <       0.00383693 Ry

     iteration # 11     ecut=   200.00 Ry     beta=0.70
     Davidson diagonalization with overlap
     ethr =  1.01E-06,  avg # of iterations =  5.0

     total cpu time spent up to now is    36667.6 secs

     total energy              =   -1282.04504979 Ry
     Harris-Foulkes estimate   =   -1282.04528767 Ry
     estimated scf accuracy    <       0.00090953 Ry

     iteration # 12     ecut=   200.00 Ry     beta=0.70
     Davidson diagonalization with overlap
     ethr =  4.06E-07,  avg # of iterations =  1.0

     total cpu time spent up to now is    38972.1 secs

     total energy              =   -1282.04484188 Ry
     Harris-Foulkes estimate   =   -1282.04506192 Ry
     estimated scf accuracy    <       0.00053053 Ry

     iteration # 13     ecut=   200.00 Ry     beta=0.70
     Davidson diagonalization with overlap
     ethr =  2.37E-07,  avg # of iterations =  5.0

     total cpu time spent up to now is    42413.0 secs

     total energy              =   -1282.04512009 Ry
     Harris-Foulkes estimate   =   -1282.04520139 Ry
     estimated scf accuracy    <       0.00044634 Ry

     iteration # 14     ecut=   200.00 Ry     beta=0.70
     Davidson diagonalization with overlap
     ethr =  1.99E-07,  avg # of iterations =  1.0

     total cpu time spent up to now is    44963.8 secs

     total energy              =   -1282.04501444 Ry
     Harris-Foulkes estimate   =   -1282.04512258 Ry
     estimated scf accuracy    <       0.00031653 Ry

     iteration # 15     ecut=   200.00 Ry     beta=0.70
     Davidson diagonalization with overlap
     ethr =  1.41E-07,  avg # of iterations =  5.0

     total cpu time spent up to now is    48421.3 secs

     total energy              =   -1282.04514171 Ry
     Harris-Foulkes estimate   =   -1282.04512403 Ry
     estimated scf accuracy    <       0.00004797 Ry

     iteration # 16     ecut=   200.00 Ry     beta=0.70
     Davidson diagonalization with overlap
     ethr =  2.14E-08,  avg # of iterations =  2.7

     total cpu time spent up to now is    51010.5 secs

     total energy              =   -1282.04511979 Ry
     Harris-Foulkes estimate   =   -1282.04514336 Ry
     estimated scf accuracy    <       0.00008115 Ry

     iteration # 17     ecut=   200.00 Ry     beta=0.70
     Davidson diagonalization with overlap
     ethr =  2.14E-08,  avg # of iterations =  1.1

     total cpu time spent up to now is    53517.1 secs

     total energy              =   -1282.04511100 Ry
     Harris-Foulkes estimate   =   -1282.04512110 Ry
     estimated scf accuracy    <       0.00004602 Ry

     iteration # 18     ecut=   200.00 Ry     beta=0.70
     Davidson diagonalization with overlap
     ethr =  2.05E-08,  avg # of iterations =  2.2

     total cpu time spent up to now is    56789.6 secs

     total energy              =   -1282.04511119 Ry
     Harris-Foulkes estimate   =   -1282.04511204 Ry
     estimated scf accuracy    <       0.00002535 Ry

     iteration # 19     ecut=   200.00 Ry     beta=0.70
     Davidson diagonalization with overlap
     ethr =  1.13E-08,  avg # of iterations =  5.1

     total cpu time spent up to now is    60747.6 secs

     total energy              =   -1282.04511627 Ry
     Harris-Foulkes estimate   =   -1282.04511549 Ry
     estimated scf accuracy    <       0.00000264 Ry

     iteration # 20     ecut=   200.00 Ry     beta=0.70
     Davidson diagonalization with overlap
     ethr =  1.18E-09,  avg # of iterations =  3.7

     total cpu time spent up to now is    74135.2 secs

     total energy              =   -1282.04511597 Ry
     Harris-Foulkes estimate   =   -1282.04511649 Ry
     estimated scf accuracy    <       0.00000390 Ry

     iteration # 21     ecut=   200.00 Ry     beta=0.70
     Davidson diagonalization with overlap
     ethr =  1.18E-09,  avg # of iterations =  1.0

     total cpu time spent up to now is    79245.6 secs

     total energy              =   -1282.04511638 Ry
     Harris-Foulkes estimate   =   -1282.04511600 Ry
     estimated scf accuracy    <       0.00000301 Ry

     iteration # 22     ecut=   200.00 Ry     beta=0.70
     Davidson diagonalization with overlap
     ethr =  1.18E-09,  avg # of iterations =  1.6

     total cpu time spent up to now is    81755.1 secs

     total energy              =   -1282.04511651 Ry
     Harris-Foulkes estimate   =   -1282.04511642 Ry
     estimated scf accuracy    <       0.00000364 Ry

     iteration # 23     ecut=   200.00 Ry     beta=0.70
     Davidson diagonalization with overlap
     ethr =  1.18E-09,  avg # of iterations =  4.9

     total cpu time spent up to now is    85064.4 secs

     total energy              =   -1282.04511570 Ry
     Harris-Foulkes estimate   =   -1282.04511660 Ry
     estimated scf accuracy    <       0.00000481 Ry

     iteration # 24     ecut=   200.00 Ry     beta=0.70
     Davidson diagonalization with overlap
     ethr =  1.18E-09,  avg # of iterations =  4.1

     total cpu time spent up to now is    88482.8 secs

     total energy              =   -1282.04511389 Ry
     Harris-Foulkes estimate   =   -1282.04511581 Ry
     estimated scf accuracy    <       0.00000333 Ry

     iteration # 25     ecut=   200.00 Ry     beta=0.70
     Davidson diagonalization with overlap
     ethr =  1.18E-09,  avg # of iterations =  5.0

     total cpu time spent up to now is    93257.9 secs

     total energy              =   -1282.04511476 Ry
     Harris-Foulkes estimate   =   -1282.04511629 Ry
     estimated scf accuracy    <       0.00000422 Ry

     iteration # 26     ecut=   200.00 Ry     beta=0.70
     Davidson diagonalization with overlap
     ethr =  1.18E-09,  avg # of iterations =  6.1

     total cpu time spent up to now is    96148.2 secs

     End of self-consistent calculation

          k = 0.0192 0.0115 0.0217 (164336 PWs)   bands (ev):

   -23.8712 -23.8465 -23.8346 -23.8248 -23.5860 -23.5763 -23.5754 -23.5713
   -19.1043 -19.0989 -19.0915 -19.0789 -18.7827 -18.7825 -18.7781 -18.7769
   -18.1724 -18.1460 -17.1422 -17.0898 -17.0025 -16.9998 -15.9834 -15.9701
   -12.0104 -12.0083 -11.9991 -11.8814 -11.8237 -11.7465 -11.6892 -11.6715
    -8.8190  -8.7788  -8.2056  -8.1669  -7.4910  -7.4459  -7.3632  -7.3572
    -6.8007  -6.6899  -6.5495  -6.4468  -6.4306  -6.3506  -6.2892  -6.2019
    -6.0703  -6.0357  -6.0145  -5.8932  -5.8406  -5.7545  -5.6886  -5.6461
    -5.5844  -5.5633  -5.4883  -5.4386  -5.0742  -4.9570  -4.8624  -4.8517
    -4.3909  -4.3862  -4.3562  -4.3163  -4.1431  -4.0327  -3.7867  -3.7780
    -3.6142  -3.4869  -3.4274  -3.3837  -3.0859  -3.0514  -2.9584  -2.9399
    -0.7440  -0.7389  -0.2528  -0.2495  -0.1505  -0.1007  -0.0415  -0.0245
     0.0327   0.0652   0.2264   0.2629   0.2756   0.3072   0.4337   0.4507
     0.4979   0.5176   0.6974   0.7493   0.8363   0.8745   0.9248   0.9519
     0.9762   1.0898   1.1216   1.1886   1.2750   1.4113   1.4267   1.4539

     occupation numbers 
     1.0000   1.0000   1.0000   1.0000   1.0000   1.0000   1.0000   1.0000
     1.0000   1.0000   1.0000   1.0000   1.0000   1.0000   1.0000   1.0000
     1.0000   1.0000   1.0000   1.0000   1.0000   1.0000   1.0000   1.0000
     1.0000   1.0000   1.0000   1.0000   1.0000   1.0000   1.0000   1.0000
     1.0000   1.0000   1.0000   1.0000   1.0000   1.0000   1.0000   1.0000
     1.0000   1.0000   1.0000   1.0000   1.0000   1.0000   1.0000   1.0000
     1.0000   1.0000   1.0000   1.0000   1.0000   1.0000   1.0000   1.0000
     1.0000   1.0000   1.0000   1.0000   1.0000   1.0000   1.0000   1.0000
     1.0000   1.0000   1.0000   1.0000   1.0000   1.0000   1.0000   1.0000
     1.0000   1.0000   1.0000   1.0000   1.0000   1.0000   1.0000   1.0000
     1.0000   1.0000   1.0000   1.0000   1.0000   1.0000   1.0000   1.0000
     1.0000   1.0000   1.0000   1.0000   1.0000   1.0000   1.0000   1.0000
     1.0000   1.0000   1.0000   1.0000   1.0000   1.0000   1.0000   1.0000
     1.0000   1.0000   1.0000   1.0000   1.0000   1.0000   1.0000   1.0000

          k = 0.0192 0.0115 0.0566 (164403 PWs)   bands (ev):

   -23.8626 -23.8525 -23.8308 -23.8297 -23.5875 -23.5839 -23.5720 -23.5671
   -19.1024 -19.0975 -19.0925 -19.0827 -18.7892 -18.7883 -18.7728 -18.7711
   -18.1602 -18.1597 -17.1172 -17.1144 -16.9984 -16.9956 -15.9788 -15.9766
   -12.0191 -12.0146 -11.9493 -11.9284 -11.7802 -11.7680 -11.6976 -11.6892
    -8.7992  -8.7620  -8.1862  -8.1600  -7.5062  -7.4525  -7.3407  -7.2575
    -6.8480  -6.7185  -6.5302  -6.4882  -6.4799  -6.3692  -6.3133  -6.2815
    -6.1299  -6.0930  -5.9013  -5.8463  -5.8267  -5.7660  -5.7366  -5.6910
    -5.6440  -5.5846  -5.4051  -5.3562  -5.0778  -4.9974  -4.8573  -4.8194
    -4.3537  -4.3449  -4.2865  -4.2231  -4.0688  -4.0329  -3.9013  -3.9012
    -3.5938  -3.5370  -3.3651  -3.3539  -3.1145  -3.1100  -2.9407  -2.9159
    -0.7088  -0.6744  -0.2663  -0.2536  -0.1614  -0.1339  -0.0705  -0.0567
    -0.0241   0.0200   0.1283   0.1911   0.2922   0.3482   0.4030   0.4148
     0.6085   0.6732   0.7178   0.7656   0.8321   0.8543   0.8857   0.9366
     1.0477   1.0867   1.1609   1.1861   1.2846   1.3590   1.4324   1.4599

     occupation numbers 
     1.0000   1.0000   1.0000   1.0000   1.0000   1.0000   1.0000   1.0000
     1.0000   1.0000   1.0000   1.0000   1.0000   1.0000   1.0000   1.0000
     1.0000   1.0000   1.0000   1.0000   1.0000   1.0000   1.0000   1.0000
     1.0000   1.0000   1.0000   1.0000   1.0000   1.0000   1.0000   1.0000
     1.0000   1.0000   1.0000   1.0000   1.0000   1.0000   1.0000   1.0000
     1.0000   1.0000   1.0000   1.0000   1.0000   1.0000   1.0000   1.0000
     1.0000   1.0000   1.0000   1.0000   1.0000   1.0000   1.0000   1.0000
     1.0000   1.0000   1.0000   1.0000   1.0000   1.0000   1.0000   1.0000
     1.0000   1.0000   1.0000   1.0000   1.0000   1.0000   1.0000   1.0000
     1.0000   1.0000   1.0000   1.0000   1.0000   1.0000   1.0000   1.0000
     1.0000   1.0000   1.0000   1.0000   1.0000   1.0000   1.0000   1.0000
     1.0000   1.0000   1.0000   1.0000   1.0000   1.0000   1.0000   1.0000
     1.0000   1.0000   1.0000   1.0000   1.0000   1.0000   1.0000   1.0000
     1.0000   1.0000   1.0000   1.0000   1.0000   1.0000   1.0000   1.0000

          k = 0.0192 0.0115-0.0481 (164382 PWs)   bands (ev):

   -23.8634 -23.8520 -23.8347 -23.8255 -23.5889 -23.5856 -23.5686 -23.5673
   -19.0999 -19.0982 -19.0893 -19.0879 -18.7907 -18.7899 -18.7711 -18.7696
   -18.1721 -18.1464 -17.1398 -17.0916 -17.0010 -16.9992 -15.9825 -15.9660
   -12.0329 -12.0130 -11.9814 -11.8953 -11.8085 -11.7350 -11.6983 -11.6893
    -8.8084  -8.7220  -8.1725  -8.1697  -7.4999  -7.4839  -7.3501  -7.2330
    -6.8581  -6.7459  -6.5278  -6.4869  -6.4479  -6.4182  -6.3264  -6.2892
    -6.1488  -6.1191  -5.9038  -5.8648  -5.7659  -5.7264  -5.7222  -5.7081
    -5.6401  -5.5679  -5.4059  -5.3531  -5.0734  -4.9977  -4.8442  -4.8112
    -4.3812  -4.3114  -4.2804  -4.2242  -4.0877  -4.0677  -3.9086  -3.8530
    -3.5941  -3.5437  -3.4199  -3.3332  -3.1212  -3.0970  -2.9366  -2.9228
    -0.6406  -0.5786  -0.2547  -0.2461  -0.2257  -0.1921  -0.1124  -0.0948
    -0.0331  -0.0279   0.0954   0.1791   0.3127   0.3499   0.3572   0.4095
     0.6535   0.7330   0.7563   0.7671   0.8127   0.8963   0.9065   0.9179
     1.0396   1.0931   1.1723   1.2322   1.2901   1.3174   1.4237   1.4439

     occupation numbers 
     1.0000   1.0000   1.0000   1.0000   1.0000   1.0000   1.0000   1.0000
     1.0000   1.0000   1.0000   1.0000   1.0000   1.0000   1.0000   1.0000
     1.0000   1.0000   1.0000   1.0000   1.0000   1.0000   1.0000   1.0000
     1.0000   1.0000   1.0000   1.0000   1.0000   1.0000   1.0000   1.0000
     1.0000   1.0000   1.0000   1.0000   1.0000   1.0000   1.0000   1.0000
     1.0000   1.0000   1.0000   1.0000   1.0000   1.0000   1.0000   1.0000
     1.0000   1.0000   1.0000   1.0000   1.0000   1.0000   1.0000   1.0000
     1.0000   1.0000   1.0000   1.0000   1.0000   1.0000   1.0000   1.0000
     1.0000   1.0000   1.0000   1.0000   1.0000   1.0000   1.0000   1.0000
     1.0000   1.0000   1.0000   1.0000   1.0000   1.0000   1.0000   1.0000
     1.0000   1.0000   1.0000   1.0000   1.0000   1.0000   1.0000   1.0000
     1.0000   1.0000   1.0000   1.0000   1.0000   1.0000   1.0000   1.0000
     1.0000   1.0000   1.0000   1.0000   1.0000   1.0000   1.0000   1.0000
     1.0000   1.0000   1.0000   1.0000   1.0000   1.0000   1.0000   1.0000

          k = 0.0192 0.0115-0.0132 (164353 PWs)   bands (ev):

   -23.8715 -23.8468 -23.8358 -23.8229 -23.5884 -23.5793 -23.5716 -23.5696
   -19.1032 -19.0975 -19.0918 -19.0813 -18.7864 -18.7858 -18.7739 -18.7739
   -18.1770 -18.1400 -17.1514 -17.0801 -17.0048 -17.0038 -15.9839 -15.9628
   -12.0337 -12.0092 -11.9978 -11.8781 -11.8247 -11.7348 -11.6868 -11.6724
    -8.8303  -8.7368  -8.1989  -8.1699  -7.4955  -7.4710  -7.3936  -7.3094
    -6.7691  -6.7511  -6.5436  -6.4372  -6.4334  -6.3957  -6.2947  -6.2201
    -6.1175  -6.0698  -5.9464  -5.8937  -5.8007  -5.7536  -5.6715  -5.6431
    -5.6003  -5.5461  -5.4536  -5.4495  -5.0419  -4.9947  -4.8528  -4.8255
    -4.3949  -4.3793  -4.3540  -4.3282  -4.1563  -4.0414  -3.7949  -3.7366
    -3.6404  -3.4985  -3.4394  -3.3809  -3.0943  -3.0449  -2.9507  -2.9481
    -0.6938  -0.6720  -0.2416  -0.2375  -0.1530  -0.1198  -0.0581  -0.0337
    -0.0232   0.0147   0.1228   0.1823   0.2476   0.3291   0.3761   0.4430
     0.6227   0.6552   0.6912   0.7700   0.8315   0.8812   0.9389   0.9505
     0.9839   1.0669   1.1509   1.2167   1.2702   1.3901   1.4115   1.4445

     occupation numbers 
     1.0000   1.0000   1.0000   1.0000   1.0000   1.0000   1.0000   1.0000
     1.0000   1.0000   1.0000   1.0000   1.0000   1.0000   1.0000   1.0000
     1.0000   1.0000   1.0000   1.0000   1.0000   1.0000   1.0000   1.0000
     1.0000   1.0000   1.0000   1.0000   1.0000   1.0000   1.0000   1.0000
     1.0000   1.0000   1.0000   1.0000   1.0000   1.0000   1.0000   1.0000
     1.0000   1.0000   1.0000   1.0000   1.0000   1.0000   1.0000   1.0000
     1.0000   1.0000   1.0000   1.0000   1.0000   1.0000   1.0000   1.0000
     1.0000   1.0000   1.0000   1.0000   1.0000   1.0000   1.0000   1.0000
     1.0000   1.0000   1.0000   1.0000   1.0000   1.0000   1.0000   1.0000
     1.0000   1.0000   1.0000   1.0000   1.0000   1.0000   1.0000   1.0000
     1.0000   1.0000   1.0000   1.0000   1.0000   1.0000   1.0000   1.0000
     1.0000   1.0000   1.0000   1.0000   1.0000   1.0000   1.0000   1.0000
     1.0000   1.0000   1.0000   1.0000   1.0000   1.0000   1.0000   1.0000
     1.0000   1.0000   1.0000   1.0000   1.0000   1.0000   1.0000   1.0000

          k = 0.0192 0.0344 0.0217 (164334 PWs)   bands (ev):

   -23.8653 -23.8558 -23.8298 -23.8264 -23.5819 -23.5773 -23.5753 -23.5742
   -19.1040 -19.1024 -19.0859 -19.0813 -18.7827 -18.7826 -18.7777 -18.7772
   -18.1650 -18.1540 -17.1268 -17.1051 -17.0016 -17.0005 -15.9794 -15.9739
   -12.0106 -12.0103 -11.9735 -11.9310 -11.7853 -11.7588 -11.6838 -11.6765
    -8.8083  -8.7916  -8.1952  -8.1791  -7.4802  -7.4610  -7.3556  -7.3529
    -6.7764  -6.7276  -6.4916  -6.4443  -6.4400  -6.3982  -6.2638  -6.2371
    -6.0818  -6.0636  -5.9371  -5.9040  -5.8398  -5.7921  -5.6987  -5.6816
    -5.5477  -5.5351  -5.4650  -5.4412  -5.0267  -4.9568  -4.9114  -4.8845
    -4.4054  -4.3973  -4.3234  -4.3065  -4.1168  -4.0658  -3.7816  -3.7750
    -3.5772  -3.5216  -3.4155  -3.3952  -3.0798  -3.0659  -2.9497  -2.9427
    -0.7390  -0.7365  -0.2443  -0.2352  -0.1672  -0.1303  -0.0659  -0.0594
     0.0694   0.0803   0.2550   0.2656   0.2982   0.3051   0.4543   0.4582
     0.4730   0.5023   0.7075   0.7362   0.8149   0.8315   0.9422   0.9629
     1.0124   1.0595   1.1519   1.1769   1.3147   1.3718   1.4354   1.4436

     occupation numbers 
     1.0000   1.0000   1.0000   1.0000   1.0000   1.0000   1.0000   1.0000
     1.0000   1.0000   1.0000   1.0000   1.0000   1.0000   1.0000   1.0000
     1.0000   1.0000   1.0000   1.0000   1.0000   1.0000   1.0000   1.0000
     1.0000   1.0000   1.0000   1.0000   1.0000   1.0000   1.0000   1.0000
     1.0000   1.0000   1.0000   1.0000   1.0000   1.0000   1.0000   1.0000
     1.0000   1.0000   1.0000   1.0000   1.0000   1.0000   1.0000   1.0000
     1.0000   1.0000   1.0000   1.0000   1.0000   1.0000   1.0000   1.0000
     1.0000   1.0000   1.0000   1.0000   1.0000   1.0000   1.0000   1.0000
     1.0000   1.0000   1.0000   1.0000   1.0000   1.0000   1.0000   1.0000
     1.0000   1.0000   1.0000   1.0000   1.0000   1.0000   1.0000   1.0000
     1.0000   1.0000   1.0000   1.0000   1.0000   1.0000   1.0000   1.0000
     1.0000   1.0000   1.0000   1.0000   1.0000   1.0000   1.0000   1.0000
     1.0000   1.0000   1.0000   1.0000   1.0000   1.0000   1.0000   1.0000
     1.0000   1.0000   1.0000   1.0000   1.0000   1.0000   1.0000   1.0000

          k = 0.0192 0.0344 0.0566 (164375 PWs)   bands (ev):

   -23.8592 -23.8550 -23.8311 -23.8305 -23.5856 -23.5842 -23.5712 -23.5692
   -19.1023 -19.1008 -19.0877 -19.0842 -18.7889 -18.7885 -18.7723 -18.7716
   -18.1601 -18.1599 -17.1168 -17.1157 -16.9971 -16.9959 -15.9782 -15.9773
   -12.0173 -12.0152 -11.9460 -11.9369 -11.7734 -11.7677 -11.6967 -11.6931
    -8.7886  -8.7731  -8.1790  -8.1681  -7.4888  -7.4669  -7.3166  -7.2830
    -6.8274  -6.7798  -6.5120  -6.4990  -6.4296  -6.3820  -6.3231  -6.3032
    -6.0843  -6.0505  -5.9226  -5.8684  -5.8073  -5.7732  -5.7384  -5.7187
    -5.6287  -5.5922  -5.4124  -5.3890  -5.0108  -4.9589  -4.9074  -4.8683
    -4.3286  -4.3144  -4.2826  -4.2520  -4.0647  -4.0490  -3.9016  -3.9007
    -3.5712  -3.5472  -3.3638  -3.3588  -3.1094  -3.1048  -2.9414  -2.9291
    -0.6979  -0.6837  -0.2581  -0.2477  -0.1755  -0.1484  -0.0912  -0.0764
     0.0051   0.0243   0.1787   0.1999   0.2981   0.3251   0.3949   0.4072
     0.6258   0.6538   0.7305   0.7524   0.8415   0.8522   0.8924   0.9223
     1.0482   1.0686   1.1734   1.1832   1.3104   1.3405   1.4391   1.4504

     occupation numbers 
     1.0000   1.0000   1.0000   1.0000   1.0000   1.0000   1.0000   1.0000
     1.0000   1.0000   1.0000   1.0000   1.0000   1.0000   1.0000   1.0000
     1.0000   1.0000   1.0000   1.0000   1.0000   1.0000   1.0000   1.0000
     1.0000   1.0000   1.0000   1.0000   1.0000   1.0000   1.0000   1.0000
     1.0000   1.0000   1.0000   1.0000   1.0000   1.0000   1.0000   1.0000
     1.0000   1.0000   1.0000   1.0000   1.0000   1.0000   1.0000   1.0000
     1.0000   1.0000   1.0000   1.0000   1.0000   1.0000   1.0000   1.0000
     1.0000   1.0000   1.0000   1.0000   1.0000   1.0000   1.0000   1.0000
     1.0000   1.0000   1.0000   1.0000   1.0000   1.0000   1.0000   1.0000
     1.0000   1.0000   1.0000   1.0000   1.0000   1.0000   1.0000   1.0000
     1.0000   1.0000   1.0000   1.0000   1.0000   1.0000   1.0000   1.0000
     1.0000   1.0000   1.0000   1.0000   1.0000   1.0000   1.0000   1.0000
     1.0000   1.0000   1.0000   1.0000   1.0000   1.0000   1.0000   1.0000
     1.0000   1.0000   1.0000   1.0000   1.0000   1.0000   1.0000   1.0000

          k = 0.0192 0.0344-0.0481 (164423 PWs)   bands (ev):

   -23.8601 -23.8554 -23.8321 -23.8282 -23.5874 -23.5860 -23.5687 -23.5681
   -19.1005 -19.0998 -19.0877 -19.0872 -18.7905 -18.7901 -18.7706 -18.7700
   -18.1648 -18.1542 -17.1257 -17.1058 -17.0003 -16.9995 -15.9775 -15.9707
   -12.0278 -12.0200 -11.9622 -11.9297 -11.7772 -11.7496 -11.6955 -11.6914
    -8.7841  -8.7484  -8.1732  -8.1716  -7.4914  -7.4859  -7.3191  -7.2695
    -6.8238  -6.7765  -6.5343  -6.5034  -6.4283  -6.4126  -6.3550  -6.3344
    -6.0620  -6.0421  -5.9411  -5.9059  -5.7600  -5.7436  -5.7217  -5.6999
    -5.6269  -5.5909  -5.3989  -5.3701  -5.0445  -4.9916  -4.8683  -4.8347
    -4.3688  -4.3398  -4.2395  -4.2192  -4.0900  -4.0824  -3.8930  -3.8702
    -3.5715  -3.5505  -3.3950  -3.3589  -3.1076  -3.0961  -2.9426  -2.9375
    -0.6237  -0.5985  -0.2554  -0.2518  -0.1953  -0.1772  -0.1364  -0.1150
    -0.0509  -0.0371   0.1481   0.1806   0.3155   0.3324   0.3696   0.3978
     0.6766   0.7088   0.7788   0.7905   0.8022   0.8460   0.9141   0.9186
     1.0544   1.0718   1.1980   1.2208   1.2957   1.3079   1.4289   1.4377

     occupation numbers 
     1.0000   1.0000   1.0000   1.0000   1.0000   1.0000   1.0000   1.0000
     1.0000   1.0000   1.0000   1.0000   1.0000   1.0000   1.0000   1.0000
     1.0000   1.0000   1.0000   1.0000   1.0000   1.0000   1.0000   1.0000
     1.0000   1.0000   1.0000   1.0000   1.0000   1.0000   1.0000   1.0000
     1.0000   1.0000   1.0000   1.0000   1.0000   1.0000   1.0000   1.0000
     1.0000   1.0000   1.0000   1.0000   1.0000   1.0000   1.0000   1.0000
     1.0000   1.0000   1.0000   1.0000   1.0000   1.0000   1.0000   1.0000
     1.0000   1.0000   1.0000   1.0000   1.0000   1.0000   1.0000   1.0000
     1.0000   1.0000   1.0000   1.0000   1.0000   1.0000   1.0000   1.0000
     1.0000   1.0000   1.0000   1.0000   1.0000   1.0000   1.0000   1.0000
     1.0000   1.0000   1.0000   1.0000   1.0000   1.0000   1.0000   1.0000
     1.0000   1.0000   1.0000   1.0000   1.0000   1.0000   1.0000   1.0000
     1.0000   1.0000   1.0000   1.0000   1.0000   1.0000   1.0000   1.0000
     1.0000   1.0000   1.0000   1.0000   1.0000   1.0000   1.0000   1.0000

          k = 0.0192 0.0344-0.0132 (164323 PWs)   bands (ev):

   -23.8659 -23.8565 -23.8297 -23.8253 -23.5851 -23.5811 -23.5716 -23.5709
   -19.1029 -19.1012 -19.0867 -19.0830 -18.7862 -18.7860 -18.7739 -18.7738
   -18.1667 -18.1514 -17.1302 -17.1006 -17.0047 -17.0042 -15.9775 -15.9688
   -12.0252 -12.0168 -11.9746 -11.9322 -11.7808 -11.7504 -11.6815 -11.6755
    -8.8047  -8.7660  -8.1922  -8.1803  -7.4882  -7.4771  -7.3664  -7.3327
    -6.7426  -6.7254  -6.5329  -6.4758  -6.4321  -6.4113  -6.3157  -6.2816
    -6.0562  -6.0338  -5.9544  -5.9224  -5.7933  -5.7678  -5.6756  -5.6739
    -5.5518  -5.5351  -5.4447  -5.4380  -5.0373  -5.0044  -4.8668  -4.8463
    -4.4092  -4.4056  -4.3274  -4.3062  -4.1290  -4.0759  -3.7763  -3.7521
    -3.5881  -3.5281  -3.4258  -3.4007  -3.0830  -3.0627  -2.9494  -2.9484
    -0.6841  -0.6750  -0.2340  -0.2252  -0.1682  -0.1323  -0.0714  -0.0600
    -0.0187   0.0011   0.1543   0.1834   0.2723   0.3096   0.4127   0.4418
     0.6338   0.6594   0.6952   0.7512   0.8017   0.8356   0.9537   0.9568
     1.0203   1.0508   1.1821   1.2079   1.2989   1.3516   1.4220   1.4316

     occupation numbers 
     1.0000   1.0000   1.0000   1.0000   1.0000   1.0000   1.0000   1.0000
     1.0000   1.0000   1.0000   1.0000   1.0000   1.0000   1.0000   1.0000
     1.0000   1.0000   1.0000   1.0000   1.0000   1.0000   1.0000   1.0000
     1.0000   1.0000   1.0000   1.0000   1.0000   1.0000   1.0000   1.0000
     1.0000   1.0000   1.0000   1.0000   1.0000   1.0000   1.0000   1.0000
     1.0000   1.0000   1.0000   1.0000   1.0000   1.0000   1.0000   1.0000
     1.0000   1.0000   1.0000   1.0000   1.0000   1.0000   1.0000   1.0000
     1.0000   1.0000   1.0000   1.0000   1.0000   1.0000   1.0000   1.0000
     1.0000   1.0000   1.0000   1.0000   1.0000   1.0000   1.0000   1.0000
     1.0000   1.0000   1.0000   1.0000   1.0000   1.0000   1.0000   1.0000
     1.0000   1.0000   1.0000   1.0000   1.0000   1.0000   1.0000   1.0000
     1.0000   1.0000   1.0000   1.0000   1.0000   1.0000   1.0000   1.0000
     1.0000   1.0000   1.0000   1.0000   1.0000   1.0000   1.0000   1.0000
     1.0000   1.0000   1.0000   1.0000   1.0000   1.0000   1.0000   1.0000

          k = 0.0575 0.0115 0.0302 (164361 PWs)   bands (ev):

   -23.8598 -23.8490 -23.8316 -23.8310 -23.5845 -23.5811 -23.5765 -23.5714
   -19.1020 -19.0978 -19.0932 -19.0835 -18.7856 -18.7842 -18.7762 -18.7749
   -18.1665 -18.1662 -17.1151 -17.1128 -17.0024 -17.0003 -15.9797 -15.9772
   -12.0072 -12.0049 -11.9160 -11.8968 -11.7536 -11.7335 -11.7022 -11.6849
    -8.8194  -8.7849  -8.2050  -8.1819  -7.4800  -7.4557  -7.4306  -7.3708
    -6.9204  -6.8481  -6.6172  -6.4856  -6.4000  -6.3607  -6.1948  -6.1598
    -6.1384  -6.0834  -5.9538  -5.8840  -5.8285  -5.7784  -5.6983  -5.6741
    -5.5869  -5.5418  -5.4829  -5.4642  -5.0845  -4.9712  -4.8488  -4.8431
    -4.3867  -4.3636  -4.3188  -4.2723  -3.9444  -3.8897  -3.7342  -3.6928
    -3.6526  -3.5359  -3.4887  -3.4808  -3.0850  -3.0824  -2.9592  -2.9280
    -0.6962  -0.6825  -0.2359  -0.2309  -0.1423  -0.1226  -0.0646  -0.0419
    -0.0065   0.0253   0.1692   0.1847   0.2619   0.2781   0.4123   0.4340
     0.6359   0.6482   0.7228   0.7711   0.8393   0.8473   0.9271   0.9416
     1.0017   1.0498   1.0779   1.1294   1.3499   1.3837   1.4098   1.4487

     occupation numbers 
     1.0000   1.0000   1.0000   1.0000   1.0000   1.0000   1.0000   1.0000
     1.0000   1.0000   1.0000   1.0000   1.0000   1.0000   1.0000   1.0000
     1.0000   1.0000   1.0000   1.0000   1.0000   1.0000   1.0000   1.0000
     1.0000   1.0000   1.0000   1.0000   1.0000   1.0000   1.0000   1.0000
     1.0000   1.0000   1.0000   1.0000   1.0000   1.0000   1.0000   1.0000
     1.0000   1.0000   1.0000   1.0000   1.0000   1.0000   1.0000   1.0000
     1.0000   1.0000   1.0000   1.0000   1.0000   1.0000   1.0000   1.0000
     1.0000   1.0000   1.0000   1.0000   1.0000   1.0000   1.0000   1.0000
     1.0000   1.0000   1.0000   1.0000   1.0000   1.0000   1.0000   1.0000
     1.0000   1.0000   1.0000   1.0000   1.0000   1.0000   1.0000   1.0000
     1.0000   1.0000   1.0000   1.0000   1.0000   1.0000   1.0000   1.0000
     1.0000   1.0000   1.0000   1.0000   1.0000   1.0000   1.0000   1.0000
     1.0000   1.0000   1.0000   1.0000   1.0000   1.0000   1.0000   1.0000
     1.0000   1.0000   1.0000   1.0000   1.0000   1.0000   1.0000   1.0000

          k = 0.0575 0.0115 0.0650 (164379 PWs)   bands (ev):

   -23.8556 -23.8518 -23.8357 -23.8271 -23.5830 -23.5827 -23.5797 -23.5693
   -19.1025 -19.0994 -19.0936 -19.0826 -18.7955 -18.7931 -18.7689 -18.7652
   -18.1813 -18.1563 -17.1357 -17.0900 -16.9928 -16.9892 -15.9958 -15.9757
   -12.0223 -12.0119 -11.9472 -11.8694 -11.7503 -11.7087 -11.7056 -11.6860
    -8.8653  -8.7392  -8.1994  -8.1613  -7.4861  -7.4578  -7.3902  -7.2489
    -7.0256  -6.7954  -6.6210  -6.4349  -6.4239  -6.3774  -6.3538  -6.2490
    -6.1931  -6.1095  -5.9252  -5.8990  -5.8529  -5.7943  -5.7296  -5.6650
    -5.5595  -5.5090  -5.4381  -5.3613  -5.0962  -4.9322  -4.9205  -4.8520
    -4.3267  -4.3124  -4.2499  -4.2106  -3.9010  -3.8801  -3.8331  -3.8011
    -3.6717  -3.5627  -3.4959  -3.3965  -3.1345  -3.0997  -2.9572  -2.8961
    -0.7737  -0.7315  -0.2424  -0.2030  -0.1425  -0.1131  -0.0593  -0.0209
     0.0283   0.0636   0.2315   0.2633   0.2848   0.3042   0.3778   0.4773
     0.5546   0.5688   0.6275   0.7292   0.8332   0.8656   0.9067   0.9393
     1.0381   1.0752   1.0903   1.1181   1.3628   1.4028   1.4166   1.4641

     occupation numbers 
     1.0000   1.0000   1.0000   1.0000   1.0000   1.0000   1.0000   1.0000
     1.0000   1.0000   1.0000   1.0000   1.0000   1.0000   1.0000   1.0000
     1.0000   1.0000   1.0000   1.0000   1.0000   1.0000   1.0000   1.0000
     1.0000   1.0000   1.0000   1.0000   1.0000   1.0000   1.0000   1.0000
     1.0000   1.0000   1.0000   1.0000   1.0000   1.0000   1.0000   1.0000
     1.0000   1.0000   1.0000   1.0000   1.0000   1.0000   1.0000   1.0000
     1.0000   1.0000   1.0000   1.0000   1.0000   1.0000   1.0000   1.0000
     1.0000   1.0000   1.0000   1.0000   1.0000   1.0000   1.0000   1.0000
     1.0000   1.0000   1.0000   1.0000   1.0000   1.0000   1.0000   1.0000
     1.0000   1.0000   1.0000   1.0000   1.0000   1.0000   1.0000   1.0000
     1.0000   1.0000   1.0000   1.0000   1.0000   1.0000   1.0000   1.0000
     1.0000   1.0000   1.0000   1.0000   1.0000   1.0000   1.0000   1.0000
     1.0000   1.0000   1.0000   1.0000   1.0000   1.0000   1.0000   1.0000
     1.0000   1.0000   1.0000   1.0000   1.0000   1.0000   1.0000   1.0000

          k = 0.0575 0.0115-0.0396 (164389 PWs)   bands (ev):

   -23.8568 -23.8512 -23.8373 -23.8249 -23.5864 -23.5852 -23.5750 -23.5681
   -19.1004 -19.0984 -19.0939 -19.0855 -18.7965 -18.7941 -18.7678 -18.7641
   -18.1860 -18.1502 -17.1461 -17.0790 -16.9958 -16.9928 -15.9953 -15.9693
   -12.0280 -12.0135 -11.9707 -11.8490 -11.7679 -11.7036 -11.6966 -11.6795
    -8.8601  -8.7138  -8.1930  -8.1628  -7.4836  -7.4627  -7.4134  -7.2371
    -7.0451  -6.7974  -6.6085  -6.4637  -6.4269  -6.4113  -6.3409  -6.2749
    -6.1974  -6.1260  -5.9136  -5.8577  -5.8169  -5.8004  -5.7304  -5.6832
    -5.5328  -5.5045  -5.4442  -5.3613  -5.0869  -4.9577  -4.8937  -4.8369
    -4.3289  -4.2907  -4.2501  -4.2235  -3.9394  -3.9292  -3.7754  -3.7693
    -3.6204  -3.5942  -3.5509  -3.4011  -3.1382  -3.0965  -2.9534  -2.9017
    -0.7299  -0.6646  -0.2347  -0.1767  -0.1604  -0.1335  -0.0667  -0.0404
    -0.0342   0.0092   0.1653   0.2502   0.2819   0.3256   0.3424   0.3707
     0.6073   0.6741   0.7054   0.7221   0.8340   0.8582   0.9290   0.9511
     1.0271   1.0546   1.1074   1.1771   1.3768   1.3954   1.4002   1.4280

     occupation numbers 
     1.0000   1.0000   1.0000   1.0000   1.0000   1.0000   1.0000   1.0000
     1.0000   1.0000   1.0000   1.0000   1.0000   1.0000   1.0000   1.0000
     1.0000   1.0000   1.0000   1.0000   1.0000   1.0000   1.0000   1.0000
     1.0000   1.0000   1.0000   1.0000   1.0000   1.0000   1.0000   1.0000
     1.0000   1.0000   1.0000   1.0000   1.0000   1.0000   1.0000   1.0000
     1.0000   1.0000   1.0000   1.0000   1.0000   1.0000   1.0000   1.0000
     1.0000   1.0000   1.0000   1.0000   1.0000   1.0000   1.0000   1.0000
     1.0000   1.0000   1.0000   1.0000   1.0000   1.0000   1.0000   1.0000
     1.0000   1.0000   1.0000   1.0000   1.0000   1.0000   1.0000   1.0000
     1.0000   1.0000   1.0000   1.0000   1.0000   1.0000   1.0000   1.0000
     1.0000   1.0000   1.0000   1.0000   1.0000   1.0000   1.0000   1.0000
     1.0000   1.0000   1.0000   1.0000   1.0000   1.0000   1.0000   1.0000
     1.0000   1.0000   1.0000   1.0000   1.0000   1.0000   1.0000   1.0000
     1.0000   1.0000   1.0000   1.0000   1.0000   1.0000   1.0000   1.0000

          k = 0.0575 0.0115-0.0047 (164374 PWs)   bands (ev):

   -23.8605 -23.8490 -23.8355 -23.8265 -23.5872 -23.5834 -23.5723 -23.5706
   -19.0997 -19.0979 -19.0902 -19.0890 -18.7881 -18.7869 -18.7736 -18.7723
   -18.1786 -18.1527 -17.1382 -17.0889 -17.0047 -17.0046 -15.9834 -15.9667
   -12.0149 -12.0045 -11.9573 -11.8580 -11.7779 -11.7139 -11.6914 -11.6885
    -8.8289  -8.7442  -8.1932  -8.1894  -7.4791  -7.4688  -7.4563  -7.3498
    -6.9377  -6.8449  -6.5724  -6.5472  -6.3963  -6.3897  -6.2322  -6.2007
    -6.1155  -6.1110  -5.8936  -5.8557  -5.7917  -5.7567  -5.7149  -5.7049
    -5.5625  -5.5459  -5.4758  -5.4672  -5.0443  -5.0238  -4.8260  -4.8227
    -4.3881  -4.3607  -4.3143  -4.2798  -3.9585  -3.9160  -3.6954  -3.6870
    -3.6099  -3.5761  -3.5377  -3.4729  -3.1032  -3.0673  -2.9537  -2.9342
    -0.6390  -0.5893  -0.2424  -0.2317  -0.1542  -0.1480  -0.1206  -0.1139
    -0.0226   0.0105   0.1229   0.1896   0.2449   0.2872   0.3834   0.4212
     0.6246   0.6855   0.7781   0.8141   0.8365   0.8735   0.9401   0.9637
     0.9961   1.0162   1.0925   1.1811   1.3673   1.3755   1.3902   1.4078

     occupation numbers 
     1.0000   1.0000   1.0000   1.0000   1.0000   1.0000   1.0000   1.0000
     1.0000   1.0000   1.0000   1.0000   1.0000   1.0000   1.0000   1.0000
     1.0000   1.0000   1.0000   1.0000   1.0000   1.0000   1.0000   1.0000
     1.0000   1.0000   1.0000   1.0000   1.0000   1.0000   1.0000   1.0000
     1.0000   1.0000   1.0000   1.0000   1.0000   1.0000   1.0000   1.0000
     1.0000   1.0000   1.0000   1.0000   1.0000   1.0000   1.0000   1.0000
     1.0000   1.0000   1.0000   1.0000   1.0000   1.0000   1.0000   1.0000
     1.0000   1.0000   1.0000   1.0000   1.0000   1.0000   1.0000   1.0000
     1.0000   1.0000   1.0000   1.0000   1.0000   1.0000   1.0000   1.0000
     1.0000   1.0000   1.0000   1.0000   1.0000   1.0000   1.0000   1.0000
     1.0000   1.0000   1.0000   1.0000   1.0000   1.0000   1.0000   1.0000
     1.0000   1.0000   1.0000   1.0000   1.0000   1.0000   1.0000   1.0000
     1.0000   1.0000   1.0000   1.0000   1.0000   1.0000   1.0000   1.0000
     1.0000   1.0000   1.0000   1.0000   1.0000   1.0000   1.0000   1.0000

          k = 0.0575 0.0344 0.0302 (164371 PWs)   bands (ev):

   -23.8564 -23.8518 -23.8320 -23.8315 -23.5823 -23.5810 -23.5761 -23.5738
   -19.1020 -19.1009 -19.0885 -19.0851 -18.7852 -18.7846 -18.7759 -18.7753
   -18.1664 -18.1663 -17.1146 -17.1137 -17.0016 -17.0007 -15.9790 -15.9780
   -12.0067 -12.0057 -11.9087 -11.9006 -11.7499 -11.7415 -11.6969 -11.6896
    -8.8092  -8.7949  -8.1948  -8.1851  -7.4722  -7.4625  -7.4171  -7.3918
    -6.9240  -6.8998  -6.5362  -6.4891  -6.3829  -6.3585  -6.2258  -6.1916
    -6.1240  -6.0945  -5.9239  -5.8944  -5.8198  -5.7928  -5.6987  -5.6753
    -5.5665  -5.5534  -5.4757  -5.4671  -5.0542  -5.0073  -4.8534  -4.8498
    -4.3783  -4.3646  -4.3096  -4.2910  -3.9202  -3.8964  -3.7219  -3.7025
    -3.6218  -3.5725  -3.4877  -3.4810  -3.0841  -3.0815  -2.9549  -2.9411
    -0.6884  -0.6827  -0.2266  -0.2181  -0.1817  -0.1609  -0.0436  -0.0223
    -0.0004   0.0166   0.1804   0.1974   0.2686   0.2839   0.4121   0.4226
     0.6638   0.6672   0.7004   0.7278   0.8368   0.8465   0.9335   0.9537
     1.0144   1.0441   1.0824   1.1074   1.3606   1.3741   1.4221   1.4377

     occupation numbers 
     1.0000   1.0000   1.0000   1.0000   1.0000   1.0000   1.0000   1.0000
     1.0000   1.0000   1.0000   1.0000   1.0000   1.0000   1.0000   1.0000
     1.0000   1.0000   1.0000   1.0000   1.0000   1.0000   1.0000   1.0000
     1.0000   1.0000   1.0000   1.0000   1.0000   1.0000   1.0000   1.0000
     1.0000   1.0000   1.0000   1.0000   1.0000   1.0000   1.0000   1.0000
     1.0000   1.0000   1.0000   1.0000   1.0000   1.0000   1.0000   1.0000
     1.0000   1.0000   1.0000   1.0000   1.0000   1.0000   1.0000   1.0000
     1.0000   1.0000   1.0000   1.0000   1.0000   1.0000   1.0000   1.0000
     1.0000   1.0000   1.0000   1.0000   1.0000   1.0000   1.0000   1.0000
     1.0000   1.0000   1.0000   1.0000   1.0000   1.0000   1.0000   1.0000
     1.0000   1.0000   1.0000   1.0000   1.0000   1.0000   1.0000   1.0000
     1.0000   1.0000   1.0000   1.0000   1.0000   1.0000   1.0000   1.0000
     1.0000   1.0000   1.0000   1.0000   1.0000   1.0000   1.0000   1.0000
     1.0000   1.0000   1.0000   1.0000   1.0000   1.0000   1.0000   1.0000

          k = 0.0575 0.0344 0.0650 (164320 PWs)   bands (ev):

   -23.8540 -23.8524 -23.8338 -23.8302 -23.5828 -23.5825 -23.5768 -23.5724
   -19.1029 -19.1021 -19.0885 -19.0845 -18.7948 -18.7938 -18.7678 -18.7663
   -18.1742 -18.1638 -17.1223 -17.1034 -16.9917 -16.9902 -15.9898 -15.9815
   -12.0222 -12.0185 -11.9217 -11.8907 -11.7368 -11.7199 -11.7001 -11.6920
    -8.8297  -8.7776  -8.1866  -8.1707  -7.4617  -7.4481  -7.3767  -7.3130
    -6.9830  -6.9025  -6.5193  -6.4595  -6.4123  -6.3969  -6.3099  -6.2524
    -6.1785  -6.1256  -5.9040  -5.8856  -5.8479  -5.8239  -5.7435  -5.7020
    -5.5517  -5.5315  -5.4062  -5.3749  -5.0573  -4.9879  -4.8990  -4.8701
    -4.3109  -4.2910  -4.2494  -4.2147  -3.8900  -3.8819  -3.8280  -3.8150
    -3.6484  -3.6093  -3.4583  -3.4207  -3.1256  -3.1114  -2.9398  -2.9143
    -0.7577  -0.7405  -0.2285  -0.2112  -0.1739  -0.1648  -0.0311  -0.0196
     0.0598   0.0722   0.2499   0.2600   0.2992   0.3115   0.4019   0.4487
     0.5378   0.5460   0.6783   0.7352   0.8043   0.8435   0.9186   0.9363
     1.0305   1.0544   1.1091   1.1248   1.3736   1.3897   1.4305   1.4498

     occupation numbers 
     1.0000   1.0000   1.0000   1.0000   1.0000   1.0000   1.0000   1.0000
     1.0000   1.0000   1.0000   1.0000   1.0000   1.0000   1.0000   1.0000
     1.0000   1.0000   1.0000   1.0000   1.0000   1.0000   1.0000   1.0000
     1.0000   1.0000   1.0000   1.0000   1.0000   1.0000   1.0000   1.0000
     1.0000   1.0000   1.0000   1.0000   1.0000   1.0000   1.0000   1.0000
     1.0000   1.0000   1.0000   1.0000   1.0000   1.0000   1.0000   1.0000
     1.0000   1.0000   1.0000   1.0000   1.0000   1.0000   1.0000   1.0000
     1.0000   1.0000   1.0000   1.0000   1.0000   1.0000   1.0000   1.0000
     1.0000   1.0000   1.0000   1.0000   1.0000   1.0000   1.0000   1.0000
     1.0000   1.0000   1.0000   1.0000   1.0000   1.0000   1.0000   1.0000
     1.0000   1.0000   1.0000   1.0000   1.0000   1.0000   1.0000   1.0000
     1.0000   1.0000   1.0000   1.0000   1.0000   1.0000   1.0000   1.0000
     1.0000   1.0000   1.0000   1.0000   1.0000   1.0000   1.0000   1.0000
     1.0000   1.0000   1.0000   1.0000   1.0000   1.0000   1.0000   1.0000

          k = 0.0575 0.0344-0.0396 (164287 PWs)   bands (ev):

   -23.8552 -23.8529 -23.8337 -23.8286 -23.5857 -23.5851 -23.5733 -23.5703
   -19.1013 -19.1009 -19.0895 -19.0865 -18.7958 -18.7948 -18.7667 -18.7652
   -18.1759 -18.1611 -17.1262 -17.0984 -16.9950 -16.9938 -15.9874 -15.9766
   -12.0278 -12.0233 -11.9355 -11.8898 -11.7398 -11.7160 -11.6919 -11.6852
    -8.8193  -8.7589  -8.1838  -8.1712  -7.4662  -7.4486  -7.3891  -7.3073
    -6.9901  -6.9013  -6.5183  -6.4755  -6.4275  -6.4070  -6.3578  -6.3018
    -6.1417  -6.0979  -5.9088  -5.8715  -5.8259  -5.8162  -5.7384  -5.7068
    -5.5320  -5.5197  -5.4041  -5.3700  -5.0729  -5.0196  -4.8654  -4.8421
    -4.3294  -4.3130  -4.2207  -4.2027  -3.9321  -3.9281  -3.7760  -3.7728
    -3.6267  -3.6174  -3.4967  -3.4389  -3.1240  -3.1058  -2.9426  -2.9205
    -0.7081  -0.6807  -0.2242  -0.2029  -0.1842  -0.1655  -0.0440  -0.0364
    -0.0035   0.0227   0.1935   0.2259   0.2907   0.3084   0.3478   0.3741
     0.6291   0.6556   0.7360   0.7380   0.8273   0.8365   0.9123   0.9194
     1.0388   1.0567   1.1337   1.1605   1.3808   1.3900   1.4057   1.4188

     occupation numbers 
     1.0000   1.0000   1.0000   1.0000   1.0000   1.0000   1.0000   1.0000
     1.0000   1.0000   1.0000   1.0000   1.0000   1.0000   1.0000   1.0000
     1.0000   1.0000   1.0000   1.0000   1.0000   1.0000   1.0000   1.0000
     1.0000   1.0000   1.0000   1.0000   1.0000   1.0000   1.0000   1.0000
     1.0000   1.0000   1.0000   1.0000   1.0000   1.0000   1.0000   1.0000
     1.0000   1.0000   1.0000   1.0000   1.0000   1.0000   1.0000   1.0000
     1.0000   1.0000   1.0000   1.0000   1.0000   1.0000   1.0000   1.0000
     1.0000   1.0000   1.0000   1.0000   1.0000   1.0000   1.0000   1.0000
     1.0000   1.0000   1.0000   1.0000   1.0000   1.0000   1.0000   1.0000
     1.0000   1.0000   1.0000   1.0000   1.0000   1.0000   1.0000   1.0000
     1.0000   1.0000   1.0000   1.0000   1.0000   1.0000   1.0000   1.0000
     1.0000   1.0000   1.0000   1.0000   1.0000   1.0000   1.0000   1.0000
     1.0000   1.0000   1.0000   1.0000   1.0000   1.0000   1.0000   1.0000
     1.0000   1.0000   1.0000   1.0000   1.0000   1.0000   1.0000   1.0000

          k = 0.0575 0.0344-0.0047 (164370 PWs)   bands (ev):

   -23.8572 -23.8525 -23.8328 -23.8291 -23.5855 -23.5839 -23.5724 -23.5715
   -19.1002 -19.0996 -19.0887 -19.0883 -18.7877 -18.7872 -18.7732 -18.7727
   -18.1712 -18.1605 -17.1237 -17.1033 -17.0047 -17.0046 -15.9784 -15.9715
   -12.0135 -12.0099 -11.9307 -11.8925 -11.7528 -11.7287 -11.6906 -11.6880
    -8.8047  -8.7697  -8.1909  -8.1876  -7.4756  -7.4714  -7.4287  -7.3845
    -6.9262  -6.8892  -6.5287  -6.5162  -6.3867  -6.3772  -6.2890  -6.2780
    -6.0682  -6.0593  -5.9053  -5.8830  -5.7844  -5.7701  -5.6950  -5.6891
    -5.5643  -5.5487  -5.4729  -5.4698  -5.0495  -5.0381  -4.8241  -4.8227
    -4.3879  -4.3708  -4.3101  -4.2862  -3.9326  -3.9150  -3.6974  -3.6949
    -3.5863  -3.5599  -3.5419  -3.5012  -3.0906  -3.0746  -2.9554  -2.9481
    -0.6229  -0.6023  -0.2271  -0.2185  -0.1713  -0.1479  -0.1414  -0.1217
    -0.0200   0.0016   0.1464   0.1752   0.2660   0.2867   0.3949   0.4158
     0.6550   0.6888   0.7572   0.7829   0.8365   0.8650   0.9472   0.9522
     1.0163   1.0291   1.1096   1.1504   1.3705   1.3725   1.3946   1.4025

     occupation numbers 
     1.0000   1.0000   1.0000   1.0000   1.0000   1.0000   1.0000   1.0000
     1.0000   1.0000   1.0000   1.0000   1.0000   1.0000   1.0000   1.0000
     1.0000   1.0000   1.0000   1.0000   1.0000   1.0000   1.0000   1.0000
     1.0000   1.0000   1.0000   1.0000   1.0000   1.0000   1.0000   1.0000
     1.0000   1.0000   1.0000   1.0000   1.0000   1.0000   1.0000   1.0000
     1.0000   1.0000   1.0000   1.0000   1.0000   1.0000   1.0000   1.0000
     1.0000   1.0000   1.0000   1.0000   1.0000   1.0000   1.0000   1.0000
     1.0000   1.0000   1.0000   1.0000   1.0000   1.0000   1.0000   1.0000
     1.0000   1.0000   1.0000   1.0000   1.0000   1.0000   1.0000   1.0000
     1.0000   1.0000   1.0000   1.0000   1.0000   1.0000   1.0000   1.0000
     1.0000   1.0000   1.0000   1.0000   1.0000   1.0000   1.0000   1.0000
     1.0000   1.0000   1.0000   1.0000   1.0000   1.0000   1.0000   1.0000
     1.0000   1.0000   1.0000   1.0000   1.0000   1.0000   1.0000   1.0000
     1.0000   1.0000   1.0000   1.0000   1.0000   1.0000   1.0000   1.0000

     highest occupied level (ev):     1.4641

!    total energy              =   -1282.04511480 Ry
     Harris-Foulkes estimate   =   -1282.04511517 Ry
     estimated scf accuracy    <       0.00000041 Ry

     total all-electron energy =     -4786.488862 Ry

     The total energy is the sum of the following terms:

     one-electron contribution =    -633.80698512 Ry
     hartree contribution      =     415.70500133 Ry
     xc contribution           =    -260.20844370 Ry
     ewald contribution        =    -473.34328581 Ry
     one-center paw contrib.   =    -330.39140150 Ry

     convergence has been achieved in  26 iterations

     Forces acting on atoms (Ry/au):

     atom    1 type  1   force =    -0.01377130   -0.00660139   -0.01011667
     atom    2 type  4   force =     0.02833816    0.00789567   -0.01789539
     atom    3 type  1   force =    -0.00097107   -0.01162437   -0.01682832
     atom    4 type  1   force =     0.01281092   -0.00481574    0.00295602
     atom    5 type  4   force =     0.00511297   -0.03549360    0.03851133
     atom    6 type  1   force =     0.01050249    0.01189338   -0.01481553
     atom    7 type  4   force =    -0.00989751    0.02128045    0.04287176
     atom    8 type  2   force =     0.15641152   -0.09971055    0.04667466
     atom    9 type  3   force =    -0.12073504   -0.05440342   -0.12453189
     atom   10 type  3   force =    -0.04055086    0.16059214    0.07163787
     atom   11 type  4   force =    -0.03736999    0.02292865   -0.01636194
     atom   12 type  2   force =     0.12093224   -0.05790468    0.21096624
     atom   13 type  3   force =    -0.19601707   -0.09839870   -0.06245324
     atom   14 type  3   force =     0.06845349    0.15572655   -0.15311220
     atom   15 type  3   force =     0.06845349   -0.15572655   -0.15311220
     atom   16 type  3   force =    -0.19601707    0.09839870   -0.06245324
     atom   17 type  2   force =     0.12093224    0.05790468    0.21096624
     atom   18 type  4   force =    -0.03736999   -0.02292865   -0.01636194
     atom   19 type  3   force =    -0.04055086   -0.16059214    0.07163787
     atom   20 type  3   force =    -0.12073504    0.05440342   -0.12453189
     atom   21 type  2   force =     0.15641152    0.09971055    0.04667466
     atom   22 type  4   force =    -0.00989751   -0.02128045    0.04287176
     atom   23 type  1   force =     0.01050249   -0.01189338   -0.01481553
     atom   24 type  4   force =     0.00511297    0.03549360    0.03851133
     atom   25 type  1   force =     0.01281092    0.00481574    0.00295602
     atom   26 type  1   force =    -0.00097107    0.01162437   -0.01682832
     atom   27 type  4   force =     0.02833816   -0.00789567   -0.01789539
     atom   28 type  1   force =    -0.01377130    0.00660139   -0.01011667
     atom   29 type  3   force =    -0.06845349   -0.15572655    0.15311220
     atom   30 type  3   force =     0.19601707    0.09839870    0.06245324
     atom   31 type  2   force =    -0.12093224    0.05790468   -0.21096624
     atom   32 type  4   force =     0.03736999   -0.02292865    0.01636194
     atom   33 type  3   force =     0.04055086   -0.16059214   -0.07163787
     atom   34 type  3   force =     0.12073504    0.05440342    0.12453189
     atom   35 type  2   force =    -0.15641152    0.09971055   -0.04667466
     atom   36 type  4   force =     0.00989751   -0.02128045   -0.04287176
     atom   37 type  1   force =    -0.01050249   -0.01189338    0.01481553
     atom   38 type  4   force =    -0.00511297    0.03549360   -0.03851133
     atom   39 type  1   force =    -0.01281092    0.00481574   -0.00295602
     atom   40 type  1   force =     0.00097107    0.01162437    0.01682832
     atom   41 type  4   force =    -0.02833816   -0.00789567    0.01789539
     atom   42 type  1   force =     0.01377130    0.00660139    0.01011667
     atom   43 type  3   force =    -0.06845349    0.15572655    0.15311220
     atom   44 type  3   force =     0.19601707   -0.09839870    0.06245324
     atom   45 type  2   force =    -0.12093224   -0.05790468   -0.21096624
     atom   46 type  4   force =     0.03736999    0.02292865    0.01636194
     atom   47 type  3   force =     0.04055086    0.16059214   -0.07163787
     atom   48 type  3   force =     0.12073504   -0.05440342    0.12453189
     atom   49 type  2   force =    -0.15641152   -0.09971055   -0.04667466
     atom   50 type  4   force =     0.00989751    0.02128045   -0.04287176
     atom   51 type  1   force =    -0.01050249    0.01189338    0.01481553
     atom   52 type  4   force =    -0.00511297   -0.03549360   -0.03851133
     atom   53 type  1   force =    -0.01281092   -0.00481574   -0.00295602
     atom   54 type  1   force =     0.00097107   -0.01162437    0.01682832
     atom   55 type  4   force =    -0.02833816    0.00789567    0.01789539
     atom   56 type  1   force =     0.01377130   -0.00660139    0.01011667
     The non-local contrib.  to forces
     atom    1 type  1   force =     0.17202867    0.37616899    0.11413073
     atom    2 type  4   force =    -2.40012180   -0.45991445    1.53843175
     atom    3 type  1   force =     0.04196237   -0.03253352    0.05494279
     atom    4 type  1   force =    -0.57615586   -0.42297105   -0.12547591
     atom    5 type  4   force =     0.16700774    1.86580396   -2.24347624
     atom    6 type  1   force =    -0.00682132    0.06269032    0.05901481
     atom    7 type  4   force =     0.53740576   -1.16896891   -2.62900667
     atom    8 type  2   force =     0.62586485   -0.42616441    0.17577584
     atom    9 type  3   force =     0.07748525    0.02685700    0.06764882
     atom   10 type  3   force =     0.02813582   -0.09641812   -0.03808887
     atom   11 type  4   force =     2.26633108   -1.47560003    0.83937630
     atom   12 type  2   force =     0.38226921   -0.19138182    0.69973402
     atom   13 type  3   force =     0.09390238    0.04780233    0.03979396
     atom   14 type  3   force =    -0.03060721   -0.07478021    0.07999413
     atom   15 type  3   force =    -0.03060721    0.07478021    0.07999413
     atom   16 type  3   force =     0.09390238   -0.04780233    0.03979396
     atom   17 type  2   force =     0.38226921    0.19138182    0.69973402
     atom   18 type  4   force =     2.26633108    1.47560003    0.83937630
     atom   19 type  3   force =     0.02813582    0.09641812   -0.03808887
     atom   20 type  3   force =     0.07748525   -0.02685700    0.06764882
     atom   21 type  2   force =     0.62586485    0.42616441    0.17577584
     atom   22 type  4   force =     0.53740576    1.16896891   -2.62900667
     atom   23 type  1   force =    -0.00682132   -0.06269032    0.05901481
     atom   24 type  4   force =     0.16700774   -1.86580396   -2.24347624
     atom   25 type  1   force =    -0.57615586    0.42297105   -0.12547591
     atom   26 type  1   force =     0.04196237    0.03253352    0.05494279
     atom   27 type  4   force =    -2.40012180    0.45991445    1.53843175
     atom   28 type  1   force =     0.17202867   -0.37616899    0.11413073
     atom   29 type  3   force =     0.03060721    0.07478021   -0.07999413
     atom   30 type  3   force =    -0.09390238   -0.04780233   -0.03979396
     atom   31 type  2   force =    -0.38226921    0.19138182   -0.69973402
     atom   32 type  4   force =    -2.26633108    1.47560003   -0.83937630
     atom   33 type  3   force =    -0.02813582    0.09641812    0.03808887
     atom   34 type  3   force =    -0.07748525   -0.02685700   -0.06764882
     atom   35 type  2   force =    -0.62586485    0.42616441   -0.17577584
     atom   36 type  4   force =    -0.53740576    1.16896891    2.62900667
     atom   37 type  1   force =     0.00682132   -0.06269032   -0.05901481
     atom   38 type  4   force =    -0.16700774   -1.86580396    2.24347624
     atom   39 type  1   force =     0.57615586    0.42297105    0.12547591
     atom   40 type  1   force =    -0.04196237    0.03253352   -0.05494279
     atom   41 type  4   force =     2.40012180    0.45991445   -1.53843175
     atom   42 type  1   force =    -0.17202867   -0.37616899   -0.11413073
     atom   43 type  3   force =     0.03060721   -0.07478021   -0.07999413
     atom   44 type  3   force =    -0.09390238    0.04780233   -0.03979396
     atom   45 type  2   force =    -0.38226921   -0.19138182   -0.69973402
     atom   46 type  4   force =    -2.26633108   -1.47560003   -0.83937630
     atom   47 type  3   force =    -0.02813582   -0.09641812    0.03808887
     atom   48 type  3   force =    -0.07748525    0.02685700   -0.06764882
     atom   49 type  2   force =    -0.62586485   -0.42616441   -0.17577584
     atom   50 type  4   force =    -0.53740576   -1.16896891    2.62900667
     atom   51 type  1   force =     0.00682132    0.06269032   -0.05901481
     atom   52 type  4   force =    -0.16700774    1.86580396    2.24347624
     atom   53 type  1   force =     0.57615586   -0.42297105    0.12547591
     atom   54 type  1   force =    -0.04196237   -0.03253352   -0.05494279
     atom   55 type  4   force =     2.40012180   -0.45991445   -1.53843175
     atom   56 type  1   force =    -0.17202867    0.37616899   -0.11413073
     The ionic contribution  to forces
     atom    1 type  1   force =    -3.03704534    0.23068460   -1.99937260
     atom    2 type  4   force =    12.20159925    4.24569638   -5.95501004
     atom    3 type  1   force =    -0.21338486    1.62447895    0.00672683
     atom    4 type  1   force =     2.80124776    2.82706232    2.02032485
     atom    5 type  4   force =    -1.30237236   -8.61145636   11.42936299
     atom    6 type  1   force =    -0.32683552    0.09668376    1.02280648
     atom    7 type  4   force =    -2.05358400    6.26876102   12.45980920
     atom    8 type  2   force =    -4.06970673    3.24941004   -1.21895625
     atom    9 type  3   force =    -2.21435278   -0.14201158   -1.96089374
     atom   10 type  3   force =    -1.22378006    2.74662803    0.69630709
     atom   11 type  4   force =   -11.13217065    6.18259145   -2.34477034
     atom   12 type  2   force =    -2.86884381    0.94443327   -4.69350685
     atom   13 type  3   force =    -2.59964860   -1.06048005   -1.58695539
     atom   14 type  3   force =     0.27688983    2.05265280   -2.52621440
     atom   15 type  3   force =     0.27688983   -2.05265280   -2.52621440
     atom   16 type  3   force =    -2.59964860    1.06048005   -1.58695539
     atom   17 type  2   force =    -2.86884381   -0.94443327   -4.69350685
     atom   18 type  4   force =   -11.13217065   -6.18259145   -2.34477034
     atom   19 type  3   force =    -1.22378006   -2.74662803    0.69630709
     atom   20 type  3   force =    -2.21435278    0.14201158   -1.96089374
     atom   21 type  2   force =    -4.06970673   -3.24941004   -1.21895625
     atom   22 type  4   force =    -2.05358400   -6.26876102   12.45980920
     atom   23 type  1   force =    -0.32683552   -0.09668376    1.02280648
     atom   24 type  4   force =    -1.30237236    8.61145636   11.42936299
     atom   25 type  1   force =     2.80124776   -2.82706232    2.02032485
     atom   26 type  1   force =    -0.21338486   -1.62447895    0.00672683
     atom   27 type  4   force =    12.20159925   -4.24569638   -5.95501004
     atom   28 type  1   force =    -3.03704534   -0.23068460   -1.99937260
     atom   29 type  3   force =    -0.27688983   -2.05265280    2.52621440
     atom   30 type  3   force =     2.59964860    1.06048005    1.58695539
     atom   31 type  2   force =     2.86884381   -0.94443327    4.69350685
     atom   32 type  4   force =    11.13217065   -6.18259145    2.34477034
     atom   33 type  3   force =     1.22378006   -2.74662803   -0.69630709
     atom   34 type  3   force =     2.21435278    0.14201158    1.96089374
     atom   35 type  2   force =     4.06970673   -3.24941004    1.21895625
     atom   36 type  4   force =     2.05358400   -6.26876102  -12.45980920
     atom   37 type  1   force =     0.32683552   -0.09668376   -1.02280648
     atom   38 type  4   force =     1.30237236    8.61145636  -11.42936299
     atom   39 type  1   force =    -2.80124776   -2.82706232   -2.02032485
     atom   40 type  1   force =     0.21338486   -1.62447895   -0.00672683
     atom   41 type  4   force =   -12.20159925   -4.24569638    5.95501004
     atom   42 type  1   force =     3.03704534   -0.23068460    1.99937260
     atom   43 type  3   force =    -0.27688983    2.05265280    2.52621440
     atom   44 type  3   force =     2.59964860   -1.06048005    1.58695539
     atom   45 type  2   force =     2.86884381    0.94443327    4.69350685
     atom   46 type  4   force =    11.13217065    6.18259145    2.34477034
     atom   47 type  3   force =     1.22378006    2.74662803   -0.69630709
     atom   48 type  3   force =     2.21435278   -0.14201158    1.96089374
     atom   49 type  2   force =     4.06970673    3.24941004    1.21895625
     atom   50 type  4   force =     2.05358400    6.26876102  -12.45980920
     atom   51 type  1   force =     0.32683552    0.09668376   -1.02280648
     atom   52 type  4   force =     1.30237236   -8.61145636  -11.42936299
     atom   53 type  1   force =    -2.80124776    2.82706232   -2.02032485
     atom   54 type  1   force =     0.21338486    1.62447895   -0.00672683
     atom   55 type  4   force =   -12.20159925    4.24569638    5.95501004
     atom   56 type  1   force =     3.03704534    0.23068460    1.99937260
     The local contribution  to forces
     atom    1 type  1   force =     2.85419831   -0.60713330    1.87701993
     atom    2 type  4   force =    -9.79199258   -3.78139895    4.41085096
     atom    3 type  1   force =     0.16989012   -1.60518581   -0.07819705
     atom    4 type  1   force =    -2.22149812   -2.41527104   -1.89364653
     atom    5 type  4   force =     1.14175677    6.72439689   -9.16469099
     atom    6 type  1   force =     0.34508151   -0.14564614   -1.09661689
     atom    7 type  4   force =     1.51043476   -5.08737030   -9.80810817
     atom    8 type  2   force =     3.61358534   -2.93245735    1.09447150
     atom    9 type  3   force =     2.01613512    0.06074831    1.76870674
     atom   10 type  3   force =     1.15510409   -2.48962986   -0.58659295
     atom   11 type  4   force =     8.84585689   -4.69548262    1.49556054
     atom   12 type  2   force =     2.61612696   -0.81498414    4.22061122
     atom   13 type  3   force =     2.30971152    0.91427976    1.48472140
     atom   14 type  3   force =    -0.17784966   -1.82213877    2.29311617
     atom   15 type  3   force =    -0.17784966    1.82213877    2.29311617
[...]
     atom   38 type  4   force =    -1.14175677   -6.72439689    9.16469099
     atom   39 type  1   force =     2.22149812    2.41527104    1.89364653
     atom   40 type  1   force =    -0.16989012    1.60518581    0.07819705
     atom   41 type  4   force =     9.79199258    3.78139895   -4.41085096
     atom   42 type  1   force =    -2.85419831    0.60713330   -1.87701993
     atom   43 type  3   force =     0.17784966   -1.82213877   -2.29311617
     atom   44 type  3   force =    -2.30971152    0.91427976   -1.48472140
     atom   45 type  2   force =    -2.61612696   -0.81498414   -4.22061122
     atom   46 type  4   force =    -8.84585689   -4.69548262   -1.49556054
     atom   47 type  3   force =    -1.15510409   -2.48962986    0.58659295
     atom   48 type  3   force =    -2.01613512    0.06074831   -1.76870674
     atom   49 type  2   force =    -3.61358534   -2.93245735   -1.09447150
     atom   50 type  4   force =    -1.51043476   -5.08737030    9.80810817
     atom   51 type  1   force =    -0.34508151   -0.14564614    1.09661689
     atom   52 type  4   force =    -1.14175677    6.72439689    9.16469099
     atom   53 type  1   force =     2.22149812   -2.41527104    1.89364653
     atom   54 type  1   force =    -0.16989012   -1.60518581    0.07819705
     atom   55 type  4   force =     9.79199258   -3.78139895   -4.41085096
     atom   56 type  1   force =    -2.85419831   -0.60713330   -1.87701993
     The core correction contribution to forces
     atom    1 type  1   force =    -0.00301656   -0.00630439   -0.00184573
     atom    2 type  4   force =     0.01870736    0.00349837   -0.01201606
     atom    3 type  1   force =     0.00036149    0.00166735    0.00001529
     atom    4 type  1   force =     0.00926198    0.00643729    0.00164236
     atom    5 type  4   force =    -0.00136657   -0.01427163    0.01737954
     atom    6 type  1   force =    -0.00112009   -0.00163565   -0.00019858
     atom    7 type  4   force =    -0.00413339    0.00888979    0.02026304
     atom    8 type  2   force =    -0.01331698    0.00950961   -0.00465735
     atom    9 type  3   force =     0.00000000    0.00000000    0.00000000
     atom   10 type  3   force =     0.00000000    0.00000000    0.00000000
     atom   11 type  4   force =    -0.01760131    0.01153163   -0.00662412
     atom   12 type  2   force =    -0.00869544    0.00403163   -0.01582474
     atom   13 type  3   force =     0.00000000    0.00000000    0.00000000
     atom   14 type  3   force =     0.00000000    0.00000000    0.00000000
     atom   15 type  3   force =     0.00000000    0.00000000    0.00000000
     atom   16 type  3   force =     0.00000000    0.00000000    0.00000000
     atom   17 type  2   force =    -0.00869544   -0.00403163   -0.01582474
     atom   18 type  4   force =    -0.01760131   -0.01153163   -0.00662412
     atom   19 type  3   force =     0.00000000    0.00000000    0.00000000
     atom   20 type  3   force =     0.00000000    0.00000000    0.00000000
     atom   21 type  2   force =    -0.01331698   -0.00950961   -0.00465735
     atom   22 type  4   force =    -0.00413339   -0.00888979    0.02026304
     atom   23 type  1   force =    -0.00112009    0.00163565   -0.00019858
     atom   24 type  4   force =    -0.00136657    0.01427163    0.01737954
     atom   25 type  1   force =     0.00926198   -0.00643729    0.00164236
     atom   26 type  1   force =     0.00036149   -0.00166735    0.00001529
     atom   27 type  4   force =     0.01870736   -0.00349837   -0.01201606
     atom   28 type  1   force =    -0.00301656    0.00630439   -0.00184573
     atom   29 type  3   force =     0.00000000    0.00000000    0.00000000
     atom   30 type  3   force =     0.00000000    0.00000000    0.00000000
     atom   31 type  2   force =     0.00869544   -0.00403163    0.01582474
     atom   32 type  4   force =     0.01760131   -0.01153163    0.00662412
     atom   33 type  3   force =     0.00000000    0.00000000    0.00000000
     atom   34 type  3   force =     0.00000000    0.00000000    0.00000000
     atom   35 type  2   force =     0.01331698   -0.00950961    0.00465735
     atom   36 type  4   force =     0.00413339   -0.00888979   -0.02026304
     atom   37 type  1   force =     0.00112009    0.00163565    0.00019858
     atom   38 type  4   force =     0.00136657    0.01427163   -0.01737954
     atom   39 type  1   force =    -0.00926198   -0.00643729   -0.00164236
     atom   40 type  1   force =    -0.00036149   -0.00166735   -0.00001529
     atom   41 type  4   force =    -0.01870736   -0.00349837    0.01201606
     atom   42 type  1   force =     0.00301656    0.00630439    0.00184573
     atom   43 type  3   force =     0.00000000    0.00000000    0.00000000
     atom   44 type  3   force =     0.00000000    0.00000000    0.00000000
     atom   45 type  2   force =     0.00869544    0.00403163    0.01582474
     atom   46 type  4   force =     0.01760131    0.01153163    0.00662412
     atom   47 type  3   force =     0.00000000    0.00000000    0.00000000
     atom   48 type  3   force =     0.00000000    0.00000000    0.00000000
     atom   49 type  2   force =     0.01331698    0.00950961    0.00465735
     atom   50 type  4   force =     0.00413339    0.00888979   -0.02026304
     atom   51 type  1   force =     0.00112009   -0.00163565    0.00019858
     atom   52 type  4   force =     0.00136657   -0.01427163   -0.01737954
     atom   53 type  1   force =    -0.00926198    0.00643729   -0.00164236
     atom   54 type  1   force =    -0.00036149    0.00166735   -0.00001529
     atom   55 type  4   force =    -0.01870736    0.00349837    0.01201606
     atom   56 type  1   force =     0.00301656   -0.00630439    0.00184573
     The Hubbard contrib.    to forces
     atom    1 type  1   force =     0.00000000    0.00000000    0.00000000
     atom    2 type  4   force =     0.00000000    0.00000000    0.00000000
     atom    3 type  1   force =     0.00000000    0.00000000    0.00000000
     atom    4 type  1   force =     0.00000000    0.00000000    0.00000000
     atom    5 type  4   force =     0.00000000    0.00000000    0.00000000
     atom    6 type  1   force =     0.00000000    0.00000000    0.00000000
     atom    7 type  4   force =     0.00000000    0.00000000    0.00000000
     atom    8 type  2   force =     0.00000000    0.00000000    0.00000000
     atom    9 type  3   force =     0.00000000    0.00000000    0.00000000
     atom   10 type  3   force =     0.00000000    0.00000000    0.00000000
     atom   11 type  4   force =     0.00000000    0.00000000    0.00000000
     atom   12 type  2   force =     0.00000000    0.00000000    0.00000000
     atom   13 type  3   force =     0.00000000    0.00000000    0.00000000
     atom   14 type  3   force =     0.00000000    0.00000000    0.00000000
     atom   15 type  3   force =     0.00000000    0.00000000    0.00000000
     atom   16 type  3   force =     0.00000000    0.00000000    0.00000000
     atom   17 type  2   force =     0.00000000    0.00000000    0.00000000
     atom   18 type  4   force =     0.00000000    0.00000000    0.00000000
     atom   19 type  3   force =     0.00000000    0.00000000    0.00000000
     atom   20 type  3   force =     0.00000000    0.00000000    0.00000000
     atom   21 type  2   force =     0.00000000    0.00000000    0.00000000
     atom   22 type  4   force =     0.00000000    0.00000000    0.00000000
     atom   23 type  1   force =     0.00000000    0.00000000    0.00000000
     atom   24 type  4   force =     0.00000000    0.00000000    0.00000000
     atom   25 type  1   force =     0.00000000    0.00000000    0.00000000
     atom   26 type  1   force =     0.00000000    0.00000000    0.00000000
     atom   27 type  4   force =     0.00000000    0.00000000    0.00000000
     atom   28 type  1   force =     0.00000000    0.00000000    0.00000000
     atom   29 type  3   force =     0.00000000    0.00000000    0.00000000
     atom   30 type  3   force =     0.00000000    0.00000000    0.00000000
     atom   31 type  2   force =     0.00000000    0.00000000    0.00000000
     atom   32 type  4   force =     0.00000000    0.00000000    0.00000000
     atom   33 type  3   force =     0.00000000    0.00000000    0.00000000
     atom   34 type  3   force =     0.00000000    0.00000000    0.00000000
     atom   35 type  2   force =     0.00000000    0.00000000    0.00000000
     atom   36 type  4   force =     0.00000000    0.00000000    0.00000000
     atom   37 type  1   force =     0.00000000    0.00000000    0.00000000
     atom   38 type  4   force =     0.00000000    0.00000000    0.00000000
     atom   39 type  1   force =     0.00000000    0.00000000    0.00000000
     atom   40 type  1   force =     0.00000000    0.00000000    0.00000000
     atom   41 type  4   force =     0.00000000    0.00000000    0.00000000
     atom   42 type  1   force =     0.00000000    0.00000000    0.00000000
     atom   43 type  3   force =     0.00000000    0.00000000    0.00000000
     atom   44 type  3   force =     0.00000000    0.00000000    0.00000000
     atom   45 type  2   force =     0.00000000    0.00000000    0.00000000
     atom   46 type  4   force =     0.00000000    0.00000000    0.00000000
     atom   47 type  3   force =     0.00000000    0.00000000    0.00000000
     atom   48 type  3   force =     0.00000000    0.00000000    0.00000000
     atom   49 type  2   force =     0.00000000    0.00000000    0.00000000
     atom   50 type  4   force =     0.00000000    0.00000000    0.00000000
     atom   51 type  1   force =     0.00000000    0.00000000    0.00000000
     atom   52 type  4   force =     0.00000000    0.00000000    0.00000000
     atom   53 type  1   force =     0.00000000    0.00000000    0.00000000
     atom   54 type  1   force =     0.00000000    0.00000000    0.00000000
     atom   55 type  4   force =     0.00000000    0.00000000    0.00000000
     atom   56 type  1   force =     0.00000000    0.00000000    0.00000000
     The SCF correction term to forces
     atom    1 type  1   force =     0.00006362   -0.00001728   -0.00004899
     atom    2 type  4   force =     0.00014594    0.00001433   -0.00015200
     atom    3 type  1   force =     0.00019982   -0.00005133   -0.00031617
     atom    4 type  1   force =    -0.00004484   -0.00007326    0.00011125
     atom    5 type  4   force =     0.00008739    0.00003355   -0.00006396
     atom    6 type  1   force =     0.00019791   -0.00019890    0.00017864
     atom    7 type  4   force =    -0.00002064   -0.00003115   -0.00008564
     atom    8 type  2   force =    -0.00001495   -0.00000846    0.00004091
     atom    9 type  3   force =    -0.00000263    0.00000285    0.00000629
     atom   10 type  3   force =    -0.00001071    0.00001209    0.00001260
     atom   11 type  4   force =     0.00021399   -0.00011178    0.00009568
     atom   12 type  2   force =     0.00007532   -0.00000362   -0.00004740
     atom   13 type  3   force =     0.00001762   -0.00000074   -0.00001321
     atom   14 type  3   force =     0.00002053   -0.00000727   -0.00000811
     atom   15 type  3   force =     0.00002053    0.00000727   -0.00000811
     atom   16 type  3   force =     0.00001762    0.00000074   -0.00001321
     atom   17 type  2   force =     0.00007532    0.00000362   -0.00004740
     atom   18 type  4   force =     0.00021399    0.00011178    0.00009568
     atom   19 type  3   force =    -0.00001071   -0.00001209    0.00001260
     atom   20 type  3   force =    -0.00000263   -0.00000285    0.00000629
     atom   21 type  2   force =    -0.00001495    0.00000846    0.00004091
     atom   22 type  4   force =    -0.00002064    0.00003115   -0.00008564
     atom   23 type  1   force =     0.00019791    0.00019890    0.00017864
     atom   24 type  4   force =     0.00008739   -0.00003355   -0.00006396
     atom   25 type  1   force =    -0.00004484    0.00007326    0.00011125
     atom   26 type  1   force =     0.00019982    0.00005133   -0.00031617
     atom   27 type  4   force =     0.00014594   -0.00001433   -0.00015200
     atom   28 type  1   force =     0.00006362    0.00001728   -0.00004899
     atom   29 type  3   force =    -0.00002053    0.00000727    0.00000811
     atom   30 type  3   force =    -0.00001762    0.00000074    0.00001321
     atom   31 type  2   force =    -0.00007532    0.00000362    0.00004740
     atom   32 type  4   force =    -0.00021399    0.00011178   -0.00009568
     atom   33 type  3   force =     0.00001071   -0.00001209   -0.00001260
     atom   34 type  3   force =     0.00000263   -0.00000285   -0.00000629
     atom   35 type  2   force =     0.00001495    0.00000846   -0.00004091
     atom   36 type  4   force =     0.00002064    0.00003115    0.00008564
     atom   37 type  1   force =    -0.00019791    0.00019890   -0.00017864
     atom   38 type  4   force =    -0.00008739   -0.00003355    0.00006396
     atom   39 type  1   force =     0.00004484    0.00007326   -0.00011125
     atom   40 type  1   force =    -0.00019982    0.00005133    0.00031617
     atom   41 type  4   force =    -0.00014594   -0.00001433    0.00015200
     atom   42 type  1   force =    -0.00006362    0.00001728    0.00004899
     atom   43 type  3   force =    -0.00002053   -0.00000727    0.00000811
     atom   44 type  3   force =    -0.00001762   -0.00000074    0.00001321
     atom   45 type  2   force =    -0.00007532   -0.00000362    0.00004740
     atom   46 type  4   force =    -0.00021399   -0.00011178   -0.00009568
     atom   47 type  3   force =     0.00001071    0.00001209   -0.00001260
     atom   48 type  3   force =     0.00000263    0.00000285   -0.00000629
     atom   49 type  2   force =     0.00001495   -0.00000846   -0.00004091
     atom   50 type  4   force =     0.00002064   -0.00003115    0.00008564
     atom   51 type  1   force =    -0.00019791   -0.00019890   -0.00017864
     atom   52 type  4   force =    -0.00008739    0.00003355    0.00006396
     atom   53 type  1   force =     0.00004484   -0.00007326   -0.00011125
     atom   54 type  1   force =    -0.00019982   -0.00005133    0.00031617
     atom   55 type  4   force =    -0.00014594    0.00001433    0.00015200
     atom   56 type  1   force =    -0.00006362   -0.00001728    0.00004899

     Total force =     1.056450     Total SCF correction =     0.001303


     entering subroutine stress ...

          total   stress  (Ry/bohr**3)                   (kbar)     P=  138.34
   0.00097541   0.00000000   0.00012012        143.49      0.00     17.67
   0.00000000   0.00094951   0.00000000          0.00    139.68      0.00
   0.00012012   0.00000000   0.00089638         17.67      0.00    131.86

     kinetic stress (kbar)  15309.44      0.00    336.19
                                0.00  15728.51      0.00
                              336.19      0.00  15260.42

     local   stress (kbar) -15742.63     -0.00   7918.99
                               -0.00  -8767.80      0.00
                             7918.99      0.00 -11904.93

     nonloc. stress (kbar)   1036.18      0.00     11.03
                                0.00   1046.25      0.00
                               11.03      0.00   1006.19

     hartree stress (kbar)   7095.20     -0.00  -2890.46
                               -0.00   5050.02      0.00
                            -2890.46      0.00   5625.67

     exc-cor stress (kbar)  -2207.74     -0.00    -10.98
                               -0.00  -2228.28     -0.00
                              -10.98     -0.00  -2213.42

     corecor stress (kbar)  -1147.19     -0.00     -2.79
                               -0.00  -1149.17     -0.00
                               -2.79     -0.00  -1146.85

     ewald   stress (kbar)  -4199.77      0.00  -5344.31
                                0.00  -9539.87      0.00
                            -5344.31      0.00  -6495.22

     hubbard stress (kbar)      0.00      0.00      0.00
                                0.00      0.00      0.00
                                0.00      0.00      0.00

     london  stress (kbar)      0.00      0.00      0.00
                                0.00      0.00      0.00
                                0.00      0.00      0.00

     XDM     stress (kbar)      0.00      0.00      0.00
                                0.00      0.00      0.00
                                0.00      0.00      0.00

     dft-nl  stress (kbar)      0.00      0.00      0.00
                                0.00      0.00      0.00
                                0.00      0.00      0.00

     TS-vdW  stress (kbar)      0.00      0.00      0.00
                                0.00      0.00      0.00
                                0.00      0.00      0.00



     Writing output data file scf.pbe.ec-200.kp-444.HMX-792932.np-8.default-conv-thr.save

     init_run     :   1161.20s CPU   1393.36s WALL (       1 calls)
     electrons    :  52722.26s CPU  94770.96s WALL (       1 calls)
     forces       :    608.83s CPU   2924.00s WALL (       1 calls)
     stress       :   1781.78s CPU   3018.61s WALL (       1 calls)

     Called by init_run:
     wfcinit      :    813.11s CPU   1027.66s WALL (       1 calls)
     potinit      :    107.74s CPU    111.01s WALL (       1 calls)

     Called by electrons:
     c_bands      :  44429.60s CPU  70130.70s WALL (      26 calls)
     sum_band     :   7333.47s CPU  16446.08s WALL (      26 calls)
     v_of_rho     :    194.00s CPU    621.98s WALL (      27 calls)
     v_h          :     19.60s CPU     21.55s WALL (      27 calls)
     v_xc         :    186.38s CPU    678.41s WALL (      29 calls)
     newd         :    675.86s CPU   5458.54s WALL (      27 calls)
     PAW_pot      :     19.45s CPU     36.91s WALL (      27 calls)
     mix_rho      :     66.64s CPU   1556.46s WALL (      26 calls)

     Called by c_bands:
     init_us_2    :    220.42s CPU    593.95s WALL (     880 calls)
     cegterg      :  43698.79s CPU  63807.43s WALL (     416 calls)

     Called by sum_band:
     sum_band:bec :      0.48s CPU      1.29s WALL (     416 calls)
     addusdens    :    894.95s CPU   7133.74s WALL (      26 calls)

     Called by *egterg:
     h_psi        :  25585.27s CPU  42235.44s WALL (    1909 calls)
     s_psi        :   4192.38s CPU   4590.71s WALL (    1909 calls)
     g_psi        :     29.61s CPU     37.44s WALL (    1477 calls)
     cdiaghg      :    409.53s CPU    517.77s WALL (    1893 calls)
     cegterg:over :   6645.99s CPU   7923.71s WALL (    1477 calls)
     cegterg:upda :   2236.67s CPU   2315.93s WALL (    1477 calls)
     cegterg:last :   1332.90s CPU   1519.56s WALL (     416 calls)

     Called by h_psi:
     h_psi:vloc   :  14339.48s CPU  15825.20s WALL (    1909 calls)
     h_psi:vnl    :  11062.64s CPU  26220.66s WALL (    1909 calls)
     add_vuspsi   :   4284.36s CPU   6950.14s WALL (    1909 calls)

     General routines
     calbec       :   9380.12s CPU  22290.90s WALL (    2405 calls)
     fft          :    264.83s CPU    592.61s WALL (     453 calls)
     ffts         :     14.09s CPU     51.05s WALL (      53 calls)
     fftw         :   9742.31s CPU  11281.89s WALL (  293488 calls)
     interpolate  :     52.22s CPU    459.13s WALL (      53 calls)
     davcio       :      1.78s CPU    113.55s WALL (      16 calls)

     Parallel routines
     fft_scatter  :   4197.16s CPU   5900.40s WALL (  293994 calls)

     PAW routines
     PAW_pot      :     19.45s CPU     36.91s WALL (      27 calls)
     PAW_symme    :      0.35s CPU      3.06s WALL (      53 calls)

     PWSCF        :     0d   15h38m CPU        1d    4h29m WALL


   This run was terminated on:   4:56:24   2Jun2016            

=------------------------------------------------------------------------------=
   JOB DONE.
=------------------------------------------------------------------------------=
