
     Program PWSCF v.5.3.0 (svn rev. 11974) starts on 26Jun2016 at  0:26:13 

     This program is part of the open-source Quantum ESPRESSO suite
     for quantum simulation of materials; please cite
         "P. Giannozzi et al., J. Phys.:Condens. Matter 21 395502 (2009);
          URL http://www.quantum-espresso.org", 
     in publications or presentations arising from this work. More details at
     http://www.quantum-espresso.org/quote

     Parallel version (MPI), running on     8 processors
     R & G space division:  proc/nbgrp/npool/nimage =       8
     Waiting for input...
     Reading input from standard input
Warning: card    &IONS ignored
Warning: card TRUST_RADIUS_MAX=0.2 ignored
Warning: card / ignored
Warning: card     &CELL ignored
Warning: card CELL_DYNAMICS='BFGS' ignored
Warning: card / ignored

     Current dimensions of program PWSCF are:
     Max number of different atomic species (ntypx) = 10
     Max number of k-points (npk) =  40000
     Max angular momentum in pseudopotentials (lmaxx) =  3
               file N.pbe-n-kjpaw_psl.1.0.0.UPF: wavefunction(s)  2S renormalized
               file C.pbe-n-kjpaw_psl.1.0.0.UPF: wavefunction(s)  2S 2P renormalized
               file H.pbe-kjpaw_psl.1.0.0.UPF: wavefunction(s)  1S renormalized
               file O.pbe-n-kjpaw_psl.1.0.0.UPF: wavefunction(s)  2S 2P renormalized

     Subspace diagonalization in iterative solution of the eigenvalue problem:
     a serial algorithm will be used


     Parallelization info
     --------------------
     sticks:   dense  smooth     PW     G-vecs:    dense   smooth      PW
     Min        4549    1820    475               554688   140316   18786
     Max        4550    1821    476               554690   140350   18787
     Sum       36393   14561   3803              4437509  1122695  150289


     Title: 
     HMX-scf--kp-444-ec-180-default-conv-thr                                    


     bravais-lattice index     =            0
     lattice parameter (alat)  =       1.8897  a.u.
     unit-cell volume          =    3441.1511 (a.u.)^3
     number of atoms/cell      =           56
     number of atomic types    =            4
     number of electrons       =       224.00
     number of Kohn-Sham states=          112
     kinetic-energy cutoff     =     180.0000  Ry
     charge density cutoff     =    1800.0000  Ry
     convergence threshold     =      1.0E-06
     mixing beta               =       0.7000
     number of iterations used =            8  plain     mixing
     Exchange-correlation      =  SLA  PW   PBX  PBC ( 1  4  3  4 0 0)

     celldm(1)=   1.889726  celldm(2)=   0.000000  celldm(3)=   0.000000
     celldm(4)=   0.000000  celldm(5)=   0.000000  celldm(6)=   0.000000

     crystal axes: (cart. coord. in units of alat)
               a(1) = (   6.520600   0.000000   0.000000 )  
               a(2) = (   0.000000  10.912300   0.000000 )  
               a(3) = (  -1.584431   0.000000   7.166438 )  

     reciprocal axes: (cart. coord. in units 2 pi/alat)
               b(1) = (  0.153360 -0.000000  0.033906 )  
               b(2) = (  0.000000  0.091640 -0.000000 )  
               b(3) = (  0.000000  0.000000  0.139539 )  


     PseudoPot. # 1 for  N read from file:
     /users/majewski/.data/PSEUDOPOTENTIALS/N.pbe-n-kjpaw_psl.1.0.0.UPF
     MD5 check sum: c21df8f53e59d08c3548513d559cdda6
     Pseudo is Projector augmented-wave + core cor, Zval =  5.0
     Generated using "atomic" code by A. Dal Corso  v.5.3.0 svn rev. 11974
     Shape of augmentation charge: PSQ
     Using radial grid of 1085 points,  4 beta functions with: 
                l(1) =   0
                l(2) =   0
                l(3) =   1
                l(4) =   1
     Q(r) pseudized with 0 coefficients 


     PseudoPot. # 2 for  C read from file:
     /users/majewski/.data/PSEUDOPOTENTIALS/C.pbe-n-kjpaw_psl.1.0.0.UPF
     MD5 check sum: 2ba8448e293caca687844dde9a1b88a8
     Pseudo is Projector augmented-wave + core cor, Zval =  4.0
     Generated using "atomic" code by A. Dal Corso  v.5.3.0 svn rev. 11974
     Shape of augmentation charge: PSQ
     Using radial grid of 1073 points,  4 beta functions with: 
                l(1) =   0
                l(2) =   0
                l(3) =   1
                l(4) =   1
     Q(r) pseudized with 0 coefficients 


     PseudoPot. # 3 for  H read from file:
     /users/majewski/.data/PSEUDOPOTENTIALS/H.pbe-kjpaw_psl.1.0.0.UPF
     MD5 check sum: bc0feb48a24907a0b97fa6ee2d589a29
     Pseudo is Projector augmented-wave, Zval =  1.0
     Generated using "atomic" code by A. Dal Corso  v.5.3.0 svn rev. 11974
     Shape of augmentation charge: PSQ
     Using radial grid of  929 points,  2 beta functions with: 
                l(1) =   0
                l(2) =   0
     Q(r) pseudized with 0 coefficients 


     PseudoPot. # 4 for  O read from file:
     /users/majewski/.data/PSEUDOPOTENTIALS/O.pbe-n-kjpaw_psl.1.0.0.UPF
     MD5 check sum: 9c0ade6c043cf4a781bde3908a3a8206
     Pseudo is Projector augmented-wave + core cor, Zval =  6.0
     Generated using "atomic" code by A. Dal Corso  v.5.3.0 svn rev. 11974
     Shape of augmentation charge: PSQ
     Using radial grid of 1095 points,  4 beta functions with: 
                l(1) =   0
                l(2) =   0
                l(3) =   1
                l(4) =   1
     Q(r) pseudized with 0 coefficients 


     atomic species   valence    mass     pseudopotential
        N              5.00    14.00670      N( 1.00)
        C              4.00    12.01100      C( 1.00)
        H              1.00     1.00790      H( 1.00)
        O              6.00    15.99940      O( 1.00)

      4 Sym. Ops., with inversion, found ( 2 have fractional translation)


                                    s                        frac. trans.

      isym =  1     identity                                     

 cryst.   s( 1) = (     1          0          0      )
                  (     0          1          0      )
                  (     0          0          1      )

 cart.    s( 1) = (  1.0000000  0.0000000  0.0000000 )
                  (  0.0000000  1.0000000  0.0000000 )
                  (  0.0000000  0.0000000  1.0000000 )


      isym =  2     180 deg rotation - cart. axis [0,1,0]        

 cryst.   s( 2) = (    -1          0          0      )    f =(  0.5000000 )
                  (     0          1          0      )       (  0.5000000 )
                  (     0          0         -1      )       (  0.5000000 )

 cart.    s( 2) = ( -1.0000000  0.0000000  0.0000000 )    f =(  2.4680844 )
                  (  0.0000000  1.0000000  0.0000000 )       (  5.4561500 )
                  (  0.0000000  0.0000000 -1.0000000 )       (  3.5832191 )


      isym =  3     inversion                                    

 cryst.   s( 3) = (    -1          0          0      )
                  (     0         -1          0      )
                  (     0          0         -1      )

 cart.    s( 3) = ( -1.0000000  0.0000000  0.0000000 )
                  (  0.0000000 -1.0000000  0.0000000 )
                  (  0.0000000  0.0000000 -1.0000000 )


      isym =  4     inv. 180 deg rotation - cart. axis [0,1,0]   

 cryst.   s( 4) = (     1          0          0      )    f =( -0.5000000 )
                  (     0         -1          0      )       (  0.5000000 )
                  (     0          0          1      )       (  0.5000000 )

 cart.    s( 4) = (  1.0000000  0.0000000  0.0000000 )    f =( -4.0525156 )
                  (  0.0000000 -1.0000000  0.0000000 )       (  5.4561500 )
                  (  0.0000000  0.0000000  1.0000000 )       (  3.5832191 )


   Cartesian axes

     site n.     atom                  positions (alat units)
         1           N   tau(   1) = (  -0.8514256   6.7994541   3.2965616  )
         2           O   tau(   2) = (   1.0861733   7.8571834   3.1181173  )
         3           N   tau(   3) = (   0.0767309   7.6782216   3.7996456  )
         4           N   tau(   4) = (  -2.0523401   5.7423796   5.0623720  )
         5           O   tau(   5) = (  -3.2492170   4.6814858   6.6152675  )
         6           N   tau(   6) = (  -3.2346090   5.4771016   5.6880021  )
         7           O   tau(   7) = (  -0.1591847   8.1664380   4.8932441  )
         8           C   tau(   8) = (  -2.1226123   6.7208856   3.9616071  )
         9           H   tau(   9) = (  -2.8210125   6.4469868   3.3159110  )
        10           H   tau(  10) = (  -2.3671219   7.6102380   4.3213623  )
        11           O   tau(  11) = (  -4.2070896   6.1208182   5.2845316  )
        12           C   tau(  12) = (  -0.5868989   6.1719969   2.0116192  )
        13           H   tau(  13) = (  -1.4066974   5.7518733   1.7056123  )
        14           H   tau(  14) = (  -0.3093298   6.8136401   1.3401240  )
        15           H   tau(  15) = (   3.7431858  -1.3574901  -2.2430952  )
        16           H   tau(  16) = (   2.6458182  -0.2957233  -1.8776068  )
        17           C   tau(  17) = (   3.4656167  -0.7158469  -1.5715999  )
        18           O   tau(  18) = (  -0.1545740  -0.6646682   1.7013125  )
        19           H   tau(  19) = (   1.6853937  -2.1540880   0.7381431  )
        20           H   tau(  20) = (   1.2315032  -0.9908368  -0.2673081  )
        21           C   tau(  21) = (   1.9299033  -1.2647356   0.3783879  )
        22           O   tau(  22) = (   3.8933309  -2.7102880   1.3100249  )
        23           N   tau(  23) = (   0.8179066  -0.0209516   2.1047829  )
        24           O   tau(  24) = (   0.8032986   0.7746642   3.0320484  )
        25           N   tau(  25) = (   2.0001755  -0.2862296   1.4791529  )
        26           N   tau(  26) = (   4.1292465  -2.2220716   0.2164264  )
        27           O   tau(  27) = (   5.1386890  -2.4010334  -0.4651018  )
        28           N   tau(  28) = (   3.2010900  -1.3433041  -0.2866575  )
        29           H   tau(  29) = (  -1.2751014   4.0986599   5.8263143  )
        30           H   tau(  30) = (  -0.1777339   5.1604267   5.4608260  )
        31           C   tau(  31) = (  -0.9975323   4.7403031   5.1548191  )
        32           O   tau(  32) = (   2.6226584   4.7914818   1.8819067  )
        33           H   tau(  33) = (   0.7826907   3.3020620   2.8450760  )
        34           H   tau(  34) = (   1.2365812   4.4653132   3.8505273  )
        35           C   tau(  35) = (   0.5381811   4.1914144   3.2048312  )
        36           O   tau(  36) = (  -1.4252465   2.7458620   2.2731942  )
        37           N   tau(  37) = (   1.6501778   5.4351984   1.4784362  )
        38           O   tau(  38) = (   1.6647858   6.2308142   0.5511708  )
        39           N   tau(  39) = (   0.4679088   5.1699204   2.1040663  )
        40           N   tau(  40) = (  -1.6611622   3.2340784   3.3667927  )
        41           O   tau(  41) = (  -2.6706046   3.0551166   4.0483210  )
        42           N   tau(  42) = (  -0.7330056   4.1128459   3.8698767  )
        43           H   tau(  43) = (   2.7774142   1.3574901   2.2430952  )
        44           H   tau(  44) = (   3.8747818   0.2957233   1.8776068  )
        45           C   tau(  45) = (   3.0549833   0.7158469   1.5715999  )
        46           O   tau(  46) = (   6.6751740   0.6646682  -1.7013125  )
        47           H   tau(  47) = (   4.8352063   2.1540880  -0.7381431  )
        48           H   tau(  48) = (   5.2890968   0.9908368   0.2673081  )
        49           C   tau(  49) = (   4.5906967   1.2647356  -0.3783879  )
        50           O   tau(  50) = (   2.6272691   2.7102880  -1.3100249  )
        51           N   tau(  51) = (   5.7026934   0.0209516  -2.1047829  )
        52           O   tau(  52) = (   5.7173014  -0.7746642  -3.0320484  )
        53           N   tau(  53) = (   4.5204245   0.2862296  -1.4791529  )
        54           N   tau(  54) = (   2.3913535   2.2220716  -0.2164264  )
        55           O   tau(  55) = (   1.3819110   2.4010334   0.4651018  )
        56           N   tau(  56) = (   3.3195100   1.3433041   0.2866575  )

   Crystallographic axes

     site n.     atom                  positions (cryst. coord.)
         1           N   tau(   1) = ( -0.0188000  0.6231000  0.4600000  )
         2           O   tau(   2) = (  0.2723000  0.7200300  0.4351000  )
         3           N   tau(   3) = (  0.1406000  0.7036300  0.5302000  )
         4           N   tau(   4) = ( -0.1431000  0.5262300  0.7064000  )
         5           O   tau(   5) = ( -0.2740000  0.4290100  0.9230900  )
         6           N   tau(   6) = ( -0.3032000  0.5019200  0.7937000  )
         7           O   tau(   7) = (  0.1415000  0.7483700  0.6828000  )
         8           C   tau(   8) = ( -0.1912000  0.6159000  0.5528000  )
         9           H   tau(   9) = ( -0.3202000  0.5908000  0.4627000  )
        10           H   tau(  10) = ( -0.2165000  0.6974000  0.6030000  )
        11           O   tau(  11) = ( -0.4660200  0.5609100  0.7374000  )
        12           C   tau(  12) = ( -0.0218000  0.5656000  0.2807000  )
        13           H   tau(  13) = ( -0.1579000  0.5271000  0.2380000  )
        14           H   tau(  14) = ( -0.0020000  0.6244000  0.1870000  )
        15           H   tau(  15) = (  0.4980000 -0.1244000 -0.3130000  )
        16           H   tau(  16) = (  0.3421000 -0.0271000 -0.2620000  )
        17           C   tau(  17) = (  0.4782000 -0.0656000 -0.2193000  )
        18           O   tau(  18) = (  0.0339800 -0.0609100  0.2374000  )
        19           H   tau(  19) = (  0.2835000 -0.1974000  0.1030000  )
        20           H   tau(  20) = (  0.1798000 -0.0908000 -0.0373000  )
        21           C   tau(  21) = (  0.3088000 -0.1159000  0.0528000  )
        22           O   tau(  22) = (  0.6415000 -0.2483700  0.1828000  )
        23           N   tau(  23) = (  0.1968000 -0.0019200  0.2937000  )
        24           O   tau(  24) = (  0.2260000  0.0709900  0.4230900  )
        25           N   tau(  25) = (  0.3569000 -0.0262300  0.2064000  )
        26           N   tau(  26) = (  0.6406000 -0.2036300  0.0302000  )
        27           O   tau(  27) = (  0.7723000 -0.2200300 -0.0649000  )
        28           N   tau(  28) = (  0.4812000 -0.1231000 -0.0400000  )
        29           H   tau(  29) = (  0.0020000  0.3756000  0.8130000  )
        30           H   tau(  30) = (  0.1579000  0.4729000  0.7620000  )
        31           C   tau(  31) = (  0.0218000  0.4344000  0.7193000  )
        32           O   tau(  32) = (  0.4660200  0.4390900  0.2626000  )
        33           H   tau(  33) = (  0.2165000  0.3026000  0.3970000  )
        34           H   tau(  34) = (  0.3202000  0.4092000  0.5373000  )
        35           C   tau(  35) = (  0.1912000  0.3841000  0.4472000  )
        36           O   tau(  36) = ( -0.1415000  0.2516300  0.3172000  )
        37           N   tau(  37) = (  0.3032000  0.4980800  0.2063000  )
        38           O   tau(  38) = (  0.2740000  0.5709900  0.0769100  )
        39           N   tau(  39) = (  0.1431000  0.4737700  0.2936000  )
        40           N   tau(  40) = ( -0.1406000  0.2963700  0.4698000  )
        41           O   tau(  41) = ( -0.2723000  0.2799700  0.5649000  )
        42           N   tau(  42) = (  0.0188000  0.3769000  0.5400000  )
        43           H   tau(  43) = (  0.5020000  0.1244000  0.3130000  )
        44           H   tau(  44) = (  0.6579000  0.0271000  0.2620000  )
        45           C   tau(  45) = (  0.5218000  0.0656000  0.2193000  )
        46           O   tau(  46) = (  0.9660200  0.0609100 -0.2374000  )
        47           H   tau(  47) = (  0.7165000  0.1974000 -0.1030000  )
        48           H   tau(  48) = (  0.8202000  0.0908000  0.0373000  )
        49           C   tau(  49) = (  0.6912000  0.1159000 -0.0528000  )
        50           O   tau(  50) = (  0.3585000  0.2483700 -0.1828000  )
        51           N   tau(  51) = (  0.8032000  0.0019200 -0.2937000  )
        52           O   tau(  52) = (  0.7740000 -0.0709900 -0.4230900  )
        53           N   tau(  53) = (  0.6431000  0.0262300 -0.2064000  )
        54           N   tau(  54) = (  0.3594000  0.2036300 -0.0302000  )
        55           O   tau(  55) = (  0.2277000  0.2200300  0.0649000  )
        56           N   tau(  56) = (  0.5188000  0.1231000  0.0400000  )

     number of k points=    16
                       cart. coord. in units 2pi/alat
        k(    1) = (   0.0191700   0.0114550   0.0216807), wk =   0.1250000
        k(    2) = (   0.0191700   0.0114550   0.0565656), wk =   0.1250000
        k(    3) = (   0.0191700   0.0114550  -0.0480889), wk =   0.1250000
        k(    4) = (   0.0191700   0.0114550  -0.0132041), wk =   0.1250000
        k(    5) = (   0.0191700   0.0343649   0.0216807), wk =   0.1250000
        k(    6) = (   0.0191700   0.0343649   0.0565656), wk =   0.1250000
        k(    7) = (   0.0191700   0.0343649  -0.0480889), wk =   0.1250000
        k(    8) = (   0.0191700   0.0343649  -0.0132041), wk =   0.1250000
        k(    9) = (   0.0575100   0.0114550   0.0301573), wk =   0.1250000
        k(   10) = (   0.0575100   0.0114550   0.0650422), wk =   0.1250000
        k(   11) = (   0.0575100   0.0114550  -0.0396123), wk =   0.1250000
        k(   12) = (   0.0575100   0.0114550  -0.0047275), wk =   0.1250000
        k(   13) = (   0.0575100   0.0343649   0.0301573), wk =   0.1250000
        k(   14) = (   0.0575100   0.0343649   0.0650422), wk =   0.1250000
        k(   15) = (   0.0575100   0.0343649  -0.0396123), wk =   0.1250000
        k(   16) = (   0.0575100   0.0343649  -0.0047275), wk =   0.1250000

                       cryst. coord.
        k(    1) = (   0.1250000   0.1250000   0.1250000), wk =   0.1250000
        k(    2) = (   0.1250000   0.1250000   0.3750000), wk =   0.1250000
        k(    3) = (   0.1250000   0.1250000  -0.3750000), wk =   0.1250000
        k(    4) = (   0.1250000   0.1250000  -0.1250000), wk =   0.1250000
        k(    5) = (   0.1250000   0.3750000   0.1250000), wk =   0.1250000
        k(    6) = (   0.1250000   0.3750000   0.3750000), wk =   0.1250000
        k(    7) = (   0.1250000   0.3750000  -0.3750000), wk =   0.1250000
        k(    8) = (   0.1250000   0.3750000  -0.1250000), wk =   0.1250000
        k(    9) = (   0.3750000   0.1250000   0.1250000), wk =   0.1250000
        k(   10) = (   0.3750000   0.1250000   0.3750000), wk =   0.1250000
        k(   11) = (   0.3750000   0.1250000  -0.3750000), wk =   0.1250000
        k(   12) = (   0.3750000   0.1250000  -0.1250000), wk =   0.1250000
        k(   13) = (   0.3750000   0.3750000   0.1250000), wk =   0.1250000
        k(   14) = (   0.3750000   0.3750000   0.3750000), wk =   0.1250000
        k(   15) = (   0.3750000   0.3750000  -0.3750000), wk =   0.1250000
        k(   16) = (   0.3750000   0.3750000  -0.1250000), wk =   0.1250000

     Dense  grid:  4437509 G-vectors     FFT dimensions: ( 180, 288, 192)

     Smooth grid:  1122695 G-vectors     FFT dimensions: ( 108, 180, 120)

     Largest allocated arrays     est. size (Mb)     dimensions
        Kohn-Sham Wavefunctions        30.03 Mb     (   17574,  112)
        NL pseudopotentials            94.39 Mb     (   17574,  352)
        Each V/rho on FFT grid         18.98 Mb     ( 1244160)
        Each G-vector array             4.23 Mb     (  554690)
        G-vector shells                 3.87 Mb     (  507296)
     Largest temporary arrays     est. size (Mb)     dimensions
        Auxiliary wavefunctions       120.13 Mb     (   17574,  448)
        Each subspace H/S matrix        3.06 Mb     (     448,  448)
        Each <psi_i|beta_j> matrix      0.60 Mb     (     352,  112)
        Arrays for rho mixing         151.88 Mb     ( 1244160,    8)

     Initial potential from superposition of free atoms

     starting charge  223.99937, renormalised to  224.00000
     Starting wfc are  176 randomized atomic wfcs
     Checking if some PAW data can be deallocated... 
       node    0, deallocated PAW data for type:  2
       node    0, deallocated PAW data for type:  3
       node    1, deallocated PAW data for type:  1
       node    2, deallocated PAW data for type:  1
       node    3, deallocated PAW data for type:  2
       node    3, deallocated PAW data for type:  3
       node    4, deallocated PAW data for type:  1
       node    5, deallocated PAW data for type:  2
       node    5, deallocated PAW data for type:  3
       node    6, deallocated PAW data for type:  1
       node    7, deallocated PAW data for type:  2
       node    7, deallocated PAW data for type:  3

     total cpu time spent up to now is     1054.5 secs

     per-process dynamical memory:   881.3 Mb

     Self-consistent Calculation

     iteration #  1     ecut=   180.00 Ry     beta=0.70
     Davidson diagonalization with overlap
     ethr =  1.00E-02,  avg # of iterations =  3.0

     total cpu time spent up to now is     3565.4 secs

     total energy              =   -1279.68590189 Ry
     Harris-Foulkes estimate   =   -1283.98746089 Ry
     estimated scf accuracy    <       6.62709052 Ry

     iteration #  2     ecut=   180.00 Ry     beta=0.70
     Davidson diagonalization with overlap
     ethr =  2.96E-03,  avg # of iterations =  4.0

     total cpu time spent up to now is     6372.3 secs

     total energy              =   -1280.35025884 Ry
     Harris-Foulkes estimate   =   -1283.83140099 Ry
     estimated scf accuracy    <       7.03253603 Ry

     iteration #  3     ecut=   180.00 Ry     beta=0.70
     Davidson diagonalization with overlap
     ethr =  2.96E-03,  avg # of iterations =  4.7

     total cpu time spent up to now is     8528.8 secs

     total energy              =   -1281.85603243 Ry
     Harris-Foulkes estimate   =   -1282.08034778 Ry
     estimated scf accuracy    <       0.41556465 Ry

     iteration #  4     ecut=   180.00 Ry     beta=0.70
     Davidson diagonalization with overlap
     ethr =  1.86E-04,  avg # of iterations =  4.9

     total cpu time spent up to now is    11281.4 secs

     total energy              =   -1282.00155681 Ry
     Harris-Foulkes estimate   =   -1282.08696969 Ry
     estimated scf accuracy    <       0.18774402 Ry

     iteration #  5     ecut=   180.00 Ry     beta=0.70
     Davidson diagonalization with overlap
     ethr =  8.38E-05,  avg # of iterations =  4.0

     total cpu time spent up to now is    13650.3 secs

     total energy              =   -1282.04011338 Ry
     Harris-Foulkes estimate   =   -1282.04909099 Ry
     estimated scf accuracy    <       0.02233392 Ry

     iteration #  6     ecut=   180.00 Ry     beta=0.70
     Davidson diagonalization with overlap
     ethr =  9.97E-06,  avg # of iterations =  5.4

     total cpu time spent up to now is    15765.3 secs

     total energy              =   -1282.04194694 Ry
     Harris-Foulkes estimate   =   -1282.04336551 Ry
     estimated scf accuracy    <       0.00382310 Ry

     iteration #  7     ecut=   180.00 Ry     beta=0.70
     Davidson diagonalization with overlap
     ethr =  1.71E-06,  avg # of iterations =  4.8

     total cpu time spent up to now is    18734.0 secs

     total energy              =   -1282.04468646 Ry
     Harris-Foulkes estimate   =   -1282.04576151 Ry
     estimated scf accuracy    <       0.00396397 Ry

     iteration #  8     ecut=   180.00 Ry     beta=0.70
     Davidson diagonalization with overlap
     ethr =  1.71E-06,  avg # of iterations =  1.0

     total cpu time spent up to now is    20465.0 secs

     total energy              =   -1282.04358980 Ry
     Harris-Foulkes estimate   =   -1282.04475193 Ry
     estimated scf accuracy    <       0.00225349 Ry

     iteration #  9     ecut=   180.00 Ry     beta=0.70
     Davidson diagonalization with overlap
     ethr =  1.01E-06,  avg # of iterations =  5.0

     total cpu time spent up to now is    23330.9 secs

     total energy              =   -1282.04499493 Ry
     Harris-Foulkes estimate   =   -1282.04606079 Ry
     estimated scf accuracy    <       0.00556415 Ry

     iteration # 10     ecut=   180.00 Ry     beta=0.70
     Davidson diagonalization with overlap
     ethr =  1.01E-06,  avg # of iterations =  1.0

     total cpu time spent up to now is    25096.6 secs

     total energy              =   -1282.04365467 Ry
     Harris-Foulkes estimate   =   -1282.04502745 Ry
     estimated scf accuracy    <       0.00384826 Ry

     iteration # 11     ecut=   180.00 Ry     beta=0.70
     Davidson diagonalization with overlap
     ethr =  1.01E-06,  avg # of iterations =  5.0

     total cpu time spent up to now is    27710.5 secs

     total energy              =   -1282.04493085 Ry
     Harris-Foulkes estimate   =   -1282.04516740 Ry
     estimated scf accuracy    <       0.00090483 Ry

     iteration # 12     ecut=   180.00 Ry     beta=0.70
     Davidson diagonalization with overlap
     ethr =  4.04E-07,  avg # of iterations =  1.0

     total cpu time spent up to now is    29523.0 secs

     total energy              =   -1282.04472438 Ry
     Harris-Foulkes estimate   =   -1282.04494292 Ry
     estimated scf accuracy    <       0.00052789 Ry

     iteration # 13     ecut=   180.00 Ry     beta=0.70
     Davidson diagonalization with overlap
     ethr =  2.36E-07,  avg # of iterations =  5.0

     total cpu time spent up to now is    32067.5 secs

     total energy              =   -1282.04500066 Ry
     Harris-Foulkes estimate   =   -1282.04508091 Ry
     estimated scf accuracy    <       0.00044042 Ry

     iteration # 14     ecut=   180.00 Ry     beta=0.70
     Davidson diagonalization with overlap
     ethr =  1.97E-07,  avg # of iterations =  1.0

     total cpu time spent up to now is    33762.3 secs

     total energy              =   -1282.04489351 Ry
     Harris-Foulkes estimate   =   -1282.04500312 Ry
     estimated scf accuracy    <       0.00031231 Ry

     iteration # 15     ecut=   180.00 Ry     beta=0.70
     Davidson diagonalization with overlap
     ethr =  1.39E-07,  avg # of iterations =  5.0

     total cpu time spent up to now is    36123.4 secs

     total energy              =   -1282.04502249 Ry
     Harris-Foulkes estimate   =   -1282.04500608 Ry
     estimated scf accuracy    <       0.00005508 Ry

     iteration # 16     ecut=   180.00 Ry     beta=0.70
     Davidson diagonalization with overlap
     ethr =  2.46E-08,  avg # of iterations =  1.4

     total cpu time spent up to now is    37949.3 secs

     total energy              =   -1282.04500080 Ry
     Harris-Foulkes estimate   =   -1282.04502386 Ry
     estimated scf accuracy    <       0.00008513 Ry

     iteration # 17     ecut=   180.00 Ry     beta=0.70
     Davidson diagonalization with overlap
     ethr =  2.46E-08,  avg # of iterations =  1.0

     total cpu time spent up to now is    39666.8 secs

     total energy              =   -1282.04499191 Ry
     Harris-Foulkes estimate   =   -1282.04500200 Ry
     estimated scf accuracy    <       0.00005068 Ry

     iteration # 18     ecut=   180.00 Ry     beta=0.70
     Davidson diagonalization with overlap
     ethr =  2.26E-08,  avg # of iterations =  1.0

     total cpu time spent up to now is    41461.8 secs

     total energy              =   -1282.04499216 Ry
     Harris-Foulkes estimate   =   -1282.04499278 Ry
     estimated scf accuracy    <       0.00003051 Ry

     iteration # 19     ecut=   180.00 Ry     beta=0.70
     Davidson diagonalization with overlap
     ethr =  1.36E-08,  avg # of iterations =  5.3

     total cpu time spent up to now is    43570.5 secs

     total energy              =   -1282.04499699 Ry
     Harris-Foulkes estimate   =   -1282.04499564 Ry
     estimated scf accuracy    <       0.00000798 Ry

     iteration # 20     ecut=   180.00 Ry     beta=0.70
     Davidson diagonalization with overlap
     ethr =  3.56E-09,  avg # of iterations =  3.3

     total cpu time spent up to now is    45648.2 secs

     total energy              =   -1282.04499636 Ry
     Harris-Foulkes estimate   =   -1282.04499765 Ry
     estimated scf accuracy    <       0.00000687 Ry

     iteration # 21     ecut=   180.00 Ry     beta=0.70
     Davidson diagonalization with overlap
     ethr =  3.07E-09,  avg # of iterations =  1.1

     total cpu time spent up to now is    47401.0 secs

     total energy              =   -1282.04499541 Ry
     Harris-Foulkes estimate   =   -1282.04499646 Ry
     estimated scf accuracy    <       0.00000455 Ry

     iteration # 22     ecut=   180.00 Ry     beta=0.70
     Davidson diagonalization with overlap
     ethr =  2.03E-09,  avg # of iterations =  4.9

     total cpu time spent up to now is    49402.2 secs

     End of self-consistent calculation

          k = 0.0192 0.0115 0.0217 (140328 PWs)   bands (ev):

   -23.8713 -23.8466 -23.8347 -23.8249 -23.5860 -23.5763 -23.5755 -23.5713
   -19.1044 -19.0990 -19.0916 -19.0790 -18.7826 -18.7824 -18.7780 -18.7768
   -18.1725 -18.1461 -17.1423 -17.0899 -17.0026 -16.9999 -15.9835 -15.9702
   -12.0104 -12.0084 -11.9992 -11.8815 -11.8238 -11.7466 -11.6893 -11.6716
    -8.8191  -8.7789  -8.2057  -8.1669  -7.4910  -7.4459  -7.3633  -7.3572
    -6.8008  -6.6899  -6.5495  -6.4468  -6.4306  -6.3507  -6.2892  -6.2019
    -6.0703  -6.0357  -6.0145  -5.8933  -5.8406  -5.7545  -5.6886  -5.6462
    -5.5845  -5.5633  -5.4883  -5.4386  -5.0742  -4.9569  -4.8624  -4.8517
    -4.3909  -4.3862  -4.3562  -4.3163  -4.1431  -4.0328  -3.7867  -3.7781
    -3.6142  -3.4869  -3.4274  -3.3837  -3.0859  -3.0515  -2.9584  -2.9399
    -0.7439  -0.7389  -0.2529  -0.2495  -0.1505  -0.1007  -0.0416  -0.0246
     0.0326   0.0651   0.2265   0.2630   0.2757   0.3073   0.4338   0.4508
     0.4979   0.5176   0.6973   0.7493   0.8363   0.8745   0.9247   0.9519
     0.9762   1.0898   1.1217   1.1887   1.2750   1.4114   1.4268   1.4539

     occupation numbers 
     1.0000   1.0000   1.0000   1.0000   1.0000   1.0000   1.0000   1.0000
     1.0000   1.0000   1.0000   1.0000   1.0000   1.0000   1.0000   1.0000
     1.0000   1.0000   1.0000   1.0000   1.0000   1.0000   1.0000   1.0000
     1.0000   1.0000   1.0000   1.0000   1.0000   1.0000   1.0000   1.0000
     1.0000   1.0000   1.0000   1.0000   1.0000   1.0000   1.0000   1.0000
     1.0000   1.0000   1.0000   1.0000   1.0000   1.0000   1.0000   1.0000
     1.0000   1.0000   1.0000   1.0000   1.0000   1.0000   1.0000   1.0000
     1.0000   1.0000   1.0000   1.0000   1.0000   1.0000   1.0000   1.0000
     1.0000   1.0000   1.0000   1.0000   1.0000   1.0000   1.0000   1.0000
     1.0000   1.0000   1.0000   1.0000   1.0000   1.0000   1.0000   1.0000
     1.0000   1.0000   1.0000   1.0000   1.0000   1.0000   1.0000   1.0000
     1.0000   1.0000   1.0000   1.0000   1.0000   1.0000   1.0000   1.0000
     1.0000   1.0000   1.0000   1.0000   1.0000   1.0000   1.0000   1.0000
     1.0000   1.0000   1.0000   1.0000   1.0000   1.0000   1.0000   1.0000

          k = 0.0192 0.0115 0.0566 (140342 PWs)   bands (ev):

   -23.8627 -23.8526 -23.8309 -23.8299 -23.5875 -23.5839 -23.5720 -23.5672
   -19.1025 -19.0976 -19.0927 -19.0828 -18.7891 -18.7882 -18.7727 -18.7710
   -18.1603 -18.1598 -17.1173 -17.1146 -16.9985 -16.9956 -15.9789 -15.9767
   -12.0192 -12.0147 -11.9494 -11.9284 -11.7803 -11.7681 -11.6977 -11.6893
    -8.7993  -8.7620  -8.1862  -8.1601  -7.5063  -7.4525  -7.3407  -7.2576
    -6.8481  -6.7185  -6.5302  -6.4882  -6.4799  -6.3693  -6.3133  -6.2816
    -6.1300  -6.0931  -5.9013  -5.8463  -5.8267  -5.7660  -5.7366  -5.6910
    -5.6440  -5.5846  -5.4051  -5.3562  -5.0778  -4.9974  -4.8573  -4.8194
    -4.3537  -4.3449  -4.2866  -4.2231  -4.0688  -4.0330  -3.9013  -3.9012
    -3.5938  -3.5370  -3.3652  -3.3539  -3.1146  -3.1100  -2.9407  -2.9159
    -0.7088  -0.6744  -0.2663  -0.2537  -0.1615  -0.1339  -0.0706  -0.0568
    -0.0242   0.0200   0.1283   0.1912   0.2924   0.3484   0.4031   0.4149
     0.6086   0.6732   0.7178   0.7655   0.8321   0.8543   0.8857   0.9366
     1.0477   1.0867   1.1609   1.1862   1.2847   1.3591   1.4325   1.4599

     occupation numbers 
     1.0000   1.0000   1.0000   1.0000   1.0000   1.0000   1.0000   1.0000
     1.0000   1.0000   1.0000   1.0000   1.0000   1.0000   1.0000   1.0000
     1.0000   1.0000   1.0000   1.0000   1.0000   1.0000   1.0000   1.0000
     1.0000   1.0000   1.0000   1.0000   1.0000   1.0000   1.0000   1.0000
     1.0000   1.0000   1.0000   1.0000   1.0000   1.0000   1.0000   1.0000
     1.0000   1.0000   1.0000   1.0000   1.0000   1.0000   1.0000   1.0000
     1.0000   1.0000   1.0000   1.0000   1.0000   1.0000   1.0000   1.0000
     1.0000   1.0000   1.0000   1.0000   1.0000   1.0000   1.0000   1.0000
     1.0000   1.0000   1.0000   1.0000   1.0000   1.0000   1.0000   1.0000
     1.0000   1.0000   1.0000   1.0000   1.0000   1.0000   1.0000   1.0000
     1.0000   1.0000   1.0000   1.0000   1.0000   1.0000   1.0000   1.0000
     1.0000   1.0000   1.0000   1.0000   1.0000   1.0000   1.0000   1.0000
     1.0000   1.0000   1.0000   1.0000   1.0000   1.0000   1.0000   1.0000
     1.0000   1.0000   1.0000   1.0000   1.0000   1.0000   1.0000   1.0000

          k = 0.0192 0.0115-0.0481 (140320 PWs)   bands (ev):

   -23.8635 -23.8521 -23.8348 -23.8256 -23.5890 -23.5856 -23.5687 -23.5673
   -19.1001 -19.0983 -19.0894 -19.0880 -18.7906 -18.7898 -18.7710 -18.7695
   -18.1722 -18.1465 -17.1399 -17.0917 -17.0010 -16.9993 -15.9826 -15.9661
   -12.0330 -12.0131 -11.9815 -11.8954 -11.8086 -11.7351 -11.6984 -11.6893
    -8.8084  -8.7221  -8.1725  -8.1697  -7.4999  -7.4839  -7.3502  -7.2330
    -6.8581  -6.7459  -6.5278  -6.4870  -6.4479  -6.4182  -6.3264  -6.2892
    -6.1488  -6.1191  -5.9038  -5.8648  -5.7659  -5.7264  -5.7222  -5.7081
    -5.6401  -5.5680  -5.4059  -5.3532  -5.0734  -4.9977  -4.8441  -4.8111
    -4.3812  -4.3114  -4.2804  -4.2242  -4.0878  -4.0677  -3.9086  -3.8530
    -3.5941  -3.5437  -3.4199  -3.3333  -3.1212  -3.0970  -2.9366  -2.9228
    -0.6406  -0.5786  -0.2547  -0.2462  -0.2256  -0.1920  -0.1124  -0.0948
    -0.0332  -0.0280   0.0954   0.1791   0.3129   0.3501   0.3573   0.4096
     0.6535   0.7330   0.7564   0.7672   0.8126   0.8963   0.9065   0.9178
     1.0396   1.0931   1.1723   1.2323   1.2902   1.3175   1.4237   1.4439

     occupation numbers 
     1.0000   1.0000   1.0000   1.0000   1.0000   1.0000   1.0000   1.0000
     1.0000   1.0000   1.0000   1.0000   1.0000   1.0000   1.0000   1.0000
     1.0000   1.0000   1.0000   1.0000   1.0000   1.0000   1.0000   1.0000
     1.0000   1.0000   1.0000   1.0000   1.0000   1.0000   1.0000   1.0000
     1.0000   1.0000   1.0000   1.0000   1.0000   1.0000   1.0000   1.0000
     1.0000   1.0000   1.0000   1.0000   1.0000   1.0000   1.0000   1.0000
     1.0000   1.0000   1.0000   1.0000   1.0000   1.0000   1.0000   1.0000
     1.0000   1.0000   1.0000   1.0000   1.0000   1.0000   1.0000   1.0000
     1.0000   1.0000   1.0000   1.0000   1.0000   1.0000   1.0000   1.0000
     1.0000   1.0000   1.0000   1.0000   1.0000   1.0000   1.0000   1.0000
     1.0000   1.0000   1.0000   1.0000   1.0000   1.0000   1.0000   1.0000
     1.0000   1.0000   1.0000   1.0000   1.0000   1.0000   1.0000   1.0000
     1.0000   1.0000   1.0000   1.0000   1.0000   1.0000   1.0000   1.0000
     1.0000   1.0000   1.0000   1.0000   1.0000   1.0000   1.0000   1.0000

          k = 0.0192 0.0115-0.0132 (140316 PWs)   bands (ev):

   -23.8716 -23.8469 -23.8359 -23.8230 -23.5884 -23.5793 -23.5717 -23.5696
   -19.1033 -19.0976 -19.0920 -19.0814 -18.7863 -18.7857 -18.7738 -18.7738
   -18.1771 -18.1401 -17.1515 -17.0802 -17.0049 -17.0039 -15.9839 -15.9629
   -12.0337 -12.0092 -11.9978 -11.8782 -11.8247 -11.7350 -11.6869 -11.6725
    -8.8304  -8.7369  -8.1990  -8.1700  -7.4956  -7.4711  -7.3937  -7.3094
    -6.7691  -6.7511  -6.5436  -6.4373  -6.4335  -6.3957  -6.2947  -6.2202
    -6.1175  -6.0699  -5.9464  -5.8937  -5.8007  -5.7536  -5.6716  -5.6431
    -5.6003  -5.5462  -5.4536  -5.4496  -5.0419  -4.9946  -4.8527  -4.8254
    -4.3950  -4.3793  -4.3540  -4.3283  -4.1563  -4.0415  -3.7949  -3.7366
    -3.6404  -3.4985  -3.4394  -3.3810  -3.0943  -3.0449  -2.9507  -2.9481
    -0.6938  -0.6720  -0.2417  -0.2376  -0.1531  -0.1198  -0.0581  -0.0338
    -0.0233   0.0147   0.1229   0.1824   0.2478   0.3292   0.3762   0.4431
     0.6227   0.6553   0.6912   0.7700   0.8314   0.8812   0.9389   0.9505
     0.9838   1.0668   1.1510   1.2169   1.2703   1.3902   1.4116   1.4445

     occupation numbers 
     1.0000   1.0000   1.0000   1.0000   1.0000   1.0000   1.0000   1.0000
     1.0000   1.0000   1.0000   1.0000   1.0000   1.0000   1.0000   1.0000
     1.0000   1.0000   1.0000   1.0000   1.0000   1.0000   1.0000   1.0000
     1.0000   1.0000   1.0000   1.0000   1.0000   1.0000   1.0000   1.0000
     1.0000   1.0000   1.0000   1.0000   1.0000   1.0000   1.0000   1.0000
     1.0000   1.0000   1.0000   1.0000   1.0000   1.0000   1.0000   1.0000
     1.0000   1.0000   1.0000   1.0000   1.0000   1.0000   1.0000   1.0000
     1.0000   1.0000   1.0000   1.0000   1.0000   1.0000   1.0000   1.0000
     1.0000   1.0000   1.0000   1.0000   1.0000   1.0000   1.0000   1.0000
     1.0000   1.0000   1.0000   1.0000   1.0000   1.0000   1.0000   1.0000
     1.0000   1.0000   1.0000   1.0000   1.0000   1.0000   1.0000   1.0000
     1.0000   1.0000   1.0000   1.0000   1.0000   1.0000   1.0000   1.0000
     1.0000   1.0000   1.0000   1.0000   1.0000   1.0000   1.0000   1.0000
     1.0000   1.0000   1.0000   1.0000   1.0000   1.0000   1.0000   1.0000

          k = 0.0192 0.0344 0.0217 (140390 PWs)   bands (ev):

   -23.8654 -23.8560 -23.8299 -23.8265 -23.5819 -23.5773 -23.5753 -23.5742
   -19.1041 -19.1025 -19.0860 -19.0814 -18.7826 -18.7825 -18.7776 -18.7771
   -18.1650 -18.1541 -17.1269 -17.1052 -17.0017 -17.0005 -15.9795 -15.9740
   -12.0107 -12.0103 -11.9736 -11.9311 -11.7855 -11.7589 -11.6839 -11.6766
    -8.8083  -8.7916  -8.1952  -8.1791  -7.4803  -7.4610  -7.3556  -7.3529
    -6.7764  -6.7277  -6.4916  -6.4444  -6.4400  -6.3982  -6.2638  -6.2371
    -6.0818  -6.0636  -5.9371  -5.9040  -5.8399  -5.7921  -5.6987  -5.6816
    -5.5478  -5.5351  -5.4651  -5.4413  -5.0266  -4.9567  -4.9113  -4.8844
    -4.4055  -4.3974  -4.3234  -4.3065  -4.1168  -4.0658  -3.7816  -3.7750
    -3.5772  -3.5216  -3.4155  -3.3953  -3.0798  -3.0659  -2.9497  -2.9427
    -0.7390  -0.7365  -0.2444  -0.2352  -0.1673  -0.1304  -0.0659  -0.0594
     0.0693   0.0802   0.2551   0.2657   0.2984   0.3053   0.4543   0.4584
     0.4730   0.5024   0.7074   0.7362   0.8149   0.8315   0.9421   0.9629
     1.0124   1.0594   1.1520   1.1771   1.3148   1.3719   1.4355   1.4437

     occupation numbers 
     1.0000   1.0000   1.0000   1.0000   1.0000   1.0000   1.0000   1.0000
     1.0000   1.0000   1.0000   1.0000   1.0000   1.0000   1.0000   1.0000
     1.0000   1.0000   1.0000   1.0000   1.0000   1.0000   1.0000   1.0000
     1.0000   1.0000   1.0000   1.0000   1.0000   1.0000   1.0000   1.0000
     1.0000   1.0000   1.0000   1.0000   1.0000   1.0000   1.0000   1.0000
     1.0000   1.0000   1.0000   1.0000   1.0000   1.0000   1.0000   1.0000
     1.0000   1.0000   1.0000   1.0000   1.0000   1.0000   1.0000   1.0000
     1.0000   1.0000   1.0000   1.0000   1.0000   1.0000   1.0000   1.0000
     1.0000   1.0000   1.0000   1.0000   1.0000   1.0000   1.0000   1.0000
     1.0000   1.0000   1.0000   1.0000   1.0000   1.0000   1.0000   1.0000
     1.0000   1.0000   1.0000   1.0000   1.0000   1.0000   1.0000   1.0000
     1.0000   1.0000   1.0000   1.0000   1.0000   1.0000   1.0000   1.0000
     1.0000   1.0000   1.0000   1.0000   1.0000   1.0000   1.0000   1.0000
     1.0000   1.0000   1.0000   1.0000   1.0000   1.0000   1.0000   1.0000

          k = 0.0192 0.0344 0.0566 (140376 PWs)   bands (ev):

   -23.8593 -23.8551 -23.8313 -23.8307 -23.5857 -23.5842 -23.5713 -23.5692
   -19.1024 -19.1010 -19.0878 -19.0844 -18.7888 -18.7885 -18.7722 -18.7715
   -18.1601 -18.1600 -17.1170 -17.1158 -16.9972 -16.9960 -15.9783 -15.9774
   -12.0174 -12.0153 -11.9461 -11.9370 -11.7735 -11.7678 -11.6968 -11.6932
    -8.7887  -8.7732  -8.1791  -8.1682  -7.4888  -7.4669  -7.3166  -7.2831
    -6.8274  -6.7798  -6.5120  -6.4990  -6.4297  -6.3820  -6.3231  -6.3032
    -6.0843  -6.0506  -5.9226  -5.8685  -5.8074  -5.7733  -5.7384  -5.7187
    -5.6288  -5.5922  -5.4124  -5.3890  -5.0108  -4.9589  -4.9074  -4.8682
    -4.3287  -4.3144  -4.2826  -4.2521  -4.0648  -4.0491  -3.9016  -3.9007
    -3.5712  -3.5472  -3.3639  -3.3588  -3.1094  -3.1048  -2.9414  -2.9291
    -0.6979  -0.6837  -0.2581  -0.2478  -0.1755  -0.1484  -0.0912  -0.0765
     0.0051   0.0243   0.1787   0.2000   0.2982   0.3253   0.3950   0.4073
     0.6259   0.6539   0.7304   0.7523   0.8415   0.8522   0.8924   0.9223
     1.0482   1.0686   1.1734   1.1833   1.3105   1.3406   1.4392   1.4504

     occupation numbers 
     1.0000   1.0000   1.0000   1.0000   1.0000   1.0000   1.0000   1.0000
     1.0000   1.0000   1.0000   1.0000   1.0000   1.0000   1.0000   1.0000
     1.0000   1.0000   1.0000   1.0000   1.0000   1.0000   1.0000   1.0000
     1.0000   1.0000   1.0000   1.0000   1.0000   1.0000   1.0000   1.0000
     1.0000   1.0000   1.0000   1.0000   1.0000   1.0000   1.0000   1.0000
     1.0000   1.0000   1.0000   1.0000   1.0000   1.0000   1.0000   1.0000
     1.0000   1.0000   1.0000   1.0000   1.0000   1.0000   1.0000   1.0000
     1.0000   1.0000   1.0000   1.0000   1.0000   1.0000   1.0000   1.0000
     1.0000   1.0000   1.0000   1.0000   1.0000   1.0000   1.0000   1.0000
     1.0000   1.0000   1.0000   1.0000   1.0000   1.0000   1.0000   1.0000
     1.0000   1.0000   1.0000   1.0000   1.0000   1.0000   1.0000   1.0000
     1.0000   1.0000   1.0000   1.0000   1.0000   1.0000   1.0000   1.0000
     1.0000   1.0000   1.0000   1.0000   1.0000   1.0000   1.0000   1.0000
     1.0000   1.0000   1.0000   1.0000   1.0000   1.0000   1.0000   1.0000

          k = 0.0192 0.0344-0.0481 (140306 PWs)   bands (ev):

   -23.8602 -23.8555 -23.8322 -23.8284 -23.5874 -23.5860 -23.5688 -23.5682
   -19.1006 -19.1000 -19.0878 -19.0873 -18.7904 -18.7900 -18.7706 -18.7699
   -18.1649 -18.1542 -17.1258 -17.1059 -17.0003 -16.9996 -15.9776 -15.9708
   -12.0278 -12.0200 -11.9622 -11.9298 -11.7773 -11.7497 -11.6956 -11.6915
    -8.7842  -8.7485  -8.1732  -8.1717  -7.4915  -7.4859  -7.3191  -7.2696
    -6.8238  -6.7766  -6.5343  -6.5034  -6.4284  -6.4126  -6.3550  -6.3344
    -6.0621  -6.0421  -5.9411  -5.9059  -5.7600  -5.7436  -5.7217  -5.7000
    -5.6270  -5.5910  -5.3990  -5.3702  -5.0445  -4.9916  -4.8683  -4.8346
    -4.3688  -4.3398  -4.2395  -4.2193  -4.0900  -4.0824  -3.8931  -3.8702
    -3.5715  -3.5506  -3.3950  -3.3589  -3.1076  -3.0961  -2.9426  -2.9375
    -0.6237  -0.5985  -0.2554  -0.2519  -0.1952  -0.1771  -0.1365  -0.1150
    -0.0509  -0.0371   0.1481   0.1806   0.3157   0.3325   0.3697   0.3979
     0.6766   0.7089   0.7788   0.7905   0.8022   0.8460   0.9141   0.9186
     1.0544   1.0717   1.1980   1.2209   1.2958   1.3080   1.4289   1.4377

     occupation numbers 
     1.0000   1.0000   1.0000   1.0000   1.0000   1.0000   1.0000   1.0000
     1.0000   1.0000   1.0000   1.0000   1.0000   1.0000   1.0000   1.0000
     1.0000   1.0000   1.0000   1.0000   1.0000   1.0000   1.0000   1.0000
     1.0000   1.0000   1.0000   1.0000   1.0000   1.0000   1.0000   1.0000
     1.0000   1.0000   1.0000   1.0000   1.0000   1.0000   1.0000   1.0000
     1.0000   1.0000   1.0000   1.0000   1.0000   1.0000   1.0000   1.0000
     1.0000   1.0000   1.0000   1.0000   1.0000   1.0000   1.0000   1.0000
     1.0000   1.0000   1.0000   1.0000   1.0000   1.0000   1.0000   1.0000
     1.0000   1.0000   1.0000   1.0000   1.0000   1.0000   1.0000   1.0000
     1.0000   1.0000   1.0000   1.0000   1.0000   1.0000   1.0000   1.0000
     1.0000   1.0000   1.0000   1.0000   1.0000   1.0000   1.0000   1.0000
     1.0000   1.0000   1.0000   1.0000   1.0000   1.0000   1.0000   1.0000
     1.0000   1.0000   1.0000   1.0000   1.0000   1.0000   1.0000   1.0000
     1.0000   1.0000   1.0000   1.0000   1.0000   1.0000   1.0000   1.0000

          k = 0.0192 0.0344-0.0132 (140383 PWs)   bands (ev):

   -23.8660 -23.8566 -23.8298 -23.8254 -23.5851 -23.5812 -23.5716 -23.5709
   -19.1030 -19.1013 -19.0868 -19.0831 -18.7861 -18.7859 -18.7738 -18.7738
   -18.1668 -18.1514 -17.1303 -17.1007 -17.0047 -17.0043 -15.9776 -15.9689
   -12.0252 -12.0168 -11.9747 -11.9323 -11.7809 -11.7505 -11.6816 -11.6756
    -8.8047  -8.7660  -8.1923  -8.1804  -7.4882  -7.4771  -7.3665  -7.3328
    -6.7427  -6.7255  -6.5330  -6.4758  -6.4321  -6.4114  -6.3157  -6.2816
    -6.0562  -6.0339  -5.9544  -5.9225  -5.7933  -5.7678  -5.6756  -5.6739
    -5.5519  -5.5352  -5.4447  -5.4380  -5.0373  -5.0044  -4.8668  -4.8462
    -4.4092  -4.4057  -4.3274  -4.3062  -4.1290  -4.0759  -3.7763  -3.7521
    -3.5881  -3.5281  -3.4259  -3.4008  -3.0830  -3.0627  -2.9494  -2.9485
    -0.6840  -0.6750  -0.2341  -0.2252  -0.1683  -0.1323  -0.0715  -0.0601
    -0.0187   0.0011   0.1544   0.1834   0.2724   0.3098   0.4129   0.4419
     0.6338   0.6594   0.6951   0.7512   0.8017   0.8356   0.9537   0.9568
     1.0203   1.0508   1.1822   1.2081   1.2989   1.3516   1.4221   1.4316

     occupation numbers 
     1.0000   1.0000   1.0000   1.0000   1.0000   1.0000   1.0000   1.0000
     1.0000   1.0000   1.0000   1.0000   1.0000   1.0000   1.0000   1.0000
     1.0000   1.0000   1.0000   1.0000   1.0000   1.0000   1.0000   1.0000
     1.0000   1.0000   1.0000   1.0000   1.0000   1.0000   1.0000   1.0000
     1.0000   1.0000   1.0000   1.0000   1.0000   1.0000   1.0000   1.0000
     1.0000   1.0000   1.0000   1.0000   1.0000   1.0000   1.0000   1.0000
     1.0000   1.0000   1.0000   1.0000   1.0000   1.0000   1.0000   1.0000
     1.0000   1.0000   1.0000   1.0000   1.0000   1.0000   1.0000   1.0000
     1.0000   1.0000   1.0000   1.0000   1.0000   1.0000   1.0000   1.0000
     1.0000   1.0000   1.0000   1.0000   1.0000   1.0000   1.0000   1.0000
     1.0000   1.0000   1.0000   1.0000   1.0000   1.0000   1.0000   1.0000
     1.0000   1.0000   1.0000   1.0000   1.0000   1.0000   1.0000   1.0000
     1.0000   1.0000   1.0000   1.0000   1.0000   1.0000   1.0000   1.0000
     1.0000   1.0000   1.0000   1.0000   1.0000   1.0000   1.0000   1.0000

          k = 0.0575 0.0115 0.0302 (140323 PWs)   bands (ev):

   -23.8599 -23.8491 -23.8317 -23.8311 -23.5845 -23.5811 -23.5766 -23.5714
   -19.1022 -19.0979 -19.0934 -19.0837 -18.7855 -18.7841 -18.7762 -18.7749
   -18.1666 -18.1663 -17.1152 -17.1129 -17.0025 -17.0004 -15.9798 -15.9773
   -12.0073 -12.0049 -11.9161 -11.8969 -11.7537 -11.7337 -11.7023 -11.6850
    -8.8194  -8.7849  -8.2050  -8.1820  -7.4801  -7.4557  -7.4306  -7.3708
    -6.9204  -6.8481  -6.6172  -6.4857  -6.4000  -6.3607  -6.1948  -6.1598
    -6.1384  -6.0834  -5.9538  -5.8840  -5.8285  -5.7784  -5.6983  -5.6741
    -5.5870  -5.5419  -5.4830  -5.4643  -5.0845  -4.9711  -4.8488  -4.8431
    -4.3867  -4.3636  -4.3189  -4.2723  -3.9444  -3.8897  -3.7342  -3.6929
    -3.6527  -3.5359  -3.4887  -3.4809  -3.0850  -3.0825  -2.9592  -2.9280
    -0.6962  -0.6825  -0.2359  -0.2309  -0.1423  -0.1227  -0.0647  -0.0419
    -0.0065   0.0252   0.1693   0.1848   0.2621   0.2783   0.4124   0.4341
     0.6359   0.6482   0.7228   0.7711   0.8393   0.8473   0.9270   0.9416
     1.0017   1.0499   1.0779   1.1295   1.3500   1.3837   1.4099   1.4488

     occupation numbers 
     1.0000   1.0000   1.0000   1.0000   1.0000   1.0000   1.0000   1.0000
     1.0000   1.0000   1.0000   1.0000   1.0000   1.0000   1.0000   1.0000
     1.0000   1.0000   1.0000   1.0000   1.0000   1.0000   1.0000   1.0000
     1.0000   1.0000   1.0000   1.0000   1.0000   1.0000   1.0000   1.0000
     1.0000   1.0000   1.0000   1.0000   1.0000   1.0000   1.0000   1.0000
     1.0000   1.0000   1.0000   1.0000   1.0000   1.0000   1.0000   1.0000
     1.0000   1.0000   1.0000   1.0000   1.0000   1.0000   1.0000   1.0000
     1.0000   1.0000   1.0000   1.0000   1.0000   1.0000   1.0000   1.0000
     1.0000   1.0000   1.0000   1.0000   1.0000   1.0000   1.0000   1.0000
     1.0000   1.0000   1.0000   1.0000   1.0000   1.0000   1.0000   1.0000
     1.0000   1.0000   1.0000   1.0000   1.0000   1.0000   1.0000   1.0000
     1.0000   1.0000   1.0000   1.0000   1.0000   1.0000   1.0000   1.0000
     1.0000   1.0000   1.0000   1.0000   1.0000   1.0000   1.0000   1.0000
     1.0000   1.0000   1.0000   1.0000   1.0000   1.0000   1.0000   1.0000

          k = 0.0575 0.0115 0.0650 (140310 PWs)   bands (ev):

   -23.8557 -23.8519 -23.8358 -23.8272 -23.5830 -23.5827 -23.5797 -23.5694
   -19.1026 -19.0995 -19.0937 -19.0827 -18.7954 -18.7930 -18.7688 -18.7651
   -18.1814 -18.1563 -17.1359 -17.0901 -16.9929 -16.9892 -15.9959 -15.9758
   -12.0223 -12.0120 -11.9472 -11.8695 -11.7504 -11.7088 -11.7057 -11.6861
    -8.8654  -8.7392  -8.1994  -8.1614  -7.4862  -7.4578  -7.3902  -7.2489
    -7.0256  -6.7955  -6.6210  -6.4350  -6.4239  -6.3774  -6.3538  -6.2490
    -6.1931  -6.1095  -5.9252  -5.8990  -5.8529  -5.7943  -5.7296  -5.6651
    -5.5595  -5.5090  -5.4381  -5.3613  -5.0962  -4.9321  -4.9204  -4.8520
    -4.3267  -4.3124  -4.2500  -4.2107  -3.9011  -3.8801  -3.8331  -3.8011
    -3.6717  -3.5628  -3.4959  -3.3965  -3.1345  -3.0997  -2.9572  -2.8961
    -0.7737  -0.7315  -0.2425  -0.2030  -0.1425  -0.1132  -0.0594  -0.0210
     0.0282   0.0635   0.2317   0.2635   0.2849   0.3044   0.3780   0.4774
     0.5546   0.5688   0.6274   0.7292   0.8332   0.8656   0.9066   0.9393
     1.0381   1.0752   1.0903   1.1181   1.3629   1.4029   1.4167   1.4641

     occupation numbers 
     1.0000   1.0000   1.0000   1.0000   1.0000   1.0000   1.0000   1.0000
     1.0000   1.0000   1.0000   1.0000   1.0000   1.0000   1.0000   1.0000
     1.0000   1.0000   1.0000   1.0000   1.0000   1.0000   1.0000   1.0000
     1.0000   1.0000   1.0000   1.0000   1.0000   1.0000   1.0000   1.0000
     1.0000   1.0000   1.0000   1.0000   1.0000   1.0000   1.0000   1.0000
     1.0000   1.0000   1.0000   1.0000   1.0000   1.0000   1.0000   1.0000
     1.0000   1.0000   1.0000   1.0000   1.0000   1.0000   1.0000   1.0000
     1.0000   1.0000   1.0000   1.0000   1.0000   1.0000   1.0000   1.0000
     1.0000   1.0000   1.0000   1.0000   1.0000   1.0000   1.0000   1.0000
     1.0000   1.0000   1.0000   1.0000   1.0000   1.0000   1.0000   1.0000
     1.0000   1.0000   1.0000   1.0000   1.0000   1.0000   1.0000   1.0000
     1.0000   1.0000   1.0000   1.0000   1.0000   1.0000   1.0000   1.0000
     1.0000   1.0000   1.0000   1.0000   1.0000   1.0000   1.0000   1.0000
     1.0000   1.0000   1.0000   1.0000   1.0000   1.0000   1.0000   1.0000

          k = 0.0575 0.0115-0.0396 (140274 PWs)   bands (ev):

   -23.8569 -23.8513 -23.8374 -23.8250 -23.5864 -23.5852 -23.5750 -23.5682
   -19.1005 -19.0985 -19.0941 -19.0856 -18.7964 -18.7941 -18.7677 -18.7641
   -18.1861 -18.1503 -17.1462 -17.0791 -16.9958 -16.9929 -15.9954 -15.9694
   -12.0281 -12.0135 -11.9708 -11.8491 -11.7680 -11.7037 -11.6967 -11.6796
    -8.8601  -8.7139  -8.1931  -8.1629  -7.4836  -7.4628  -7.4135  -7.2371
    -7.0452  -6.7975  -6.6085  -6.4637  -6.4270  -6.4113  -6.3409  -6.2749
    -6.1974  -6.1260  -5.9136  -5.8577  -5.8170  -5.8004  -5.7304  -5.6832
    -5.5329  -5.5045  -5.4442  -5.3614  -5.0869  -4.9576  -4.8937  -4.8368
    -4.3289  -4.2908  -4.2501  -4.2236  -3.9394  -3.9292  -3.7754  -3.7693
    -3.6204  -3.5942  -3.5509  -3.4011  -3.1382  -3.0965  -2.9534  -2.9017
    -0.7298  -0.6646  -0.2347  -0.1768  -0.1604  -0.1336  -0.0667  -0.0404
    -0.0343   0.0092   0.1654   0.2502   0.2821   0.3257   0.3426   0.3708
     0.6072   0.6741   0.7055   0.7221   0.8339   0.8582   0.9289   0.9511
     1.0270   1.0546   1.1075   1.1772   1.3769   1.3955   1.4003   1.4281

     occupation numbers 
     1.0000   1.0000   1.0000   1.0000   1.0000   1.0000   1.0000   1.0000
     1.0000   1.0000   1.0000   1.0000   1.0000   1.0000   1.0000   1.0000
     1.0000   1.0000   1.0000   1.0000   1.0000   1.0000   1.0000   1.0000
     1.0000   1.0000   1.0000   1.0000   1.0000   1.0000   1.0000   1.0000
     1.0000   1.0000   1.0000   1.0000   1.0000   1.0000   1.0000   1.0000
     1.0000   1.0000   1.0000   1.0000   1.0000   1.0000   1.0000   1.0000
     1.0000   1.0000   1.0000   1.0000   1.0000   1.0000   1.0000   1.0000
     1.0000   1.0000   1.0000   1.0000   1.0000   1.0000   1.0000   1.0000
     1.0000   1.0000   1.0000   1.0000   1.0000   1.0000   1.0000   1.0000
     1.0000   1.0000   1.0000   1.0000   1.0000   1.0000   1.0000   1.0000
     1.0000   1.0000   1.0000   1.0000   1.0000   1.0000   1.0000   1.0000
     1.0000   1.0000   1.0000   1.0000   1.0000   1.0000   1.0000   1.0000
     1.0000   1.0000   1.0000   1.0000   1.0000   1.0000   1.0000   1.0000
     1.0000   1.0000   1.0000   1.0000   1.0000   1.0000   1.0000   1.0000

          k = 0.0575 0.0115-0.0047 (140326 PWs)   bands (ev):

   -23.8606 -23.8491 -23.8356 -23.8266 -23.5872 -23.5835 -23.5723 -23.5706
   -19.0999 -19.0981 -19.0903 -19.0891 -18.7880 -18.7868 -18.7735 -18.7722
   -18.1787 -18.1528 -17.1383 -17.0890 -17.0048 -17.0047 -15.9835 -15.9668
   -12.0150 -12.0045 -11.9573 -11.8581 -11.7780 -11.7140 -11.6915 -11.6886
    -8.8290  -8.7443  -8.1933  -8.1894  -7.4791  -7.4688  -7.4564  -7.3498
    -6.9378  -6.8449  -6.5725  -6.5473  -6.3964  -6.3898  -6.2321  -6.2006
    -6.1155  -6.1110  -5.8937  -5.8558  -5.7917  -5.7566  -5.7149  -5.7050
    -5.5626  -5.5460  -5.4758  -5.4673  -5.0442  -5.0238  -4.8260  -4.8227
    -4.3882  -4.3607  -4.3143  -4.2799  -3.9585  -3.9161  -3.6954  -3.6870
    -3.6099  -3.5762  -3.5377  -3.4729  -3.1032  -3.0674  -2.9538  -2.9343
    -0.6390  -0.5893  -0.2424  -0.2318  -0.1542  -0.1480  -0.1206  -0.1140
    -0.0226   0.0104   0.1229   0.1896   0.2451   0.2873   0.3835   0.4213
     0.6246   0.6855   0.7782   0.8141   0.8365   0.8735   0.9400   0.9637
     0.9961   1.0162   1.0926   1.1812   1.3674   1.3755   1.3903   1.4079

     occupation numbers 
     1.0000   1.0000   1.0000   1.0000   1.0000   1.0000   1.0000   1.0000
     1.0000   1.0000   1.0000   1.0000   1.0000   1.0000   1.0000   1.0000
     1.0000   1.0000   1.0000   1.0000   1.0000   1.0000   1.0000   1.0000
     1.0000   1.0000   1.0000   1.0000   1.0000   1.0000   1.0000   1.0000
     1.0000   1.0000   1.0000   1.0000   1.0000   1.0000   1.0000   1.0000
     1.0000   1.0000   1.0000   1.0000   1.0000   1.0000   1.0000   1.0000
     1.0000   1.0000   1.0000   1.0000   1.0000   1.0000   1.0000   1.0000
     1.0000   1.0000   1.0000   1.0000   1.0000   1.0000   1.0000   1.0000
     1.0000   1.0000   1.0000   1.0000   1.0000   1.0000   1.0000   1.0000
     1.0000   1.0000   1.0000   1.0000   1.0000   1.0000   1.0000   1.0000
     1.0000   1.0000   1.0000   1.0000   1.0000   1.0000   1.0000   1.0000
     1.0000   1.0000   1.0000   1.0000   1.0000   1.0000   1.0000   1.0000
     1.0000   1.0000   1.0000   1.0000   1.0000   1.0000   1.0000   1.0000
     1.0000   1.0000   1.0000   1.0000   1.0000   1.0000   1.0000   1.0000

          k = 0.0575 0.0344 0.0302 (140352 PWs)   bands (ev):

   -23.8565 -23.8519 -23.8321 -23.8316 -23.5823 -23.5811 -23.5761 -23.5739
   -19.1022 -19.1010 -19.0887 -19.0853 -18.7851 -18.7845 -18.7758 -18.7752
   -18.1665 -18.1664 -17.1147 -17.1138 -17.0017 -17.0008 -15.9791 -15.9781
   -12.0067 -12.0057 -11.9088 -11.9007 -11.7500 -11.7416 -11.6970 -11.6897
    -8.8093  -8.7950  -8.1949  -8.1851  -7.4722  -7.4625  -7.4171  -7.3918
    -6.9240  -6.8998  -6.5363  -6.4892  -6.3829  -6.3586  -6.2258  -6.1916
    -6.1240  -6.0945  -5.9239  -5.8944  -5.8199  -5.7928  -5.6987  -5.6753
    -5.5666  -5.5534  -5.4758  -5.4671  -5.0541  -5.0073  -4.8534  -4.8498
    -4.3783  -4.3646  -4.3096  -4.2910  -3.9202  -3.8964  -3.7219  -3.7025
    -3.6218  -3.5725  -3.4878  -3.4810  -3.0842  -3.0815  -2.9550  -2.9411
    -0.6884  -0.6827  -0.2267  -0.2181  -0.1817  -0.1609  -0.0437  -0.0223
    -0.0005   0.0165   0.1805   0.1975   0.2688   0.2841   0.4122   0.4227
     0.6638   0.6672   0.7003   0.7278   0.8368   0.8465   0.9334   0.9536
     1.0144   1.0441   1.0824   1.1074   1.3607   1.3742   1.4222   1.4378

     occupation numbers 
     1.0000   1.0000   1.0000   1.0000   1.0000   1.0000   1.0000   1.0000
     1.0000   1.0000   1.0000   1.0000   1.0000   1.0000   1.0000   1.0000
     1.0000   1.0000   1.0000   1.0000   1.0000   1.0000   1.0000   1.0000
     1.0000   1.0000   1.0000   1.0000   1.0000   1.0000   1.0000   1.0000
     1.0000   1.0000   1.0000   1.0000   1.0000   1.0000   1.0000   1.0000
     1.0000   1.0000   1.0000   1.0000   1.0000   1.0000   1.0000   1.0000
     1.0000   1.0000   1.0000   1.0000   1.0000   1.0000   1.0000   1.0000
     1.0000   1.0000   1.0000   1.0000   1.0000   1.0000   1.0000   1.0000
     1.0000   1.0000   1.0000   1.0000   1.0000   1.0000   1.0000   1.0000
     1.0000   1.0000   1.0000   1.0000   1.0000   1.0000   1.0000   1.0000
     1.0000   1.0000   1.0000   1.0000   1.0000   1.0000   1.0000   1.0000
     1.0000   1.0000   1.0000   1.0000   1.0000   1.0000   1.0000   1.0000
     1.0000   1.0000   1.0000   1.0000   1.0000   1.0000   1.0000   1.0000
     1.0000   1.0000   1.0000   1.0000   1.0000   1.0000   1.0000   1.0000

          k = 0.0575 0.0344 0.0650 (140337 PWs)   bands (ev):

   -23.8541 -23.8526 -23.8339 -23.8303 -23.5828 -23.5825 -23.5768 -23.5724
   -19.1030 -19.1022 -19.0886 -19.0846 -18.7947 -18.7937 -18.7678 -18.7662
   -18.1743 -18.1639 -17.1225 -17.1035 -16.9918 -16.9903 -15.9899 -15.9816
   -12.0222 -12.0186 -11.9218 -11.8908 -11.7369 -11.7200 -11.7002 -11.6921
    -8.8298  -8.7776  -8.1866  -8.1707  -7.4617  -7.4481  -7.3767  -7.3131
    -6.9831  -6.9026  -6.5193  -6.4595  -6.4123  -6.3969  -6.3098  -6.2524
    -6.1786  -6.1257  -5.9040  -5.8857  -5.8479  -5.8239  -5.7435  -5.7020
    -5.5518  -5.5316  -5.4062  -5.3749  -5.0573  -4.9879  -4.8989  -4.8701
    -4.3110  -4.2911  -4.2495  -4.2147  -3.8900  -3.8819  -3.8280  -3.8150
    -3.6484  -3.6093  -3.4584  -3.4207  -3.1256  -3.1114  -2.9398  -2.9144
    -0.7577  -0.7405  -0.2286  -0.2112  -0.1740  -0.1649  -0.0311  -0.0197
     0.0598   0.0721   0.2501   0.2602   0.2993   0.3117   0.4020   0.4488
     0.5378   0.5460   0.6782   0.7352   0.8042   0.8435   0.9186   0.9362
     1.0306   1.0544   1.1091   1.1248   1.3737   1.3898   1.4306   1.4498

     occupation numbers 
     1.0000   1.0000   1.0000   1.0000   1.0000   1.0000   1.0000   1.0000
     1.0000   1.0000   1.0000   1.0000   1.0000   1.0000   1.0000   1.0000
     1.0000   1.0000   1.0000   1.0000   1.0000   1.0000   1.0000   1.0000
     1.0000   1.0000   1.0000   1.0000   1.0000   1.0000   1.0000   1.0000
     1.0000   1.0000   1.0000   1.0000   1.0000   1.0000   1.0000   1.0000
     1.0000   1.0000   1.0000   1.0000   1.0000   1.0000   1.0000   1.0000
     1.0000   1.0000   1.0000   1.0000   1.0000   1.0000   1.0000   1.0000
     1.0000   1.0000   1.0000   1.0000   1.0000   1.0000   1.0000   1.0000
     1.0000   1.0000   1.0000   1.0000   1.0000   1.0000   1.0000   1.0000
     1.0000   1.0000   1.0000   1.0000   1.0000   1.0000   1.0000   1.0000
     1.0000   1.0000   1.0000   1.0000   1.0000   1.0000   1.0000   1.0000
     1.0000   1.0000   1.0000   1.0000   1.0000   1.0000   1.0000   1.0000
     1.0000   1.0000   1.0000   1.0000   1.0000   1.0000   1.0000   1.0000
     1.0000   1.0000   1.0000   1.0000   1.0000   1.0000   1.0000   1.0000

          k = 0.0575 0.0344-0.0396 (140280 PWs)   bands (ev):

   -23.8553 -23.8530 -23.8338 -23.8287 -23.5857 -23.5852 -23.5733 -23.5704
   -19.1014 -19.1011 -19.0896 -19.0867 -18.7957 -18.7947 -18.7667 -18.7651
   -18.1760 -18.1612 -17.1263 -17.0985 -16.9951 -16.9939 -15.9875 -15.9767
   -12.0278 -12.0233 -11.9356 -11.8899 -11.7399 -11.7161 -11.6920 -11.6853
    -8.8194  -8.7590  -8.1839  -8.1712  -7.4662  -7.4486  -7.3891  -7.3073
    -6.9902  -6.9014  -6.5183  -6.4755  -6.4275  -6.4070  -6.3578  -6.3018
    -6.1418  -6.0980  -5.9088  -5.8715  -5.8259  -5.8162  -5.7384  -5.7068
    -5.5320  -5.5198  -5.4041  -5.3701  -5.0729  -5.0195  -4.8654  -4.8420
    -4.3295  -4.3130  -4.2207  -4.2028  -3.9321  -3.9281  -3.7760  -3.7728
    -3.6267  -3.6174  -3.4967  -3.4389  -3.1240  -3.1058  -2.9427  -2.9205
    -0.7081  -0.6807  -0.2243  -0.2030  -0.1842  -0.1655  -0.0441  -0.0364
    -0.0035   0.0227   0.1936   0.2260   0.2909   0.3086   0.3479   0.3742
     0.6291   0.6556   0.7360   0.7380   0.8273   0.8365   0.9122   0.9194
     1.0388   1.0567   1.1337   1.1605   1.3809   1.3901   1.4058   1.4189

     occupation numbers 
     1.0000   1.0000   1.0000   1.0000   1.0000   1.0000   1.0000   1.0000
     1.0000   1.0000   1.0000   1.0000   1.0000   1.0000   1.0000   1.0000
     1.0000   1.0000   1.0000   1.0000   1.0000   1.0000   1.0000   1.0000
     1.0000   1.0000   1.0000   1.0000   1.0000   1.0000   1.0000   1.0000
     1.0000   1.0000   1.0000   1.0000   1.0000   1.0000   1.0000   1.0000
     1.0000   1.0000   1.0000   1.0000   1.0000   1.0000   1.0000   1.0000
     1.0000   1.0000   1.0000   1.0000   1.0000   1.0000   1.0000   1.0000
     1.0000   1.0000   1.0000   1.0000   1.0000   1.0000   1.0000   1.0000
     1.0000   1.0000   1.0000   1.0000   1.0000   1.0000   1.0000   1.0000
     1.0000   1.0000   1.0000   1.0000   1.0000   1.0000   1.0000   1.0000
     1.0000   1.0000   1.0000   1.0000   1.0000   1.0000   1.0000   1.0000
     1.0000   1.0000   1.0000   1.0000   1.0000   1.0000   1.0000   1.0000
     1.0000   1.0000   1.0000   1.0000   1.0000   1.0000   1.0000   1.0000
     1.0000   1.0000   1.0000   1.0000   1.0000   1.0000   1.0000   1.0000

          k = 0.0575 0.0344-0.0047 (140332 PWs)   bands (ev):

   -23.8574 -23.8526 -23.8329 -23.8292 -23.5855 -23.5839 -23.5724 -23.5716
   -19.1004 -19.0997 -19.0888 -19.0884 -18.7876 -18.7872 -18.7731 -18.7726
   -18.1713 -18.1606 -17.1238 -17.1034 -17.0047 -17.0047 -15.9785 -15.9716
   -12.0136 -12.0099 -11.9308 -11.8926 -11.7529 -11.7288 -11.6907 -11.6881
    -8.8047  -8.7697  -8.1909  -8.1876  -7.4756  -7.4714  -7.4287  -7.3845
    -6.9263  -6.8892  -6.5287  -6.5163  -6.3867  -6.3772  -6.2890  -6.2780
    -6.0682  -6.0593  -5.9053  -5.8830  -5.7844  -5.7701  -5.6950  -5.6891
    -5.5644  -5.5488  -5.4730  -5.4699  -5.0495  -5.0381  -4.8240  -4.8227
    -4.3879  -4.3708  -4.3101  -4.2863  -3.9326  -3.9150  -3.6974  -3.6949
    -3.5863  -3.5599  -3.5420  -3.5012  -3.0906  -3.0746  -2.9554  -2.9481
    -0.6229  -0.6023  -0.2271  -0.2185  -0.1713  -0.1480  -0.1413  -0.1217
    -0.0200   0.0015   0.1465   0.1752   0.2661   0.2868   0.3951   0.4159
     0.6550   0.6887   0.7572   0.7829   0.8366   0.8650   0.9471   0.9521
     1.0163   1.0291   1.1096   1.1504   1.3706   1.3726   1.3947   1.4026

     occupation numbers 
     1.0000   1.0000   1.0000   1.0000   1.0000   1.0000   1.0000   1.0000
     1.0000   1.0000   1.0000   1.0000   1.0000   1.0000   1.0000   1.0000
     1.0000   1.0000   1.0000   1.0000   1.0000   1.0000   1.0000   1.0000
     1.0000   1.0000   1.0000   1.0000   1.0000   1.0000   1.0000   1.0000
     1.0000   1.0000   1.0000   1.0000   1.0000   1.0000   1.0000   1.0000
     1.0000   1.0000   1.0000   1.0000   1.0000   1.0000   1.0000   1.0000
     1.0000   1.0000   1.0000   1.0000   1.0000   1.0000   1.0000   1.0000
     1.0000   1.0000   1.0000   1.0000   1.0000   1.0000   1.0000   1.0000
     1.0000   1.0000   1.0000   1.0000   1.0000   1.0000   1.0000   1.0000
     1.0000   1.0000   1.0000   1.0000   1.0000   1.0000   1.0000   1.0000
     1.0000   1.0000   1.0000   1.0000   1.0000   1.0000   1.0000   1.0000
     1.0000   1.0000   1.0000   1.0000   1.0000   1.0000   1.0000   1.0000
     1.0000   1.0000   1.0000   1.0000   1.0000   1.0000   1.0000   1.0000
     1.0000   1.0000   1.0000   1.0000   1.0000   1.0000   1.0000   1.0000

     highest occupied level (ev):     1.4641

!    total energy              =   -1282.04499509 Ry
     Harris-Foulkes estimate   =   -1282.04499589 Ry
     estimated scf accuracy    <       0.00000089 Ry

     total all-electron energy =     -4786.488743 Ry

     The total energy is the sum of the following terms:

     one-electron contribution =    -633.80853966 Ry
     hartree contribution      =     415.70662862 Ry
     xc contribution           =    -260.20836265 Ry
     ewald contribution        =    -473.34328581 Ry
     one-center paw contrib.   =    -330.39143559 Ry

     convergence has been achieved in  22 iterations

     Forces acting on atoms (Ry/au):

     atom    1 type  1   force =    -0.01370729   -0.00661069   -0.01017206
     atom    2 type  4   force =     0.02869822    0.00793816   -0.01818974
     atom    3 type  1   force =    -0.00091816   -0.01163349   -0.01690583
     atom    4 type  1   force =     0.01281710   -0.00484617    0.00300499
     atom    5 type  4   force =     0.00517530   -0.03560398    0.03861454
     atom    6 type  1   force =     0.01050632    0.01188789   -0.01482050
     atom    7 type  4   force =    -0.00980168    0.02110999    0.04244402
     atom    8 type  2   force =     0.15640682   -0.09971310    0.04669744
     atom    9 type  3   force =    -0.12073600   -0.05440632   -0.12453070
     atom   10 type  3   force =    -0.04055415    0.16059572    0.07164188
     atom   11 type  4   force =    -0.03702528    0.02272275   -0.01624408
     atom   12 type  2   force =     0.12094382   -0.05790938    0.21094798
     atom   13 type  3   force =    -0.19601093   -0.09839773   -0.06245643
     atom   14 type  3   force =     0.06845677    0.15572432   -0.15311219
     atom   15 type  3   force =     0.06845677   -0.15572432   -0.15311219
     atom   16 type  3   force =    -0.19601093    0.09839773   -0.06245643
     atom   17 type  2   force =     0.12094382    0.05790938    0.21094798
     atom   18 type  4   force =    -0.03702528   -0.02272275   -0.01624408
     atom   19 type  3   force =    -0.04055415   -0.16059572    0.07164188
     atom   20 type  3   force =    -0.12073600    0.05440632   -0.12453070
     atom   21 type  2   force =     0.15640682    0.09971310    0.04669744
     atom   22 type  4   force =    -0.00980168   -0.02110999    0.04244402
     atom   23 type  1   force =     0.01050632   -0.01188789   -0.01482050
     atom   24 type  4   force =     0.00517530    0.03560398    0.03861454
     atom   25 type  1   force =     0.01281710    0.00484617    0.00300499
     atom   26 type  1   force =    -0.00091816    0.01163349   -0.01690583
     atom   27 type  4   force =     0.02869822   -0.00793816   -0.01818974
     atom   28 type  1   force =    -0.01370729    0.00661069   -0.01017206
     atom   29 type  3   force =    -0.06845677   -0.15572432    0.15311219
     atom   30 type  3   force =     0.19601093    0.09839773    0.06245643
     atom   31 type  2   force =    -0.12094382    0.05790938   -0.21094798
     atom   32 type  4   force =     0.03702528   -0.02272275    0.01624408
     atom   33 type  3   force =     0.04055415   -0.16059572   -0.07164188
     atom   34 type  3   force =     0.12073600    0.05440632    0.12453070
     atom   35 type  2   force =    -0.15640682    0.09971310   -0.04669744
     atom   36 type  4   force =     0.00980168   -0.02110999   -0.04244402
     atom   37 type  1   force =    -0.01050632   -0.01188789    0.01482050
     atom   38 type  4   force =    -0.00517530    0.03560398   -0.03861454
     atom   39 type  1   force =    -0.01281710    0.00484617   -0.00300499
     atom   40 type  1   force =     0.00091816    0.01163349    0.01690583
     atom   41 type  4   force =    -0.02869822   -0.00793816    0.01818974
     atom   42 type  1   force =     0.01370729    0.00661069    0.01017206
     atom   43 type  3   force =    -0.06845677    0.15572432    0.15311219
     atom   44 type  3   force =     0.19601093   -0.09839773    0.06245643
     atom   45 type  2   force =    -0.12094382   -0.05790938   -0.21094798
     atom   46 type  4   force =     0.03702528    0.02272275    0.01624408
     atom   47 type  3   force =     0.04055415    0.16059572   -0.07164188
     atom   48 type  3   force =     0.12073600   -0.05440632    0.12453070
     atom   49 type  2   force =    -0.15640682   -0.09971310   -0.04669744
     atom   50 type  4   force =     0.00980168    0.02110999   -0.04244402
     atom   51 type  1   force =    -0.01050632    0.01188789    0.01482050
     atom   52 type  4   force =    -0.00517530   -0.03560398   -0.03861454
     atom   53 type  1   force =    -0.01281710   -0.00484617   -0.00300499
     atom   54 type  1   force =     0.00091816   -0.01163349    0.01690583
     atom   55 type  4   force =    -0.02869822    0.00793816    0.01818974
     atom   56 type  1   force =     0.01370729   -0.00661069    0.01017206
     The non-local contrib.  to forces
     atom    1 type  1   force =     0.17207276    0.37617394    0.11408549
     atom    2 type  4   force =    -2.39974445   -0.45991002    1.53806311
     atom    3 type  1   force =     0.04232882   -0.03258657    0.05449235
     atom    4 type  1   force =    -0.57613323   -0.42296755   -0.12545431
     atom    5 type  4   force =     0.16712319    1.86567174   -2.24333939
     atom    6 type  1   force =    -0.00663048    0.06253591    0.05911865
     atom    7 type  4   force =     0.53755367   -1.16911380   -2.62948008
     atom    8 type  2   force =     0.62590430   -0.42617944    0.17579886
     atom    9 type  3   force =     0.07749161    0.02685876    0.06765227
     atom   10 type  3   force =     0.02813784   -0.09642511   -0.03809154
     atom   11 type  4   force =     2.26664444   -1.47578398    0.83949440
     atom   12 type  2   force =     0.38225929   -0.19138438    0.69970099
     atom   13 type  3   force =     0.09390669    0.04780529    0.03979673
     atom   14 type  3   force =    -0.03060899   -0.07478253    0.07999730
     atom   15 type  3   force =    -0.03060899    0.07478253    0.07999730
     atom   16 type  3   force =     0.09390669   -0.04780529    0.03979673
     atom   17 type  2   force =     0.38225929    0.19138438    0.69970099
     atom   18 type  4   force =     2.26664444    1.47578398    0.83949440
     atom   19 type  3   force =     0.02813784    0.09642511   -0.03809154
     atom   20 type  3   force =     0.07749161   -0.02685876    0.06765227
     atom   21 type  2   force =     0.62590430    0.42617944    0.17579886
     atom   22 type  4   force =     0.53755367    1.16911380   -2.62948008
     atom   23 type  1   force =    -0.00663048   -0.06253591    0.05911865
     atom   24 type  4   force =     0.16712319   -1.86567174   -2.24333939
     atom   25 type  1   force =    -0.57613323    0.42296755   -0.12545431
     atom   26 type  1   force =     0.04232882    0.03258657    0.05449235
     atom   27 type  4   force =    -2.39974445    0.45991002    1.53806311
     atom   28 type  1   force =     0.17207276   -0.37617394    0.11408549
     atom   29 type  3   force =     0.03060899    0.07478253   -0.07999730
     atom   30 type  3   force =    -0.09390669   -0.04780529   -0.03979673
     atom   31 type  2   force =    -0.38225929    0.19138438   -0.69970099
     atom   32 type  4   force =    -2.26664444    1.47578398   -0.83949440
     atom   33 type  3   force =    -0.02813784    0.09642511    0.03809154
     atom   34 type  3   force =    -0.07749161   -0.02685876   -0.06765227
     atom   35 type  2   force =    -0.62590430    0.42617944   -0.17579886
     atom   36 type  4   force =    -0.53755367    1.16911380    2.62948008
     atom   37 type  1   force =     0.00663048   -0.06253591   -0.05911865
     atom   38 type  4   force =    -0.16712319   -1.86567174    2.24333939
     atom   39 type  1   force =     0.57613323    0.42296755    0.12545431
     atom   40 type  1   force =    -0.04232882    0.03258657   -0.05449235
     atom   41 type  4   force =     2.39974445    0.45991002   -1.53806311
     atom   42 type  1   force =    -0.17207276   -0.37617394   -0.11408549
     atom   43 type  3   force =     0.03060899   -0.07478253   -0.07999730
     atom   44 type  3   force =    -0.09390669    0.04780529   -0.03979673
     atom   45 type  2   force =    -0.38225929   -0.19138438   -0.69970099
     atom   46 type  4   force =    -2.26664444   -1.47578398   -0.83949440
     atom   47 type  3   force =    -0.02813784   -0.09642511    0.03809154
     atom   48 type  3   force =    -0.07749161    0.02685876   -0.06765227
     atom   49 type  2   force =    -0.62590430   -0.42617944   -0.17579886
     atom   50 type  4   force =    -0.53755367   -1.16911380    2.62948008
     atom   51 type  1   force =     0.00663048    0.06253591   -0.05911865
     atom   52 type  4   force =    -0.16712319    1.86567174    2.24333939
     atom   53 type  1   force =     0.57613323   -0.42296755    0.12545431
     atom   54 type  1   force =    -0.04232882   -0.03258657   -0.05449235
     atom   55 type  4   force =     2.39974445   -0.45991002   -1.53806311
     atom   56 type  1   force =    -0.17207276    0.37617394   -0.11408549
     The ionic contribution  to forces
     atom    1 type  1   force =    -3.03704534    0.23068460   -1.99937260
     atom    2 type  4   force =    12.20159925    4.24569638   -5.95501004
     atom    3 type  1   force =    -0.21338486    1.62447895    0.00672683
     atom    4 type  1   force =     2.80124776    2.82706232    2.02032485
     atom    5 type  4   force =    -1.30237236   -8.61145636   11.42936299
     atom    6 type  1   force =    -0.32683552    0.09668376    1.02280648
     atom    7 type  4   force =    -2.05358400    6.26876102   12.45980920
     atom    8 type  2   force =    -4.06970673    3.24941004   -1.21895625
     atom    9 type  3   force =    -2.21435278   -0.14201158   -1.96089374
     atom   10 type  3   force =    -1.22378006    2.74662803    0.69630709
     atom   11 type  4   force =   -11.13217065    6.18259145   -2.34477034
     atom   12 type  2   force =    -2.86884381    0.94443327   -4.69350685
     atom   13 type  3   force =    -2.59964860   -1.06048005   -1.58695539
     atom   14 type  3   force =     0.27688983    2.05265280   -2.52621440
     atom   15 type  3   force =     0.27688983   -2.05265280   -2.52621440
     atom   16 type  3   force =    -2.59964860    1.06048005   -1.58695539
     atom   17 type  2   force =    -2.86884381   -0.94443327   -4.69350685
     atom   18 type  4   force =   -11.13217065   -6.18259145   -2.34477034
     atom   19 type  3   force =    -1.22378006   -2.74662803    0.69630709
     atom   20 type  3   force =    -2.21435278    0.14201158   -1.96089374
     atom   21 type  2   force =    -4.06970673   -3.24941004   -1.21895625
     atom   22 type  4   force =    -2.05358400   -6.26876102   12.45980920
     atom   23 type  1   force =    -0.32683552   -0.09668376    1.02280648
     atom   24 type  4   force =    -1.30237236    8.61145636   11.42936299
     atom   25 type  1   force =     2.80124776   -2.82706232    2.02032485
     atom   26 type  1   force =    -0.21338486   -1.62447895    0.00672683
     atom   27 type  4   force =    12.20159925   -4.24569638   -5.95501004
     atom   28 type  1   force =    -3.03704534   -0.23068460   -1.99937260
     atom   29 type  3   force =    -0.27688983   -2.05265280    2.52621440
     atom   30 type  3   force =     2.59964860    1.06048005    1.58695539
     atom   31 type  2   force =     2.86884381   -0.94443327    4.69350685
     atom   32 type  4   force =    11.13217065   -6.18259145    2.34477034
     atom   33 type  3   force =     1.22378006   -2.74662803   -0.69630709
     atom   34 type  3   force =     2.21435278    0.14201158    1.96089374
     atom   35 type  2   force =     4.06970673   -3.24941004    1.21895625
     atom   36 type  4   force =     2.05358400   -6.26876102  -12.45980920
     atom   37 type  1   force =     0.32683552   -0.09668376   -1.02280648
     atom   38 type  4   force =     1.30237236    8.61145636  -11.42936299
     atom   39 type  1   force =    -2.80124776   -2.82706232   -2.02032485
     atom   40 type  1   force =     0.21338486   -1.62447895   -0.00672683
     atom   41 type  4   force =   -12.20159925   -4.24569638    5.95501004
     atom   42 type  1   force =     3.03704534   -0.23068460    1.99937260
     atom   43 type  3   force =    -0.27688983    2.05265280    2.52621440
     atom   44 type  3   force =     2.59964860   -1.06048005    1.58695539
     atom   45 type  2   force =     2.86884381    0.94443327    4.69350685
     atom   46 type  4   force =    11.13217065    6.18259145    2.34477034
     atom   47 type  3   force =     1.22378006    2.74662803   -0.69630709
     atom   48 type  3   force =     2.21435278   -0.14201158    1.96089374
     atom   49 type  2   force =     4.06970673    3.24941004    1.21895625
     atom   50 type  4   force =     2.05358400    6.26876102  -12.45980920
     atom   51 type  1   force =     0.32683552    0.09668376   -1.02280648
     atom   52 type  4   force =     1.30237236   -8.61145636  -11.42936299
     atom   53 type  1   force =    -2.80124776    2.82706232   -2.02032485
     atom   54 type  1   force =     0.21338486    1.62447895   -0.00672683
     atom   55 type  4   force =   -12.20159925    4.24569638    5.95501004
     atom   56 type  1   force =     3.03704534    0.23068460    1.99937260
     The local contribution  to forces
     atom    1 type  1   force =     2.85441160   -0.60719542    1.87691897
     atom    2 type  4   force =    -9.79175873   -3.78141587    4.41057889
     atom    3 type  1   force =     0.17014321   -1.60530905   -0.07866382
     atom    4 type  1   force =    -2.22163830   -2.41548254   -1.89340454
     atom    5 type  4   force =     1.14192764    6.72452953   -9.16494538
     atom    6 type  1   force =     0.34537330   -0.14590702   -1.09641299
     atom    7 type  4   force =     1.51037529   -5.08755825   -9.80839866
     atom    8 type  2   force =     3.61352216   -2.93250295    1.09457292
     atom    9 type  3   force =     2.01612304    0.06074387    1.76872576
     atom   10 type  3   force =     1.15507273   -2.48960137   -0.58655538
     atom   11 type  4   force =     8.84640774   -4.69577311    1.49574378
     atom   12 type  2   force =     2.61634563   -0.81499828    4.22056141
     atom   13 type  3   force =     2.30975676    0.91427547    1.48469473
     atom   14 type  3   force =    -0.17779512   -1.82215149    2.29310208
     atom   15 type  3   force =    -0.17779512    1.82215149    2.29310208
     atom   16 type  3   force =     2.30975676   -0.91427547    1.48469473
     atom   17 type  2   force =     2.61634563    0.81499828    4.22056141
     atom   18 type  4   force =     8.84640774    4.69577311    1.49574378
     atom   19 type  3   force =     1.15507273    2.48960137   -0.58655538
     atom   20 type  3   force =     2.01612304   -0.06074387    1.76872576
     atom   21 type  2   force =     3.61352216    2.93250295    1.09457292
     atom   22 type  4   force =     1.51037529    5.08755825   -9.80839866
     atom   23 type  1   force =     0.34537330    0.14590702   -1.09641299
     atom   24 type  4   force =     1.14192764   -6.72452953   -9.16494538
     atom   25 type  1   force =    -2.22163830    2.41548254   -1.89340454
     atom   26 type  1   force =     0.17014321    1.60530905   -0.07866382
     atom   27 type  4   force =    -9.79175873    3.78141587    4.41057889
     atom   28 type  1   force =     2.85441160    0.60719542    1.87691897
     atom   29 type  3   force =     0.17779512    1.82215149   -2.29310208
     atom   30 type  3   force =    -2.30975676   -0.91427547   -1.48469473
     atom   31 type  2   force =    -2.61634563    0.81499828   -4.22056141
     atom   32 type  4   force =    -8.84640774    4.69577311   -1.49574378
     atom   33 type  3   force =    -1.15507273    2.48960137    0.58655538
     atom   34 type  3   force =    -2.01612304   -0.06074387   -1.76872576
[...]
     atom   38 type  4   force =    -1.14192764   -6.72452953    9.16494538
     atom   39 type  1   force =     2.22163830    2.41548254    1.89340454
     atom   40 type  1   force =    -0.17014321    1.60530905    0.07866382
     atom   41 type  4   force =     9.79175873    3.78141587   -4.41057889
     atom   42 type  1   force =    -2.85441160    0.60719542   -1.87691897
     atom   43 type  3   force =     0.17779512   -1.82215149   -2.29310208
     atom   44 type  3   force =    -2.30975676    0.91427547   -1.48469473
     atom   45 type  2   force =    -2.61634563   -0.81499828   -4.22056141
     atom   46 type  4   force =    -8.84640774   -4.69577311   -1.49574378
     atom   47 type  3   force =    -1.15507273   -2.48960137    0.58655538
     atom   48 type  3   force =    -2.01612304    0.06074387   -1.76872576
     atom   49 type  2   force =    -3.61352216   -2.93250295   -1.09457292
     atom   50 type  4   force =    -1.51037529   -5.08755825    9.80839866
     atom   51 type  1   force =    -0.34537330   -0.14590702    1.09641299
     atom   52 type  4   force =    -1.14192764    6.72452953    9.16494538
     atom   53 type  1   force =     2.22163830   -2.41548254    1.89340454
     atom   54 type  1   force =    -0.17014321   -1.60530905    0.07866382
     atom   55 type  4   force =     9.79175873   -3.78141587   -4.41057889
     atom   56 type  1   force =    -2.85441160   -0.60719542   -1.87691897
     The core correction contribution to forces
     atom    1 type  1   force =    -0.00301766   -0.00630514   -0.00184536
     atom    2 type  4   force =     0.01870465    0.00349851   -0.01201303
     atom    3 type  1   force =     0.00034856    0.00166948    0.00003192
     atom    4 type  1   force =     0.00926272    0.00643738    0.00164146
     atom    5 type  4   force =    -0.00136824   -0.01427170    0.01737960
     atom    6 type  1   force =    -0.00112784   -0.00162959   -0.00020286
     atom    7 type  4   force =    -0.00413549    0.00889130    0.02026882
     atom    8 type  2   force =    -0.01332222    0.00951305   -0.00465911
     atom    9 type  3   force =     0.00000000    0.00000000    0.00000000
     atom   10 type  3   force =     0.00000000    0.00000000    0.00000000
     atom   11 type  4   force =    -0.01760546    0.01153401   -0.00662570
     atom   12 type  2   force =    -0.00869808    0.00403277   -0.01582857
     atom   13 type  3   force =     0.00000000    0.00000000    0.00000000
     atom   14 type  3   force =     0.00000000    0.00000000    0.00000000
     atom   15 type  3   force =     0.00000000    0.00000000    0.00000000
     atom   16 type  3   force =     0.00000000    0.00000000    0.00000000
     atom   17 type  2   force =    -0.00869808   -0.00403277   -0.01582857
     atom   18 type  4   force =    -0.01760546   -0.01153401   -0.00662570
     atom   19 type  3   force =     0.00000000    0.00000000    0.00000000
     atom   20 type  3   force =     0.00000000    0.00000000    0.00000000
     atom   21 type  2   force =    -0.01332222   -0.00951305   -0.00465911
     atom   22 type  4   force =    -0.00413549   -0.00889130    0.02026882
     atom   23 type  1   force =    -0.00112784    0.00162959   -0.00020286
     atom   24 type  4   force =    -0.00136824    0.01427170    0.01737960
     atom   25 type  1   force =     0.00926272   -0.00643738    0.00164146
     atom   26 type  1   force =     0.00034856   -0.00166948    0.00003192
     atom   27 type  4   force =     0.01870465   -0.00349851   -0.01201303
     atom   28 type  1   force =    -0.00301766    0.00630514   -0.00184536
     atom   29 type  3   force =     0.00000000    0.00000000    0.00000000
     atom   30 type  3   force =     0.00000000    0.00000000    0.00000000
     atom   31 type  2   force =     0.00869808   -0.00403277    0.01582857
     atom   32 type  4   force =     0.01760546   -0.01153401    0.00662570
     atom   33 type  3   force =     0.00000000    0.00000000    0.00000000
     atom   34 type  3   force =     0.00000000    0.00000000    0.00000000
     atom   35 type  2   force =     0.01332222   -0.00951305    0.00465911
     atom   36 type  4   force =     0.00413549   -0.00889130   -0.02026882
     atom   37 type  1   force =     0.00112784    0.00162959    0.00020286
     atom   38 type  4   force =     0.00136824    0.01427170   -0.01737960
     atom   39 type  1   force =    -0.00926272   -0.00643738   -0.00164146
     atom   40 type  1   force =    -0.00034856   -0.00166948   -0.00003192
     atom   41 type  4   force =    -0.01870465   -0.00349851    0.01201303
     atom   42 type  1   force =     0.00301766    0.00630514    0.00184536
     atom   43 type  3   force =     0.00000000    0.00000000    0.00000000
     atom   44 type  3   force =     0.00000000    0.00000000    0.00000000
     atom   45 type  2   force =     0.00869808    0.00403277    0.01582857
     atom   46 type  4   force =     0.01760546    0.01153401    0.00662570
     atom   47 type  3   force =     0.00000000    0.00000000    0.00000000
     atom   48 type  3   force =     0.00000000    0.00000000    0.00000000
     atom   49 type  2   force =     0.01332222    0.00951305    0.00465911
     atom   50 type  4   force =     0.00413549    0.00889130   -0.02026882
     atom   51 type  1   force =     0.00112784   -0.00162959    0.00020286
     atom   52 type  4   force =     0.00136824   -0.01427170   -0.01737960
     atom   53 type  1   force =    -0.00926272    0.00643738   -0.00164146
     atom   54 type  1   force =    -0.00034856    0.00166948   -0.00003192
     atom   55 type  4   force =    -0.01870465    0.00349851    0.01201303
     atom   56 type  1   force =     0.00301766   -0.00630514    0.00184536
     The Hubbard contrib.    to forces
     atom    1 type  1   force =     0.00000000    0.00000000    0.00000000
     atom    2 type  4   force =     0.00000000    0.00000000    0.00000000
     atom    3 type  1   force =     0.00000000    0.00000000    0.00000000
     atom    4 type  1   force =     0.00000000    0.00000000    0.00000000
     atom    5 type  4   force =     0.00000000    0.00000000    0.00000000
     atom    6 type  1   force =     0.00000000    0.00000000    0.00000000
     atom    7 type  4   force =     0.00000000    0.00000000    0.00000000
     atom    8 type  2   force =     0.00000000    0.00000000    0.00000000
     atom    9 type  3   force =     0.00000000    0.00000000    0.00000000
     atom   10 type  3   force =     0.00000000    0.00000000    0.00000000
     atom   11 type  4   force =     0.00000000    0.00000000    0.00000000
     atom   12 type  2   force =     0.00000000    0.00000000    0.00000000
     atom   13 type  3   force =     0.00000000    0.00000000    0.00000000
     atom   14 type  3   force =     0.00000000    0.00000000    0.00000000
     atom   15 type  3   force =     0.00000000    0.00000000    0.00000000
     atom   16 type  3   force =     0.00000000    0.00000000    0.00000000
     atom   17 type  2   force =     0.00000000    0.00000000    0.00000000
     atom   18 type  4   force =     0.00000000    0.00000000    0.00000000
     atom   19 type  3   force =     0.00000000    0.00000000    0.00000000
     atom   20 type  3   force =     0.00000000    0.00000000    0.00000000
     atom   21 type  2   force =     0.00000000    0.00000000    0.00000000
     atom   22 type  4   force =     0.00000000    0.00000000    0.00000000
     atom   23 type  1   force =     0.00000000    0.00000000    0.00000000
     atom   24 type  4   force =     0.00000000    0.00000000    0.00000000
     atom   25 type  1   force =     0.00000000    0.00000000    0.00000000
     atom   26 type  1   force =     0.00000000    0.00000000    0.00000000
     atom   27 type  4   force =     0.00000000    0.00000000    0.00000000
     atom   28 type  1   force =     0.00000000    0.00000000    0.00000000
     atom   29 type  3   force =     0.00000000    0.00000000    0.00000000
     atom   30 type  3   force =     0.00000000    0.00000000    0.00000000
     atom   31 type  2   force =     0.00000000    0.00000000    0.00000000
     atom   32 type  4   force =     0.00000000    0.00000000    0.00000000
     atom   33 type  3   force =     0.00000000    0.00000000    0.00000000
     atom   34 type  3   force =     0.00000000    0.00000000    0.00000000
     atom   35 type  2   force =     0.00000000    0.00000000    0.00000000
     atom   36 type  4   force =     0.00000000    0.00000000    0.00000000
     atom   37 type  1   force =     0.00000000    0.00000000    0.00000000
     atom   38 type  4   force =     0.00000000    0.00000000    0.00000000
     atom   39 type  1   force =     0.00000000    0.00000000    0.00000000
     atom   40 type  1   force =     0.00000000    0.00000000    0.00000000
     atom   41 type  4   force =     0.00000000    0.00000000    0.00000000
     atom   42 type  1   force =     0.00000000    0.00000000    0.00000000
     atom   43 type  3   force =     0.00000000    0.00000000    0.00000000
     atom   44 type  3   force =     0.00000000    0.00000000    0.00000000
     atom   45 type  2   force =     0.00000000    0.00000000    0.00000000
     atom   46 type  4   force =     0.00000000    0.00000000    0.00000000
     atom   47 type  3   force =     0.00000000    0.00000000    0.00000000
     atom   48 type  3   force =     0.00000000    0.00000000    0.00000000
     atom   49 type  2   force =     0.00000000    0.00000000    0.00000000
     atom   50 type  4   force =     0.00000000    0.00000000    0.00000000
     atom   51 type  1   force =     0.00000000    0.00000000    0.00000000
     atom   52 type  4   force =     0.00000000    0.00000000    0.00000000
     atom   53 type  1   force =     0.00000000    0.00000000    0.00000000
     atom   54 type  1   force =     0.00000000    0.00000000    0.00000000
     atom   55 type  4   force =     0.00000000    0.00000000    0.00000000
     atom   56 type  1   force =     0.00000000    0.00000000    0.00000000
     The SCF correction term to forces
     atom    1 type  1   force =    -0.00012865    0.00003134    0.00004145
     atom    2 type  4   force =    -0.00010250    0.00006916    0.00019134
     atom    3 type  1   force =    -0.00035388    0.00011369    0.00050690
     atom    4 type  1   force =     0.00007817    0.00010424   -0.00010247
     atom    5 type  4   force =    -0.00013493   -0.00007719    0.00015673
     atom    6 type  1   force =    -0.00027315    0.00020483   -0.00012978
     atom    7 type  4   force =    -0.00001116    0.00012972    0.00024474
     atom    8 type  2   force =     0.00000930    0.00004620   -0.00005898
     atom    9 type  3   force =     0.00000213    0.00000263   -0.00001500
     atom   10 type  3   force =     0.00001534   -0.00000582   -0.00001828
     atom   11 type  4   force =    -0.00030135    0.00015438   -0.00008623
     atom   12 type  2   force =    -0.00011920    0.00000724    0.00002099
     atom   13 type  3   force =    -0.00002579    0.00000156    0.00000749
     atom   14 type  3   force =    -0.00002895    0.00000553    0.00000283
     atom   15 type  3   force =    -0.00002895   -0.00000553    0.00000283
     atom   16 type  3   force =    -0.00002579   -0.00000156    0.00000749
     atom   17 type  2   force =    -0.00011920   -0.00000724    0.00002099
     atom   18 type  4   force =    -0.00030135   -0.00015438   -0.00008623
     atom   19 type  3   force =     0.00001534    0.00000582   -0.00001828
     atom   20 type  3   force =     0.00000213   -0.00000263   -0.00001500
     atom   21 type  2   force =     0.00000930   -0.00004620   -0.00005898
     atom   22 type  4   force =    -0.00001116   -0.00012972    0.00024474
     atom   23 type  1   force =    -0.00027315   -0.00020483   -0.00012978
     atom   24 type  4   force =    -0.00013493    0.00007719    0.00015673
     atom   25 type  1   force =     0.00007817   -0.00010424   -0.00010247
     atom   26 type  1   force =    -0.00035388   -0.00011369    0.00050690
     atom   27 type  4   force =    -0.00010250   -0.00006916    0.00019134
     atom   28 type  1   force =    -0.00012865   -0.00003134    0.00004145
     atom   29 type  3   force =     0.00002895   -0.00000553   -0.00000283
     atom   30 type  3   force =     0.00002579   -0.00000156   -0.00000749
     atom   31 type  2   force =     0.00011920   -0.00000724   -0.00002099
     atom   32 type  4   force =     0.00030135   -0.00015438    0.00008623
     atom   33 type  3   force =    -0.00001534    0.00000582    0.00001828
     atom   34 type  3   force =    -0.00000213   -0.00000263    0.00001500
     atom   35 type  2   force =    -0.00000930   -0.00004620    0.00005898
     atom   36 type  4   force =     0.00001116   -0.00012972   -0.00024474
     atom   37 type  1   force =     0.00027315   -0.00020483    0.00012978
     atom   38 type  4   force =     0.00013493    0.00007719   -0.00015673
     atom   39 type  1   force =    -0.00007817   -0.00010424    0.00010247
     atom   40 type  1   force =     0.00035388   -0.00011369   -0.00050690
     atom   41 type  4   force =     0.00010250   -0.00006916   -0.00019134
     atom   42 type  1   force =     0.00012865   -0.00003134   -0.00004145
     atom   43 type  3   force =     0.00002895    0.00000553   -0.00000283
     atom   44 type  3   force =     0.00002579    0.00000156   -0.00000749
     atom   45 type  2   force =     0.00011920    0.00000724   -0.00002099
     atom   46 type  4   force =     0.00030135    0.00015438    0.00008623
     atom   47 type  3   force =    -0.00001534   -0.00000582    0.00001828
     atom   48 type  3   force =    -0.00000213    0.00000263    0.00001500
     atom   49 type  2   force =    -0.00000930    0.00004620    0.00005898
     atom   50 type  4   force =     0.00001116    0.00012972   -0.00024474
     atom   51 type  1   force =     0.00027315    0.00020483    0.00012978
     atom   52 type  4   force =     0.00013493   -0.00007719   -0.00015673
     atom   53 type  1   force =    -0.00007817    0.00010424    0.00010247
     atom   54 type  1   force =     0.00035388    0.00011369   -0.00050690
     atom   55 type  4   force =     0.00010250    0.00006916   -0.00019134
     atom   56 type  1   force =     0.00012865    0.00003134   -0.00004145

     Total force =     1.056381     Total SCF correction =     0.001895


     entering subroutine stress ...

          total   stress  (Ry/bohr**3)                   (kbar)     P=  138.25
   0.00097451   0.00000000   0.00012098        143.36      0.00     17.80
   0.00000000   0.00094896   0.00000000          0.00    139.60      0.00
   0.00012098   0.00000000   0.00089600         17.80      0.00    131.81

     kinetic stress (kbar)  15309.44      0.00    336.19
                                0.00  15728.51      0.00
                              336.19      0.00  15260.43

     local   stress (kbar) -15742.63     -0.00   7919.34
                               -0.00  -8767.88      0.00
                             7919.34      0.00 -11904.96

     nonloc. stress (kbar)   1036.09      0.00     11.07
                                0.00   1046.18      0.00
                               11.07      0.00   1006.13

     hartree stress (kbar)   7095.16     -0.00  -2890.73
                               -0.00   5050.10      0.00
                            -2890.73      0.00   5625.70

     exc-cor stress (kbar)  -2207.74      0.00    -10.98
                                0.00  -2228.28      0.00
                              -10.98      0.00  -2213.43

     corecor stress (kbar)  -1147.19      0.00     -2.79
                                0.00  -1149.17      0.00
                               -2.79      0.00  -1146.85

     ewald   stress (kbar)  -4199.77      0.00  -5344.31
                                0.00  -9539.87      0.00
                            -5344.31      0.00  -6495.22

     hubbard stress (kbar)      0.00      0.00      0.00
                                0.00      0.00      0.00
                                0.00      0.00      0.00

     london  stress (kbar)      0.00      0.00      0.00
                                0.00      0.00      0.00
                                0.00      0.00      0.00

     XDM     stress (kbar)      0.00      0.00      0.00
                                0.00      0.00      0.00
                                0.00      0.00      0.00

     dft-nl  stress (kbar)      0.00      0.00      0.00
                                0.00      0.00      0.00
                                0.00      0.00      0.00

     TS-vdW  stress (kbar)      0.00      0.00      0.00
                                0.00      0.00      0.00
                                0.00      0.00      0.00



     Writing output data file scf.pbe.ec-180.kp-444.HMX-792932.np-8.default-conv-thr.save

     init_run     :    996.02s CPU   1053.44s WALL (       1 calls)
     electrons    :  38436.06s CPU  48354.61s WALL (       1 calls)
     forces       :    555.17s CPU    804.08s WALL (       1 calls)
     stress       :   1506.94s CPU   1611.82s WALL (       1 calls)

     Called by init_run:
     wfcinit      :    702.10s CPU    747.14s WALL (       1 calls)
     potinit      :     91.44s CPU     95.37s WALL (       1 calls)

     Called by electrons:
     c_bands      :  32204.31s CPU  39904.60s WALL (      22 calls)
     sum_band     :   5496.69s CPU   6719.62s WALL (      22 calls)
     v_of_rho     :    149.32s CPU    214.62s WALL (      23 calls)
     v_h          :     15.06s CPU     17.74s WALL (      23 calls)
     v_xc         :    145.70s CPU    211.95s WALL (      25 calls)
     newd         :    537.79s CPU   1352.63s WALL (      23 calls)
     PAW_pot      :     17.16s CPU     26.96s WALL (      23 calls)
     mix_rho      :     37.27s CPU     96.04s WALL (      22 calls)

     Called by c_bands:
     init_us_2    :    155.26s CPU    252.39s WALL (     752 calls)
     cegterg      :  31843.10s CPU  38723.81s WALL (     352 calls)

     Called by sum_band:
     sum_band:bec :      0.40s CPU      0.48s WALL (     352 calls)
     addusdens    :    826.98s CPU   1551.71s WALL (      22 calls)

     Called by *egterg:
     h_psi        :  18505.07s CPU  23627.59s WALL (    1532 calls)
     s_psi        :   3101.41s CPU   3222.30s WALL (    1532 calls)
     g_psi        :     22.52s CPU     28.14s WALL (    1164 calls)
     cdiaghg      :    326.87s CPU    359.25s WALL (    1516 calls)
     cegterg:over :   4832.77s CPU   5596.37s WALL (    1164 calls)
     cegterg:upda :   1616.55s CPU   1658.95s WALL (    1164 calls)
     cegterg:last :    982.04s CPU   1056.74s WALL (     352 calls)

     Called by h_psi:
     h_psi:vloc   :  10416.86s CPU  10987.39s WALL (    1532 calls)
     h_psi:vnl    :   8004.87s CPU  12553.89s WALL (    1532 calls)
     add_vuspsi   :   3123.20s CPU   3336.34s WALL (    1532 calls)

     General routines
     calbec       :   6867.87s CPU  11465.95s WALL (    1964 calls)
     fft          :    179.18s CPU    300.39s WALL (     389 calls)
     ffts         :      4.92s CPU     10.49s WALL (      45 calls)
     fftw         :   6767.29s CPU   7447.49s WALL (  251232 calls)
     interpolate  :     26.61s CPU     61.40s WALL (      45 calls)
     davcio       :      1.59s CPU     45.17s WALL (      16 calls)

     Parallel routines
     fft_scatter  :   2671.40s CPU   3438.17s WALL (  251666 calls)

     PAW routines
     PAW_pot      :     17.16s CPU     26.96s WALL (      23 calls)
     PAW_symme    :      0.24s CPU      0.91s WALL (      45 calls)

     PWSCF        :    11h31m CPU       14h24m WALL


   This run was terminated on:  14:51:10  26Jun2016            

=------------------------------------------------------------------------------=
   JOB DONE.
=------------------------------------------------------------------------------=
