
     Program PWSCF v.5.3.0 (svn rev. 11974) starts on 25Jun2016 at 16:34:33 

     This program is part of the open-source Quantum ESPRESSO suite
     for quantum simulation of materials; please cite
         "P. Giannozzi et al., J. Phys.:Condens. Matter 21 395502 (2009);
          URL http://www.quantum-espresso.org", 
     in publications or presentations arising from this work. More details at
     http://www.quantum-espresso.org/quote

     Parallel version (MPI), running on     8 processors
     R & G space division:  proc/nbgrp/npool/nimage =       8
     Waiting for input...
     Reading input from standard input
Warning: card    &IONS ignored
Warning: card TRUST_RADIUS_MAX=0.2 ignored
Warning: card / ignored
Warning: card     &CELL ignored
Warning: card CELL_DYNAMICS='BFGS' ignored
Warning: card / ignored

     Current dimensions of program PWSCF are:
     Max number of different atomic species (ntypx) = 10
     Max number of k-points (npk) =  40000
     Max angular momentum in pseudopotentials (lmaxx) =  3
               file N.pbe-n-kjpaw_psl.1.0.0.UPF: wavefunction(s)  2S renormalized
               file C.pbe-n-kjpaw_psl.1.0.0.UPF: wavefunction(s)  2S 2P renormalized
               file H.pbe-kjpaw_psl.1.0.0.UPF: wavefunction(s)  1S renormalized
               file O.pbe-n-kjpaw_psl.1.0.0.UPF: wavefunction(s)  2S 2P renormalized

     Subspace diagonalization in iterative solution of the eigenvalue problem:
     a serial algorithm will be used


     Parallelization info
     --------------------
     sticks:   dense  smooth     PW     G-vecs:    dense   smooth      PW
     Min        3539    1416    372               380487    96250   13001
     Max        3541    1417    373               380488    96298   13003
     Sum       28319   11335   2977              3043903   770193  104013


     Title: 
     HMX-scf--kp-444-ec-140-default-conv-thr                                    


     bravais-lattice index     =            0
     lattice parameter (alat)  =       1.8897  a.u.
     unit-cell volume          =    3441.1511 (a.u.)^3
     number of atoms/cell      =           56
     number of atomic types    =            4
     number of electrons       =       224.00
     number of Kohn-Sham states=          112
     kinetic-energy cutoff     =     140.0000  Ry
     charge density cutoff     =    1400.0000  Ry
     convergence threshold     =      1.0E-06
     mixing beta               =       0.7000
     number of iterations used =            8  plain     mixing
     Exchange-correlation      =  SLA  PW   PBX  PBC ( 1  4  3  4 0 0)

     celldm(1)=   1.889726  celldm(2)=   0.000000  celldm(3)=   0.000000
     celldm(4)=   0.000000  celldm(5)=   0.000000  celldm(6)=   0.000000

     crystal axes: (cart. coord. in units of alat)
               a(1) = (   6.520600   0.000000   0.000000 )  
               a(2) = (   0.000000  10.912300   0.000000 )  
               a(3) = (  -1.584431   0.000000   7.166438 )  

     reciprocal axes: (cart. coord. in units 2 pi/alat)
               b(1) = (  0.153360 -0.000000  0.033906 )  
               b(2) = (  0.000000  0.091640 -0.000000 )  
               b(3) = (  0.000000  0.000000  0.139539 )  


     PseudoPot. # 1 for  N read from file:
     /users/majewski/.data/PSEUDOPOTENTIALS/N.pbe-n-kjpaw_psl.1.0.0.UPF
     MD5 check sum: c21df8f53e59d08c3548513d559cdda6
     Pseudo is Projector augmented-wave + core cor, Zval =  5.0
     Generated using "atomic" code by A. Dal Corso  v.5.3.0 svn rev. 11974
     Shape of augmentation charge: PSQ
     Using radial grid of 1085 points,  4 beta functions with: 
                l(1) =   0
                l(2) =   0
                l(3) =   1
                l(4) =   1
     Q(r) pseudized with 0 coefficients 


     PseudoPot. # 2 for  C read from file:
     /users/majewski/.data/PSEUDOPOTENTIALS/C.pbe-n-kjpaw_psl.1.0.0.UPF
     MD5 check sum: 2ba8448e293caca687844dde9a1b88a8
     Pseudo is Projector augmented-wave + core cor, Zval =  4.0
     Generated using "atomic" code by A. Dal Corso  v.5.3.0 svn rev. 11974
     Shape of augmentation charge: PSQ
     Using radial grid of 1073 points,  4 beta functions with: 
                l(1) =   0
                l(2) =   0
                l(3) =   1
                l(4) =   1
     Q(r) pseudized with 0 coefficients 


     PseudoPot. # 3 for  H read from file:
     /users/majewski/.data/PSEUDOPOTENTIALS/H.pbe-kjpaw_psl.1.0.0.UPF
     MD5 check sum: bc0feb48a24907a0b97fa6ee2d589a29
     Pseudo is Projector augmented-wave, Zval =  1.0
     Generated using "atomic" code by A. Dal Corso  v.5.3.0 svn rev. 11974
     Shape of augmentation charge: PSQ
     Using radial grid of  929 points,  2 beta functions with: 
                l(1) =   0
                l(2) =   0
     Q(r) pseudized with 0 coefficients 


     PseudoPot. # 4 for  O read from file:
     /users/majewski/.data/PSEUDOPOTENTIALS/O.pbe-n-kjpaw_psl.1.0.0.UPF
     MD5 check sum: 9c0ade6c043cf4a781bde3908a3a8206
     Pseudo is Projector augmented-wave + core cor, Zval =  6.0
     Generated using "atomic" code by A. Dal Corso  v.5.3.0 svn rev. 11974
     Shape of augmentation charge: PSQ
     Using radial grid of 1095 points,  4 beta functions with: 
                l(1) =   0
                l(2) =   0
                l(3) =   1
                l(4) =   1
     Q(r) pseudized with 0 coefficients 


     atomic species   valence    mass     pseudopotential
        N              5.00    14.00670      N( 1.00)
        C              4.00    12.01100      C( 1.00)
        H              1.00     1.00790      H( 1.00)
        O              6.00    15.99940      O( 1.00)

      4 Sym. Ops., with inversion, found ( 2 have fractional translation)


                                    s                        frac. trans.

      isym =  1     identity                                     

 cryst.   s( 1) = (     1          0          0      )
                  (     0          1          0      )
                  (     0          0          1      )

 cart.    s( 1) = (  1.0000000  0.0000000  0.0000000 )
                  (  0.0000000  1.0000000  0.0000000 )
                  (  0.0000000  0.0000000  1.0000000 )


      isym =  2     180 deg rotation - cart. axis [0,1,0]        

 cryst.   s( 2) = (    -1          0          0      )    f =(  0.5000000 )
                  (     0          1          0      )       (  0.5000000 )
                  (     0          0         -1      )       (  0.5000000 )

 cart.    s( 2) = ( -1.0000000  0.0000000  0.0000000 )    f =(  2.4680844 )
                  (  0.0000000  1.0000000  0.0000000 )       (  5.4561500 )
                  (  0.0000000  0.0000000 -1.0000000 )       (  3.5832191 )


      isym =  3     inversion                                    

 cryst.   s( 3) = (    -1          0          0      )
                  (     0         -1          0      )
                  (     0          0         -1      )

 cart.    s( 3) = ( -1.0000000  0.0000000  0.0000000 )
                  (  0.0000000 -1.0000000  0.0000000 )
                  (  0.0000000  0.0000000 -1.0000000 )


      isym =  4     inv. 180 deg rotation - cart. axis [0,1,0]   

 cryst.   s( 4) = (     1          0          0      )    f =( -0.5000000 )
                  (     0         -1          0      )       (  0.5000000 )
                  (     0          0          1      )       (  0.5000000 )

 cart.    s( 4) = (  1.0000000  0.0000000  0.0000000 )    f =( -4.0525156 )
                  (  0.0000000 -1.0000000  0.0000000 )       (  5.4561500 )
                  (  0.0000000  0.0000000  1.0000000 )       (  3.5832191 )


   Cartesian axes

     site n.     atom                  positions (alat units)
         1           N   tau(   1) = (  -0.8514256   6.7994541   3.2965616  )
         2           O   tau(   2) = (   1.0861733   7.8571834   3.1181173  )
         3           N   tau(   3) = (   0.0767309   7.6782216   3.7996456  )
         4           N   tau(   4) = (  -2.0523401   5.7423796   5.0623720  )
         5           O   tau(   5) = (  -3.2492170   4.6814858   6.6152675  )
         6           N   tau(   6) = (  -3.2346090   5.4771016   5.6880021  )
         7           O   tau(   7) = (  -0.1591847   8.1664380   4.8932441  )
         8           C   tau(   8) = (  -2.1226123   6.7208856   3.9616071  )
         9           H   tau(   9) = (  -2.8210125   6.4469868   3.3159110  )
        10           H   tau(  10) = (  -2.3671219   7.6102380   4.3213623  )
        11           O   tau(  11) = (  -4.2070896   6.1208182   5.2845316  )
        12           C   tau(  12) = (  -0.5868989   6.1719969   2.0116192  )
        13           H   tau(  13) = (  -1.4066974   5.7518733   1.7056123  )
        14           H   tau(  14) = (  -0.3093298   6.8136401   1.3401240  )
        15           H   tau(  15) = (   3.7431858  -1.3574901  -2.2430952  )
        16           H   tau(  16) = (   2.6458182  -0.2957233  -1.8776068  )
        17           C   tau(  17) = (   3.4656167  -0.7158469  -1.5715999  )
        18           O   tau(  18) = (  -0.1545740  -0.6646682   1.7013125  )
        19           H   tau(  19) = (   1.6853937  -2.1540880   0.7381431  )
        20           H   tau(  20) = (   1.2315032  -0.9908368  -0.2673081  )
        21           C   tau(  21) = (   1.9299033  -1.2647356   0.3783879  )
        22           O   tau(  22) = (   3.8933309  -2.7102880   1.3100249  )
        23           N   tau(  23) = (   0.8179066  -0.0209516   2.1047829  )
        24           O   tau(  24) = (   0.8032986   0.7746642   3.0320484  )
        25           N   tau(  25) = (   2.0001755  -0.2862296   1.4791529  )
        26           N   tau(  26) = (   4.1292465  -2.2220716   0.2164264  )
        27           O   tau(  27) = (   5.1386890  -2.4010334  -0.4651018  )
        28           N   tau(  28) = (   3.2010900  -1.3433041  -0.2866575  )
        29           H   tau(  29) = (  -1.2751014   4.0986599   5.8263143  )
        30           H   tau(  30) = (  -0.1777339   5.1604267   5.4608260  )
        31           C   tau(  31) = (  -0.9975323   4.7403031   5.1548191  )
        32           O   tau(  32) = (   2.6226584   4.7914818   1.8819067  )
        33           H   tau(  33) = (   0.7826907   3.3020620   2.8450760  )
        34           H   tau(  34) = (   1.2365812   4.4653132   3.8505273  )
        35           C   tau(  35) = (   0.5381811   4.1914144   3.2048312  )
        36           O   tau(  36) = (  -1.4252465   2.7458620   2.2731942  )
        37           N   tau(  37) = (   1.6501778   5.4351984   1.4784362  )
        38           O   tau(  38) = (   1.6647858   6.2308142   0.5511708  )
        39           N   tau(  39) = (   0.4679088   5.1699204   2.1040663  )
        40           N   tau(  40) = (  -1.6611622   3.2340784   3.3667927  )
        41           O   tau(  41) = (  -2.6706046   3.0551166   4.0483210  )
        42           N   tau(  42) = (  -0.7330056   4.1128459   3.8698767  )
        43           H   tau(  43) = (   2.7774142   1.3574901   2.2430952  )
        44           H   tau(  44) = (   3.8747818   0.2957233   1.8776068  )
        45           C   tau(  45) = (   3.0549833   0.7158469   1.5715999  )
        46           O   tau(  46) = (   6.6751740   0.6646682  -1.7013125  )
        47           H   tau(  47) = (   4.8352063   2.1540880  -0.7381431  )
        48           H   tau(  48) = (   5.2890968   0.9908368   0.2673081  )
        49           C   tau(  49) = (   4.5906967   1.2647356  -0.3783879  )
        50           O   tau(  50) = (   2.6272691   2.7102880  -1.3100249  )
        51           N   tau(  51) = (   5.7026934   0.0209516  -2.1047829  )
        52           O   tau(  52) = (   5.7173014  -0.7746642  -3.0320484  )
        53           N   tau(  53) = (   4.5204245   0.2862296  -1.4791529  )
        54           N   tau(  54) = (   2.3913535   2.2220716  -0.2164264  )
        55           O   tau(  55) = (   1.3819110   2.4010334   0.4651018  )
        56           N   tau(  56) = (   3.3195100   1.3433041   0.2866575  )

   Crystallographic axes

     site n.     atom                  positions (cryst. coord.)
         1           N   tau(   1) = ( -0.0188000  0.6231000  0.4600000  )
         2           O   tau(   2) = (  0.2723000  0.7200300  0.4351000  )
         3           N   tau(   3) = (  0.1406000  0.7036300  0.5302000  )
         4           N   tau(   4) = ( -0.1431000  0.5262300  0.7064000  )
         5           O   tau(   5) = ( -0.2740000  0.4290100  0.9230900  )
         6           N   tau(   6) = ( -0.3032000  0.5019200  0.7937000  )
         7           O   tau(   7) = (  0.1415000  0.7483700  0.6828000  )
         8           C   tau(   8) = ( -0.1912000  0.6159000  0.5528000  )
         9           H   tau(   9) = ( -0.3202000  0.5908000  0.4627000  )
        10           H   tau(  10) = ( -0.2165000  0.6974000  0.6030000  )
        11           O   tau(  11) = ( -0.4660200  0.5609100  0.7374000  )
        12           C   tau(  12) = ( -0.0218000  0.5656000  0.2807000  )
        13           H   tau(  13) = ( -0.1579000  0.5271000  0.2380000  )
        14           H   tau(  14) = ( -0.0020000  0.6244000  0.1870000  )
        15           H   tau(  15) = (  0.4980000 -0.1244000 -0.3130000  )
        16           H   tau(  16) = (  0.3421000 -0.0271000 -0.2620000  )
        17           C   tau(  17) = (  0.4782000 -0.0656000 -0.2193000  )
        18           O   tau(  18) = (  0.0339800 -0.0609100  0.2374000  )
        19           H   tau(  19) = (  0.2835000 -0.1974000  0.1030000  )
        20           H   tau(  20) = (  0.1798000 -0.0908000 -0.0373000  )
        21           C   tau(  21) = (  0.3088000 -0.1159000  0.0528000  )
        22           O   tau(  22) = (  0.6415000 -0.2483700  0.1828000  )
        23           N   tau(  23) = (  0.1968000 -0.0019200  0.2937000  )
        24           O   tau(  24) = (  0.2260000  0.0709900  0.4230900  )
        25           N   tau(  25) = (  0.3569000 -0.0262300  0.2064000  )
        26           N   tau(  26) = (  0.6406000 -0.2036300  0.0302000  )
        27           O   tau(  27) = (  0.7723000 -0.2200300 -0.0649000  )
        28           N   tau(  28) = (  0.4812000 -0.1231000 -0.0400000  )
        29           H   tau(  29) = (  0.0020000  0.3756000  0.8130000  )
        30           H   tau(  30) = (  0.1579000  0.4729000  0.7620000  )
        31           C   tau(  31) = (  0.0218000  0.4344000  0.7193000  )
        32           O   tau(  32) = (  0.4660200  0.4390900  0.2626000  )
        33           H   tau(  33) = (  0.2165000  0.3026000  0.3970000  )
        34           H   tau(  34) = (  0.3202000  0.4092000  0.5373000  )
        35           C   tau(  35) = (  0.1912000  0.3841000  0.4472000  )
        36           O   tau(  36) = ( -0.1415000  0.2516300  0.3172000  )
        37           N   tau(  37) = (  0.3032000  0.4980800  0.2063000  )
        38           O   tau(  38) = (  0.2740000  0.5709900  0.0769100  )
        39           N   tau(  39) = (  0.1431000  0.4737700  0.2936000  )
        40           N   tau(  40) = ( -0.1406000  0.2963700  0.4698000  )
        41           O   tau(  41) = ( -0.2723000  0.2799700  0.5649000  )
        42           N   tau(  42) = (  0.0188000  0.3769000  0.5400000  )
        43           H   tau(  43) = (  0.5020000  0.1244000  0.3130000  )
        44           H   tau(  44) = (  0.6579000  0.0271000  0.2620000  )
        45           C   tau(  45) = (  0.5218000  0.0656000  0.2193000  )
        46           O   tau(  46) = (  0.9660200  0.0609100 -0.2374000  )
        47           H   tau(  47) = (  0.7165000  0.1974000 -0.1030000  )
        48           H   tau(  48) = (  0.8202000  0.0908000  0.0373000  )
        49           C   tau(  49) = (  0.6912000  0.1159000 -0.0528000  )
        50           O   tau(  50) = (  0.3585000  0.2483700 -0.1828000  )
        51           N   tau(  51) = (  0.8032000  0.0019200 -0.2937000  )
        52           O   tau(  52) = (  0.7740000 -0.0709900 -0.4230900  )
        53           N   tau(  53) = (  0.6431000  0.0262300 -0.2064000  )
        54           N   tau(  54) = (  0.3594000  0.2036300 -0.0302000  )
        55           O   tau(  55) = (  0.2277000  0.2200300  0.0649000  )
        56           N   tau(  56) = (  0.5188000  0.1231000  0.0400000  )

     number of k points=    16
                       cart. coord. in units 2pi/alat
        k(    1) = (   0.0191700   0.0114550   0.0216807), wk =   0.1250000
        k(    2) = (   0.0191700   0.0114550   0.0565656), wk =   0.1250000
        k(    3) = (   0.0191700   0.0114550  -0.0480889), wk =   0.1250000
        k(    4) = (   0.0191700   0.0114550  -0.0132041), wk =   0.1250000
        k(    5) = (   0.0191700   0.0343649   0.0216807), wk =   0.1250000
        k(    6) = (   0.0191700   0.0343649   0.0565656), wk =   0.1250000
        k(    7) = (   0.0191700   0.0343649  -0.0480889), wk =   0.1250000
        k(    8) = (   0.0191700   0.0343649  -0.0132041), wk =   0.1250000
        k(    9) = (   0.0575100   0.0114550   0.0301573), wk =   0.1250000
        k(   10) = (   0.0575100   0.0114550   0.0650422), wk =   0.1250000
        k(   11) = (   0.0575100   0.0114550  -0.0396123), wk =   0.1250000
        k(   12) = (   0.0575100   0.0114550  -0.0047275), wk =   0.1250000
        k(   13) = (   0.0575100   0.0343649   0.0301573), wk =   0.1250000
        k(   14) = (   0.0575100   0.0343649   0.0650422), wk =   0.1250000
        k(   15) = (   0.0575100   0.0343649  -0.0396123), wk =   0.1250000
        k(   16) = (   0.0575100   0.0343649  -0.0047275), wk =   0.1250000

                       cryst. coord.
        k(    1) = (   0.1250000   0.1250000   0.1250000), wk =   0.1250000
        k(    2) = (   0.1250000   0.1250000   0.3750000), wk =   0.1250000
        k(    3) = (   0.1250000   0.1250000  -0.3750000), wk =   0.1250000
        k(    4) = (   0.1250000   0.1250000  -0.1250000), wk =   0.1250000
        k(    5) = (   0.1250000   0.3750000   0.1250000), wk =   0.1250000
        k(    6) = (   0.1250000   0.3750000   0.3750000), wk =   0.1250000
        k(    7) = (   0.1250000   0.3750000  -0.3750000), wk =   0.1250000
        k(    8) = (   0.1250000   0.3750000  -0.1250000), wk =   0.1250000
        k(    9) = (   0.3750000   0.1250000   0.1250000), wk =   0.1250000
        k(   10) = (   0.3750000   0.1250000   0.3750000), wk =   0.1250000
        k(   11) = (   0.3750000   0.1250000  -0.3750000), wk =   0.1250000
        k(   12) = (   0.3750000   0.1250000  -0.1250000), wk =   0.1250000
        k(   13) = (   0.3750000   0.3750000   0.1250000), wk =   0.1250000
        k(   14) = (   0.3750000   0.3750000   0.3750000), wk =   0.1250000
        k(   15) = (   0.3750000   0.3750000  -0.3750000), wk =   0.1250000
        k(   16) = (   0.3750000   0.3750000  -0.1250000), wk =   0.1250000

     Dense  grid:  3043903 G-vectors     FFT dimensions: ( 150, 250, 180)

     Smooth grid:   770193 G-vectors     FFT dimensions: (  96, 160, 108)

     Largest allocated arrays     est. size (Mb)     dimensions
        Kohn-Sham Wavefunctions        20.56 Mb     (   12028,  112)
        NL pseudopotentials            64.60 Mb     (   12028,  352)
        Each V/rho on FFT grid         13.16 Mb     (  862500)
        Each G-vector array             2.90 Mb     (  380488)
        G-vector shells                 2.66 Mb     (  349212)
     Largest temporary arrays     est. size (Mb)     dimensions
        Auxiliary wavefunctions        82.22 Mb     (   12028,  448)
        Each subspace H/S matrix        3.06 Mb     (     448,  448)
        Each <psi_i|beta_j> matrix      0.60 Mb     (     352,  112)
        Arrays for rho mixing         105.29 Mb     (  862500,    8)

     Initial potential from superposition of free atoms

     starting charge  223.99937, renormalised to  224.00000
     Starting wfc are  176 randomized atomic wfcs
     Checking if some PAW data can be deallocated... 
       node    0, deallocated PAW data for type:  2
       node    0, deallocated PAW data for type:  3
       node    1, deallocated PAW data for type:  1
       node    2, deallocated PAW data for type:  1
       node    3, deallocated PAW data for type:  2
       node    3, deallocated PAW data for type:  3
       node    4, deallocated PAW data for type:  1
       node    5, deallocated PAW data for type:  2
       node    5, deallocated PAW data for type:  3
       node    6, deallocated PAW data for type:  1
       node    7, deallocated PAW data for type:  2
       node    7, deallocated PAW data for type:  3

     total cpu time spent up to now is      660.4 secs

     per-process dynamical memory:   605.3 Mb

     Self-consistent Calculation

     iteration #  1     ecut=   140.00 Ry     beta=0.70
     Davidson diagonalization with overlap
     ethr =  1.00E-02,  avg # of iterations =  3.0

     total cpu time spent up to now is     2048.9 secs

     total energy              =   -1279.68452625 Ry
     Harris-Foulkes estimate   =   -1283.98591514 Ry
     estimated scf accuracy    <       6.62663277 Ry

     iteration #  2     ecut=   140.00 Ry     beta=0.70
     Davidson diagonalization with overlap
     ethr =  2.96E-03,  avg # of iterations =  4.0

     total cpu time spent up to now is     3616.4 secs

     total energy              =   -1280.34989264 Ry
     Harris-Foulkes estimate   =   -1283.83115689 Ry
     estimated scf accuracy    <       7.03288599 Ry

     iteration #  3     ecut=   140.00 Ry     beta=0.70
     Davidson diagonalization with overlap
     ethr =  2.96E-03,  avg # of iterations =  4.7

     total cpu time spent up to now is     4760.3 secs

     total energy              =   -1281.85572922 Ry
     Harris-Foulkes estimate   =   -1282.07942639 Ry
     estimated scf accuracy    <       0.41432727 Ry

     iteration #  4     ecut=   140.00 Ry     beta=0.70
     Davidson diagonalization with overlap
     ethr =  1.85E-04,  avg # of iterations =  4.9

     total cpu time spent up to now is     6256.5 secs

     total energy              =   -1282.00116487 Ry
     Harris-Foulkes estimate   =   -1282.08641106 Ry
     estimated scf accuracy    <       0.18731661 Ry

     iteration #  5     ecut=   140.00 Ry     beta=0.70
     Davidson diagonalization with overlap
     ethr =  8.36E-05,  avg # of iterations =  4.0

     total cpu time spent up to now is     7447.0 secs

     total energy              =   -1282.03963726 Ry
     Harris-Foulkes estimate   =   -1282.04860812 Ry
     estimated scf accuracy    <       0.02233163 Ry

     iteration #  6     ecut=   140.00 Ry     beta=0.70
     Davidson diagonalization with overlap
     ethr =  9.97E-06,  avg # of iterations =  5.5

     total cpu time spent up to now is     8415.6 secs

     total energy              =   -1282.04142641 Ry
     Harris-Foulkes estimate   =   -1282.04284698 Ry
     estimated scf accuracy    <       0.00384491 Ry

     iteration #  7     ecut=   140.00 Ry     beta=0.70
     Davidson diagonalization with overlap
     ethr =  1.72E-06,  avg # of iterations =  4.7

     total cpu time spent up to now is     9999.2 secs

     total energy              =   -1282.04419890 Ry
     Harris-Foulkes estimate   =   -1282.04527621 Ry
     estimated scf accuracy    <       0.00400278 Ry

     iteration #  8     ecut=   140.00 Ry     beta=0.70
     Davidson diagonalization with overlap
     ethr =  1.72E-06,  avg # of iterations =  1.0

     total cpu time spent up to now is    10850.9 secs

     total energy              =   -1282.04308644 Ry
     Harris-Foulkes estimate   =   -1282.04426421 Ry
     estimated scf accuracy    <       0.00228691 Ry

     iteration #  9     ecut=   140.00 Ry     beta=0.70
     Davidson diagonalization with overlap
     ethr =  1.02E-06,  avg # of iterations =  5.0

     total cpu time spent up to now is    12280.7 secs

     total energy              =   -1282.04450083 Ry
     Harris-Foulkes estimate   =   -1282.04556949 Ry
     estimated scf accuracy    <       0.00558012 Ry

     iteration # 10     ecut=   140.00 Ry     beta=0.70
     Davidson diagonalization with overlap
     ethr =  1.02E-06,  avg # of iterations =  1.0

     total cpu time spent up to now is    13152.5 secs

     total energy              =   -1282.04314839 Ry
     Harris-Foulkes estimate   =   -1282.04453342 Ry
     estimated scf accuracy    <       0.00385991 Ry

     iteration # 11     ecut=   140.00 Ry     beta=0.70
     Davidson diagonalization with overlap
     ethr =  1.02E-06,  avg # of iterations =  5.0

     total cpu time spent up to now is    14393.8 secs

     total energy              =   -1282.04443493 Ry
     Harris-Foulkes estimate   =   -1282.04467921 Ry
     estimated scf accuracy    <       0.00093557 Ry

     iteration # 12     ecut=   140.00 Ry     beta=0.70
     Davidson diagonalization with overlap
     ethr =  4.18E-07,  avg # of iterations =  1.0

     total cpu time spent up to now is    15246.7 secs

     total energy              =   -1282.04422306 Ry
     Harris-Foulkes estimate   =   -1282.04444732 Ry
     estimated scf accuracy    <       0.00054615 Ry

     iteration # 13     ecut=   140.00 Ry     beta=0.70
     Davidson diagonalization with overlap
     ethr =  2.44E-07,  avg # of iterations =  5.0

     total cpu time spent up to now is    16507.1 secs

     total energy              =   -1282.04450732 Ry
     Harris-Foulkes estimate   =   -1282.04458724 Ry
     estimated scf accuracy    <       0.00044268 Ry

     iteration # 14     ecut=   140.00 Ry     beta=0.70
     Davidson diagonalization with overlap
     ethr =  1.98E-07,  avg # of iterations =  1.0

     total cpu time spent up to now is    17359.5 secs

     total energy              =   -1282.04440073 Ry
     Harris-Foulkes estimate   =   -1282.04450976 Ry
     estimated scf accuracy    <       0.00031496 Ry

     iteration # 15     ecut=   140.00 Ry     beta=0.70
     Davidson diagonalization with overlap
     ethr =  1.41E-07,  avg # of iterations =  5.0

     total cpu time spent up to now is    18510.6 secs

     total energy              =   -1282.04452908 Ry
     Harris-Foulkes estimate   =   -1282.04451109 Ry
     estimated scf accuracy    <       0.00005042 Ry

     iteration # 16     ecut=   140.00 Ry     beta=0.70
     Davidson diagonalization with overlap
     ethr =  2.25E-08,  avg # of iterations =  2.4

     total cpu time spent up to now is    19387.6 secs

     total energy              =   -1282.04450704 Ry
     Harris-Foulkes estimate   =   -1282.04453069 Ry
     estimated scf accuracy    <       0.00008389 Ry

     iteration # 17     ecut=   140.00 Ry     beta=0.70
     Davidson diagonalization with overlap
     ethr =  2.25E-08,  avg # of iterations =  1.0

     total cpu time spent up to now is    20251.3 secs

     total energy              =   -1282.04449792 Ry
     Harris-Foulkes estimate   =   -1282.04450832 Ry
     estimated scf accuracy    <       0.00004866 Ry

     iteration # 18     ecut=   140.00 Ry     beta=0.70
     Davidson diagonalization with overlap
     ethr =  2.17E-08,  avg # of iterations =  1.0

     total cpu time spent up to now is    21109.8 secs

     total energy              =   -1282.04449794 Ry
     Harris-Foulkes estimate   =   -1282.04449877 Ry
     estimated scf accuracy    <       0.00002882 Ry

     iteration # 19     ecut=   140.00 Ry     beta=0.70
     Davidson diagonalization with overlap
     ethr =  1.29E-08,  avg # of iterations =  5.4

     total cpu time spent up to now is    22101.1 secs

     total energy              =   -1282.04450299 Ry
     Harris-Foulkes estimate   =   -1282.04450184 Ry
     estimated scf accuracy    <       0.00000505 Ry

     iteration # 20     ecut=   140.00 Ry     beta=0.70
     Davidson diagonalization with overlap
     ethr =  2.25E-09,  avg # of iterations =  3.3

     total cpu time spent up to now is    23042.0 secs

     total energy              =   -1282.04450225 Ry
     Harris-Foulkes estimate   =   -1282.04450340 Ry
     estimated scf accuracy    <       0.00000556 Ry

     iteration # 21     ecut=   140.00 Ry     beta=0.70
     Davidson diagonalization with overlap
     ethr =  2.25E-09,  avg # of iterations =  1.2

     total cpu time spent up to now is    23889.5 secs

     total energy              =   -1282.04450180 Ry
     Harris-Foulkes estimate   =   -1282.04450233 Ry
     estimated scf accuracy    <       0.00000354 Ry

     iteration # 22     ecut=   140.00 Ry     beta=0.70
     Davidson diagonalization with overlap
     ethr =  1.58E-09,  avg # of iterations =  3.9

     total cpu time spent up to now is    24821.9 secs

     total energy              =   -1282.04450195 Ry
     Harris-Foulkes estimate   =   -1282.04450200 Ry
     estimated scf accuracy    <       0.00000165 Ry

     iteration # 23     ecut=   140.00 Ry     beta=0.70
     Davidson diagonalization with overlap
     ethr =  7.37E-10,  avg # of iterations =  5.2

     total cpu time spent up to now is    25774.3 secs

     total energy              =   -1282.04450180 Ry
     Harris-Foulkes estimate   =   -1282.04450206 Ry
     estimated scf accuracy    <       0.00000118 Ry

     iteration # 24     ecut=   140.00 Ry     beta=0.70
     Davidson diagonalization with overlap
     ethr =  5.26E-10,  avg # of iterations =  5.9

     total cpu time spent up to now is    26881.3 secs

     End of self-consistent calculation

          k = 0.0192 0.0115 0.0217 ( 96271 PWs)   bands (ev):

   -23.8708 -23.8461 -23.8342 -23.8244 -23.5860 -23.5763 -23.5754 -23.5713
   -19.1039 -19.0985 -19.0911 -19.0785 -18.7828 -18.7825 -18.7782 -18.7769
   -18.1724 -18.1460 -17.1421 -17.0896 -17.0026 -16.9999 -15.9834 -15.9701
   -12.0104 -12.0083 -11.9991 -11.8813 -11.8236 -11.7464 -11.6891 -11.6715
    -8.8191  -8.7788  -8.2056  -8.1669  -7.4910  -7.4459  -7.3632  -7.3572
    -6.8005  -6.6897  -6.5493  -6.4466  -6.4305  -6.3504  -6.2892  -6.2017
    -6.0702  -6.0357  -6.0145  -5.8932  -5.8405  -5.7545  -5.6885  -5.6461
    -5.5843  -5.5631  -5.4882  -5.4384  -5.0741  -4.9570  -4.8623  -4.8517
    -4.3908  -4.3860  -4.3561  -4.3161  -4.1431  -4.0326  -3.7867  -3.7781
    -3.6143  -3.4869  -3.4274  -3.3837  -3.0859  -3.0514  -2.9584  -2.9398
    -0.7440  -0.7389  -0.2526  -0.2493  -0.1502  -0.1004  -0.0413  -0.0243
     0.0329   0.0655   0.2263   0.2627   0.2754   0.3071   0.4336   0.4507
     0.4979   0.5176   0.6975   0.7495   0.8362   0.8748   0.9250   0.9520
     0.9764   1.0900   1.1217   1.1885   1.2747   1.4113   1.4267   1.4538

     occupation numbers 
     1.0000   1.0000   1.0000   1.0000   1.0000   1.0000   1.0000   1.0000
     1.0000   1.0000   1.0000   1.0000   1.0000   1.0000   1.0000   1.0000
     1.0000   1.0000   1.0000   1.0000   1.0000   1.0000   1.0000   1.0000
     1.0000   1.0000   1.0000   1.0000   1.0000   1.0000   1.0000   1.0000
     1.0000   1.0000   1.0000   1.0000   1.0000   1.0000   1.0000   1.0000
     1.0000   1.0000   1.0000   1.0000   1.0000   1.0000   1.0000   1.0000
     1.0000   1.0000   1.0000   1.0000   1.0000   1.0000   1.0000   1.0000
     1.0000   1.0000   1.0000   1.0000   1.0000   1.0000   1.0000   1.0000
     1.0000   1.0000   1.0000   1.0000   1.0000   1.0000   1.0000   1.0000
     1.0000   1.0000   1.0000   1.0000   1.0000   1.0000   1.0000   1.0000
     1.0000   1.0000   1.0000   1.0000   1.0000   1.0000   1.0000   1.0000
     1.0000   1.0000   1.0000   1.0000   1.0000   1.0000   1.0000   1.0000
     1.0000   1.0000   1.0000   1.0000   1.0000   1.0000   1.0000   1.0000
     1.0000   1.0000   1.0000   1.0000   1.0000   1.0000   1.0000   1.0000

          k = 0.0192 0.0115 0.0566 ( 96303 PWs)   bands (ev):

   -23.8622 -23.8521 -23.8305 -23.8294 -23.5875 -23.5839 -23.5720 -23.5671
   -19.1020 -19.0971 -19.0921 -19.0823 -18.7893 -18.7883 -18.7729 -18.7712
   -18.1602 -18.1597 -17.1171 -17.1143 -16.9985 -16.9956 -15.9788 -15.9766
   -12.0191 -12.0146 -11.9493 -11.9283 -11.7801 -11.7679 -11.6975 -11.6891
    -8.7992  -8.7620  -8.1862  -8.1600  -7.5062  -7.4525  -7.3406  -7.2575
    -6.8479  -6.7183  -6.5300  -6.4881  -6.4798  -6.3690  -6.3132  -6.2814
    -6.1298  -6.0930  -5.9012  -5.8462  -5.8265  -5.7660  -5.7366  -5.6910
    -5.6438  -5.5844  -5.4051  -5.3561  -5.0777  -4.9974  -4.8573  -4.8194
    -4.3535  -4.3447  -4.2864  -4.2229  -4.0688  -4.0329  -3.9013  -3.9013
    -3.5938  -3.5370  -3.3651  -3.3539  -3.1145  -3.1100  -2.9407  -2.9159
    -0.7088  -0.6743  -0.2661  -0.2534  -0.1612  -0.1338  -0.0703  -0.0565
    -0.0239   0.0203   0.1284   0.1912   0.2922   0.3482   0.4029   0.4148
     0.6083   0.6730   0.7180   0.7656   0.8323   0.8543   0.8858   0.9369
     1.0478   1.0870   1.1610   1.1862   1.2845   1.3590   1.4323   1.4598

     occupation numbers 
     1.0000   1.0000   1.0000   1.0000   1.0000   1.0000   1.0000   1.0000
     1.0000   1.0000   1.0000   1.0000   1.0000   1.0000   1.0000   1.0000
     1.0000   1.0000   1.0000   1.0000   1.0000   1.0000   1.0000   1.0000
     1.0000   1.0000   1.0000   1.0000   1.0000   1.0000   1.0000   1.0000
     1.0000   1.0000   1.0000   1.0000   1.0000   1.0000   1.0000   1.0000
     1.0000   1.0000   1.0000   1.0000   1.0000   1.0000   1.0000   1.0000
     1.0000   1.0000   1.0000   1.0000   1.0000   1.0000   1.0000   1.0000
     1.0000   1.0000   1.0000   1.0000   1.0000   1.0000   1.0000   1.0000
     1.0000   1.0000   1.0000   1.0000   1.0000   1.0000   1.0000   1.0000
     1.0000   1.0000   1.0000   1.0000   1.0000   1.0000   1.0000   1.0000
     1.0000   1.0000   1.0000   1.0000   1.0000   1.0000   1.0000   1.0000
     1.0000   1.0000   1.0000   1.0000   1.0000   1.0000   1.0000   1.0000
     1.0000   1.0000   1.0000   1.0000   1.0000   1.0000   1.0000   1.0000
     1.0000   1.0000   1.0000   1.0000   1.0000   1.0000   1.0000   1.0000

          k = 0.0192 0.0115-0.0481 ( 96218 PWs)   bands (ev):

   -23.8630 -23.8517 -23.8343 -23.8251 -23.5890 -23.5856 -23.5686 -23.5673
   -19.0995 -19.0978 -19.0889 -19.0875 -18.7908 -18.7900 -18.7712 -18.7696
   -18.1721 -18.1464 -17.1396 -17.0914 -17.0011 -16.9993 -15.9825 -15.9660
   -12.0329 -12.0130 -11.9814 -11.8953 -11.8084 -11.7349 -11.6982 -11.6892
    -8.8084  -8.7220  -8.1725  -8.1696  -7.4999  -7.4839  -7.3501  -7.2330
    -6.8579  -6.7457  -6.5277  -6.4868  -6.4477  -6.4180  -6.3263  -6.2891
    -6.1487  -6.1191  -5.9037  -5.8646  -5.7661  -5.7265  -5.7221  -5.7080
    -5.6399  -5.5677  -5.4058  -5.3531  -5.0733  -4.9977  -4.8441  -4.8111
    -4.3810  -4.3112  -4.2802  -4.2240  -4.0877  -4.0677  -3.9087  -3.8531
    -3.5941  -3.5437  -3.4199  -3.3332  -3.1212  -3.0970  -2.9365  -2.9228
    -0.6405  -0.5786  -0.2545  -0.2459  -0.2257  -0.1920  -0.1122  -0.0946
    -0.0329  -0.0277   0.0956   0.1793   0.3127   0.3499   0.3571   0.4094
     0.6536   0.7328   0.7562   0.7672   0.8127   0.8965   0.9065   0.9181
     1.0399   1.0934   1.1723   1.2320   1.2900   1.3175   1.4236   1.4438

     occupation numbers 
     1.0000   1.0000   1.0000   1.0000   1.0000   1.0000   1.0000   1.0000
     1.0000   1.0000   1.0000   1.0000   1.0000   1.0000   1.0000   1.0000
     1.0000   1.0000   1.0000   1.0000   1.0000   1.0000   1.0000   1.0000
     1.0000   1.0000   1.0000   1.0000   1.0000   1.0000   1.0000   1.0000
     1.0000   1.0000   1.0000   1.0000   1.0000   1.0000   1.0000   1.0000
     1.0000   1.0000   1.0000   1.0000   1.0000   1.0000   1.0000   1.0000
     1.0000   1.0000   1.0000   1.0000   1.0000   1.0000   1.0000   1.0000
     1.0000   1.0000   1.0000   1.0000   1.0000   1.0000   1.0000   1.0000
     1.0000   1.0000   1.0000   1.0000   1.0000   1.0000   1.0000   1.0000
     1.0000   1.0000   1.0000   1.0000   1.0000   1.0000   1.0000   1.0000
     1.0000   1.0000   1.0000   1.0000   1.0000   1.0000   1.0000   1.0000
     1.0000   1.0000   1.0000   1.0000   1.0000   1.0000   1.0000   1.0000
     1.0000   1.0000   1.0000   1.0000   1.0000   1.0000   1.0000   1.0000
     1.0000   1.0000   1.0000   1.0000   1.0000   1.0000   1.0000   1.0000

          k = 0.0192 0.0115-0.0132 ( 96192 PWs)   bands (ev):

   -23.8712 -23.8464 -23.8354 -23.8226 -23.5884 -23.5793 -23.5717 -23.5696
   -19.1028 -19.0971 -19.0914 -19.0809 -18.7864 -18.7859 -18.7740 -18.7739
   -18.1770 -18.1400 -17.1513 -17.0800 -17.0049 -17.0039 -15.9838 -15.9628
   -12.0336 -12.0091 -11.9977 -11.8781 -11.8246 -11.7348 -11.6867 -11.6723
    -8.8303  -8.7368  -8.1989  -8.1699  -7.4955  -7.4711  -7.3936  -7.3093
    -6.7689  -6.7509  -6.5435  -6.4371  -6.4332  -6.3956  -6.2947  -6.2201
    -6.1175  -6.0698  -5.9463  -5.8935  -5.8007  -5.7537  -5.6715  -5.6430
    -5.6001  -5.5460  -5.4534  -5.4494  -5.0418  -4.9946  -4.8528  -4.8255
    -4.3948  -4.3791  -4.3538  -4.3280  -4.1563  -4.0413  -3.7949  -3.7366
    -3.6404  -3.4985  -3.4394  -3.3809  -3.0943  -3.0449  -2.9507  -2.9481
    -0.6937  -0.6720  -0.2414  -0.2373  -0.1528  -0.1196  -0.0580  -0.0336
    -0.0230   0.0150   0.1229   0.1825   0.2474   0.3289   0.3760   0.4431
     0.6228   0.6553   0.6912   0.7699   0.8316   0.8813   0.9391   0.9507
     0.9841   1.0670   1.1509   1.2165   1.2700   1.3901   1.4115   1.4444

     occupation numbers 
     1.0000   1.0000   1.0000   1.0000   1.0000   1.0000   1.0000   1.0000
     1.0000   1.0000   1.0000   1.0000   1.0000   1.0000   1.0000   1.0000
     1.0000   1.0000   1.0000   1.0000   1.0000   1.0000   1.0000   1.0000
     1.0000   1.0000   1.0000   1.0000   1.0000   1.0000   1.0000   1.0000
     1.0000   1.0000   1.0000   1.0000   1.0000   1.0000   1.0000   1.0000
     1.0000   1.0000   1.0000   1.0000   1.0000   1.0000   1.0000   1.0000
     1.0000   1.0000   1.0000   1.0000   1.0000   1.0000   1.0000   1.0000
     1.0000   1.0000   1.0000   1.0000   1.0000   1.0000   1.0000   1.0000
     1.0000   1.0000   1.0000   1.0000   1.0000   1.0000   1.0000   1.0000
     1.0000   1.0000   1.0000   1.0000   1.0000   1.0000   1.0000   1.0000
     1.0000   1.0000   1.0000   1.0000   1.0000   1.0000   1.0000   1.0000
     1.0000   1.0000   1.0000   1.0000   1.0000   1.0000   1.0000   1.0000
     1.0000   1.0000   1.0000   1.0000   1.0000   1.0000   1.0000   1.0000
     1.0000   1.0000   1.0000   1.0000   1.0000   1.0000   1.0000   1.0000

          k = 0.0192 0.0344 0.0217 ( 96231 PWs)   bands (ev):

   -23.8650 -23.8555 -23.8294 -23.8261 -23.5819 -23.5773 -23.5753 -23.5742
   -19.1036 -19.1020 -19.0855 -19.0809 -18.7827 -18.7826 -18.7778 -18.7773
   -18.1649 -18.1540 -17.1267 -17.1050 -17.0017 -17.0005 -15.9794 -15.9739
   -12.0106 -12.0103 -11.9735 -11.9309 -11.7853 -11.7587 -11.6837 -11.6764
    -8.8083  -8.7916  -8.1951  -8.1790  -7.4802  -7.4610  -7.3555  -7.3529
    -6.7762  -6.7274  -6.4914  -6.4442  -6.4399  -6.3980  -6.2638  -6.2370
    -6.0818  -6.0635  -5.9370  -5.9039  -5.8397  -5.7920  -5.6988  -5.6817
    -5.5476  -5.5349  -5.4649  -5.4411  -5.0266  -4.9568  -4.9113  -4.8845
    -4.4053  -4.3972  -4.3232  -4.3063  -4.1167  -4.0657  -3.7817  -3.7750
    -3.5772  -3.5216  -3.4155  -3.3952  -3.0798  -3.0659  -2.9497  -2.9427
    -0.7390  -0.7365  -0.2441  -0.2350  -0.1670  -0.1301  -0.0657  -0.0592
     0.0697   0.0806   0.2548   0.2654   0.2980   0.3050   0.4543   0.4582
     0.4731   0.5024   0.7076   0.7364   0.8150   0.8316   0.9423   0.9631
     1.0125   1.0596   1.1519   1.1769   1.3146   1.3717   1.4354   1.4436

     occupation numbers 
     1.0000   1.0000   1.0000   1.0000   1.0000   1.0000   1.0000   1.0000
     1.0000   1.0000   1.0000   1.0000   1.0000   1.0000   1.0000   1.0000
     1.0000   1.0000   1.0000   1.0000   1.0000   1.0000   1.0000   1.0000
     1.0000   1.0000   1.0000   1.0000   1.0000   1.0000   1.0000   1.0000
     1.0000   1.0000   1.0000   1.0000   1.0000   1.0000   1.0000   1.0000
     1.0000   1.0000   1.0000   1.0000   1.0000   1.0000   1.0000   1.0000
     1.0000   1.0000   1.0000   1.0000   1.0000   1.0000   1.0000   1.0000
     1.0000   1.0000   1.0000   1.0000   1.0000   1.0000   1.0000   1.0000
     1.0000   1.0000   1.0000   1.0000   1.0000   1.0000   1.0000   1.0000
     1.0000   1.0000   1.0000   1.0000   1.0000   1.0000   1.0000   1.0000
     1.0000   1.0000   1.0000   1.0000   1.0000   1.0000   1.0000   1.0000
     1.0000   1.0000   1.0000   1.0000   1.0000   1.0000   1.0000   1.0000
     1.0000   1.0000   1.0000   1.0000   1.0000   1.0000   1.0000   1.0000
     1.0000   1.0000   1.0000   1.0000   1.0000   1.0000   1.0000   1.0000

          k = 0.0192 0.0344 0.0566 ( 96289 PWs)   bands (ev):

   -23.8589 -23.8546 -23.8308 -23.8302 -23.5856 -23.5842 -23.5712 -23.5692
   -19.1019 -19.1005 -19.0873 -19.0838 -18.7890 -18.7886 -18.7724 -18.7717
   -18.1600 -18.1599 -17.1167 -17.1156 -16.9972 -16.9960 -15.9782 -15.9773
   -12.0173 -12.0152 -11.9459 -11.9369 -11.7733 -11.7676 -11.6966 -11.6930
    -8.7886  -8.7732  -8.1790  -8.1681  -7.4888  -7.4669  -7.3165  -7.2830
    -6.8272  -6.7796  -6.5119  -6.4989  -6.4294  -6.3817  -6.3230  -6.3031
    -6.0842  -6.0504  -5.9225  -5.8683  -5.8072  -5.7732  -5.7385  -5.7188
    -5.6286  -5.5920  -5.4123  -5.3889  -5.0108  -4.9589  -4.9074  -4.8682
    -4.3284  -4.3141  -4.2825  -4.2519  -4.0647  -4.0490  -3.9017  -3.9008
    -3.5712  -3.5472  -3.3638  -3.3588  -3.1094  -3.1048  -2.9414  -2.9291
    -0.6978  -0.6837  -0.2579  -0.2475  -0.1753  -0.1483  -0.0910  -0.0762
     0.0054   0.0245   0.1788   0.2000   0.2980   0.3250   0.3948   0.4072
     0.6256   0.6536   0.7307   0.7525   0.8417   0.8524   0.8924   0.9225
     1.0483   1.0688   1.1734   1.1833   1.3104   1.3405   1.4390   1.4503

     occupation numbers 
     1.0000   1.0000   1.0000   1.0000   1.0000   1.0000   1.0000   1.0000
     1.0000   1.0000   1.0000   1.0000   1.0000   1.0000   1.0000   1.0000
     1.0000   1.0000   1.0000   1.0000   1.0000   1.0000   1.0000   1.0000
     1.0000   1.0000   1.0000   1.0000   1.0000   1.0000   1.0000   1.0000
     1.0000   1.0000   1.0000   1.0000   1.0000   1.0000   1.0000   1.0000
     1.0000   1.0000   1.0000   1.0000   1.0000   1.0000   1.0000   1.0000
     1.0000   1.0000   1.0000   1.0000   1.0000   1.0000   1.0000   1.0000
     1.0000   1.0000   1.0000   1.0000   1.0000   1.0000   1.0000   1.0000
     1.0000   1.0000   1.0000   1.0000   1.0000   1.0000   1.0000   1.0000
     1.0000   1.0000   1.0000   1.0000   1.0000   1.0000   1.0000   1.0000
     1.0000   1.0000   1.0000   1.0000   1.0000   1.0000   1.0000   1.0000
     1.0000   1.0000   1.0000   1.0000   1.0000   1.0000   1.0000   1.0000
     1.0000   1.0000   1.0000   1.0000   1.0000   1.0000   1.0000   1.0000
     1.0000   1.0000   1.0000   1.0000   1.0000   1.0000   1.0000   1.0000

          k = 0.0192 0.0344-0.0481 ( 96274 PWs)   bands (ev):

   -23.8598 -23.8551 -23.8317 -23.8279 -23.5874 -23.5860 -23.5687 -23.5681
   -19.1001 -19.0994 -19.0873 -19.0868 -18.7905 -18.7902 -18.7707 -18.7701
   -18.1648 -18.1541 -17.1256 -17.1057 -17.0003 -16.9996 -15.9775 -15.9707
   -12.0278 -12.0200 -11.9621 -11.9297 -11.7772 -11.7495 -11.6955 -11.6913
    -8.7842  -8.7484  -8.1732  -8.1716  -7.4914  -7.4859  -7.3190  -7.2695
    -6.8236  -6.7763  -6.5341  -6.5032  -6.4281  -6.4124  -6.3550  -6.3344
    -6.0619  -6.0420  -5.9410  -5.9057  -5.7601  -5.7437  -5.7216  -5.6999
    -5.6267  -5.5908  -5.3989  -5.3701  -5.0445  -4.9915  -4.8683  -4.8347
    -4.3686  -4.3396  -4.2393  -4.2190  -4.0900  -4.0824  -3.8931  -3.8703
    -3.5715  -3.5505  -3.3950  -3.3589  -3.1076  -3.0961  -2.9425  -2.9375
    -0.6237  -0.5985  -0.2552  -0.2517  -0.1952  -0.1771  -0.1362  -0.1148
    -0.0506  -0.0368   0.1484   0.1808   0.3154   0.3323   0.3695   0.3977
     0.6765   0.7087   0.7787   0.7905   0.8024   0.8462   0.9142   0.9188
     1.0546   1.0720   1.1980   1.2207   1.2957   1.3080   1.4287   1.4376

     occupation numbers 
     1.0000   1.0000   1.0000   1.0000   1.0000   1.0000   1.0000   1.0000
     1.0000   1.0000   1.0000   1.0000   1.0000   1.0000   1.0000   1.0000
     1.0000   1.0000   1.0000   1.0000   1.0000   1.0000   1.0000   1.0000
     1.0000   1.0000   1.0000   1.0000   1.0000   1.0000   1.0000   1.0000
     1.0000   1.0000   1.0000   1.0000   1.0000   1.0000   1.0000   1.0000
     1.0000   1.0000   1.0000   1.0000   1.0000   1.0000   1.0000   1.0000
     1.0000   1.0000   1.0000   1.0000   1.0000   1.0000   1.0000   1.0000
     1.0000   1.0000   1.0000   1.0000   1.0000   1.0000   1.0000   1.0000
     1.0000   1.0000   1.0000   1.0000   1.0000   1.0000   1.0000   1.0000
     1.0000   1.0000   1.0000   1.0000   1.0000   1.0000   1.0000   1.0000
     1.0000   1.0000   1.0000   1.0000   1.0000   1.0000   1.0000   1.0000
     1.0000   1.0000   1.0000   1.0000   1.0000   1.0000   1.0000   1.0000
     1.0000   1.0000   1.0000   1.0000   1.0000   1.0000   1.0000   1.0000
     1.0000   1.0000   1.0000   1.0000   1.0000   1.0000   1.0000   1.0000

          k = 0.0192 0.0344-0.0132 ( 96214 PWs)   bands (ev):

   -23.8655 -23.8561 -23.8294 -23.8249 -23.5851 -23.5811 -23.5716 -23.5709
   -19.1025 -19.1008 -19.0863 -19.0826 -18.7863 -18.7861 -18.7740 -18.7739
   -18.1666 -18.1513 -17.1300 -17.1005 -17.0048 -17.0043 -15.9775 -15.9688
   -12.0252 -12.0168 -11.9746 -11.9322 -11.7807 -11.7503 -11.6815 -11.6755
    -8.8047  -8.7660  -8.1922  -8.1803  -7.4882  -7.4771  -7.3664  -7.3327
    -6.7424  -6.7253  -6.5328  -6.4756  -6.4319  -6.4112  -6.3157  -6.2816
    -6.0562  -6.0337  -5.9543  -5.9224  -5.7932  -5.7678  -5.6756  -5.6739
    -5.5517  -5.5350  -5.4445  -5.4378  -5.0372  -5.0043  -4.8669  -4.8463
    -4.4090  -4.4055  -4.3272  -4.3060  -4.1290  -4.0758  -3.7763  -3.7522
    -3.5881  -3.5281  -3.4259  -3.4007  -3.0830  -3.0627  -2.9494  -2.9484
    -0.6840  -0.6750  -0.2338  -0.2250  -0.1680  -0.1321  -0.0712  -0.0598
    -0.0185   0.0013   0.1544   0.1835   0.2721   0.3094   0.4127   0.4418
     0.6338   0.6593   0.6953   0.7513   0.8017   0.8357   0.9539   0.9571
     1.0205   1.0510   1.1821   1.2078   1.2987   1.3516   1.4220   1.4315

     occupation numbers 
     1.0000   1.0000   1.0000   1.0000   1.0000   1.0000   1.0000   1.0000
     1.0000   1.0000   1.0000   1.0000   1.0000   1.0000   1.0000   1.0000
     1.0000   1.0000   1.0000   1.0000   1.0000   1.0000   1.0000   1.0000
     1.0000   1.0000   1.0000   1.0000   1.0000   1.0000   1.0000   1.0000
     1.0000   1.0000   1.0000   1.0000   1.0000   1.0000   1.0000   1.0000
     1.0000   1.0000   1.0000   1.0000   1.0000   1.0000   1.0000   1.0000
     1.0000   1.0000   1.0000   1.0000   1.0000   1.0000   1.0000   1.0000
     1.0000   1.0000   1.0000   1.0000   1.0000   1.0000   1.0000   1.0000
     1.0000   1.0000   1.0000   1.0000   1.0000   1.0000   1.0000   1.0000
     1.0000   1.0000   1.0000   1.0000   1.0000   1.0000   1.0000   1.0000
     1.0000   1.0000   1.0000   1.0000   1.0000   1.0000   1.0000   1.0000
     1.0000   1.0000   1.0000   1.0000   1.0000   1.0000   1.0000   1.0000
     1.0000   1.0000   1.0000   1.0000   1.0000   1.0000   1.0000   1.0000
     1.0000   1.0000   1.0000   1.0000   1.0000   1.0000   1.0000   1.0000

          k = 0.0575 0.0115 0.0302 ( 96243 PWs)   bands (ev):

   -23.8595 -23.8487 -23.8312 -23.8307 -23.5845 -23.5811 -23.5765 -23.5714
   -19.1016 -19.0974 -19.0928 -19.0831 -18.7857 -18.7843 -18.7763 -18.7750
   -18.1665 -18.1662 -17.1150 -17.1126 -17.0025 -17.0004 -15.9797 -15.9772
   -12.0072 -12.0048 -11.9160 -11.8967 -11.7535 -11.7334 -11.7022 -11.6848
    -8.8194  -8.7849  -8.2050  -8.1819  -7.4800  -7.4556  -7.4306  -7.3708
    -6.9202  -6.8480  -6.6170  -6.4855  -6.3999  -6.3606  -6.1948  -6.1598
    -6.1382  -6.0833  -5.9537  -5.8839  -5.8284  -5.7784  -5.6983  -5.6740
    -5.5867  -5.5417  -5.4827  -5.4640  -5.0844  -4.9711  -4.8488  -4.8431
    -4.3865  -4.3633  -4.3186  -4.2721  -3.9444  -3.8897  -3.7343  -3.6928
    -3.6527  -3.5358  -3.4887  -3.4808  -3.0850  -3.0824  -2.9591  -2.9280
    -0.6962  -0.6825  -0.2357  -0.2307  -0.1421  -0.1224  -0.0645  -0.0417
    -0.0063   0.0255   0.1691   0.1847   0.2617   0.2779   0.4123   0.4340
     0.6361   0.6484   0.7230   0.7712   0.8394   0.8473   0.9273   0.9418
     1.0017   1.0500   1.0780   1.1293   1.3497   1.3836   1.4096   1.4486

     occupation numbers 
     1.0000   1.0000   1.0000   1.0000   1.0000   1.0000   1.0000   1.0000
     1.0000   1.0000   1.0000   1.0000   1.0000   1.0000   1.0000   1.0000
     1.0000   1.0000   1.0000   1.0000   1.0000   1.0000   1.0000   1.0000
     1.0000   1.0000   1.0000   1.0000   1.0000   1.0000   1.0000   1.0000
     1.0000   1.0000   1.0000   1.0000   1.0000   1.0000   1.0000   1.0000
     1.0000   1.0000   1.0000   1.0000   1.0000   1.0000   1.0000   1.0000
     1.0000   1.0000   1.0000   1.0000   1.0000   1.0000   1.0000   1.0000
     1.0000   1.0000   1.0000   1.0000   1.0000   1.0000   1.0000   1.0000
     1.0000   1.0000   1.0000   1.0000   1.0000   1.0000   1.0000   1.0000
     1.0000   1.0000   1.0000   1.0000   1.0000   1.0000   1.0000   1.0000
     1.0000   1.0000   1.0000   1.0000   1.0000   1.0000   1.0000   1.0000
     1.0000   1.0000   1.0000   1.0000   1.0000   1.0000   1.0000   1.0000
     1.0000   1.0000   1.0000   1.0000   1.0000   1.0000   1.0000   1.0000
     1.0000   1.0000   1.0000   1.0000   1.0000   1.0000   1.0000   1.0000

          k = 0.0575 0.0115 0.0650 ( 96313 PWs)   bands (ev):

   -23.8553 -23.8514 -23.8353 -23.8267 -23.5830 -23.5827 -23.5797 -23.5693
   -19.1021 -19.0990 -19.0932 -19.0822 -18.7956 -18.7932 -18.7690 -18.7653
   -18.1813 -18.1562 -17.1356 -17.0899 -16.9929 -16.9892 -15.9958 -15.9757
   -12.0223 -12.0119 -11.9471 -11.8694 -11.7502 -11.7087 -11.7055 -11.6859
    -8.8654  -8.7392  -8.1994  -8.1613  -7.4861  -7.4577  -7.3902  -7.2488
    -7.0254  -6.7953  -6.6208  -6.4348  -6.4238  -6.3773  -6.3538  -6.2490
    -6.1930  -6.1092  -5.9252  -5.8989  -5.8529  -5.7943  -5.7295  -5.6649
    -5.5593  -5.5089  -5.4380  -5.3612  -5.0962  -4.9322  -4.9205  -4.8519
    -4.3265  -4.3122  -4.2497  -4.2105  -3.9011  -3.8801  -3.8332  -3.8012
    -3.6716  -3.5627  -3.4959  -3.3964  -3.1345  -3.0997  -2.9572  -2.8961
    -0.7737  -0.7315  -0.2423  -0.2029  -0.1422  -0.1129  -0.0591  -0.0206
     0.0285   0.0638   0.2313   0.2631   0.2847   0.3041   0.3778   0.4773
     0.5547   0.5688   0.6278   0.7294   0.8334   0.8657   0.9070   0.9394
     1.0382   1.0753   1.0903   1.1181   1.3626   1.4027   1.4164   1.4639

     occupation numbers 
     1.0000   1.0000   1.0000   1.0000   1.0000   1.0000   1.0000   1.0000
     1.0000   1.0000   1.0000   1.0000   1.0000   1.0000   1.0000   1.0000
     1.0000   1.0000   1.0000   1.0000   1.0000   1.0000   1.0000   1.0000
     1.0000   1.0000   1.0000   1.0000   1.0000   1.0000   1.0000   1.0000
     1.0000   1.0000   1.0000   1.0000   1.0000   1.0000   1.0000   1.0000
     1.0000   1.0000   1.0000   1.0000   1.0000   1.0000   1.0000   1.0000
     1.0000   1.0000   1.0000   1.0000   1.0000   1.0000   1.0000   1.0000
     1.0000   1.0000   1.0000   1.0000   1.0000   1.0000   1.0000   1.0000
     1.0000   1.0000   1.0000   1.0000   1.0000   1.0000   1.0000   1.0000
     1.0000   1.0000   1.0000   1.0000   1.0000   1.0000   1.0000   1.0000
     1.0000   1.0000   1.0000   1.0000   1.0000   1.0000   1.0000   1.0000
     1.0000   1.0000   1.0000   1.0000   1.0000   1.0000   1.0000   1.0000
     1.0000   1.0000   1.0000   1.0000   1.0000   1.0000   1.0000   1.0000
     1.0000   1.0000   1.0000   1.0000   1.0000   1.0000   1.0000   1.0000

          k = 0.0575 0.0115-0.0396 ( 96257 PWs)   bands (ev):

   -23.8564 -23.8509 -23.8369 -23.8245 -23.5864 -23.5852 -23.5750 -23.5681
   -19.1000 -19.0980 -19.0935 -19.0851 -18.7966 -18.7942 -18.7679 -18.7642
   -18.1860 -18.1502 -17.1459 -17.0789 -16.9959 -16.9929 -15.9953 -15.9693
   -12.0280 -12.0135 -11.9707 -11.8490 -11.7678 -11.7035 -11.6966 -11.6794
    -8.8601  -8.7139  -8.1930  -8.1628  -7.4836  -7.4627  -7.4134  -7.2371
    -7.0450  -6.7973  -6.6083  -6.4635  -6.4268  -6.4112  -6.3409  -6.2750
    -6.1972  -6.1257  -5.9136  -5.8577  -5.8168  -5.8004  -5.7303  -5.6831
    -5.5327  -5.5043  -5.4441  -5.3612  -5.0869  -4.9576  -4.8937  -4.8368
    -4.3287  -4.2905  -4.2499  -4.2233  -3.9395  -3.9293  -3.7754  -3.7694
    -3.6204  -3.5942  -3.5509  -3.4010  -3.1382  -3.0965  -2.9534  -2.9017
    -0.7298  -0.6646  -0.2345  -0.1766  -0.1602  -0.1333  -0.0665  -0.0403
    -0.0340   0.0095   0.1652   0.2503   0.2819   0.3256   0.3423   0.3706
     0.6075   0.6741   0.7054   0.7223   0.8342   0.8584   0.9293   0.9512
     1.0272   1.0548   1.1075   1.1771   1.3766   1.3952   1.4001   1.4279

     occupation numbers 
     1.0000   1.0000   1.0000   1.0000   1.0000   1.0000   1.0000   1.0000
     1.0000   1.0000   1.0000   1.0000   1.0000   1.0000   1.0000   1.0000
     1.0000   1.0000   1.0000   1.0000   1.0000   1.0000   1.0000   1.0000
     1.0000   1.0000   1.0000   1.0000   1.0000   1.0000   1.0000   1.0000
     1.0000   1.0000   1.0000   1.0000   1.0000   1.0000   1.0000   1.0000
     1.0000   1.0000   1.0000   1.0000   1.0000   1.0000   1.0000   1.0000
     1.0000   1.0000   1.0000   1.0000   1.0000   1.0000   1.0000   1.0000
     1.0000   1.0000   1.0000   1.0000   1.0000   1.0000   1.0000   1.0000
     1.0000   1.0000   1.0000   1.0000   1.0000   1.0000   1.0000   1.0000
     1.0000   1.0000   1.0000   1.0000   1.0000   1.0000   1.0000   1.0000
     1.0000   1.0000   1.0000   1.0000   1.0000   1.0000   1.0000   1.0000
     1.0000   1.0000   1.0000   1.0000   1.0000   1.0000   1.0000   1.0000
     1.0000   1.0000   1.0000   1.0000   1.0000   1.0000   1.0000   1.0000
     1.0000   1.0000   1.0000   1.0000   1.0000   1.0000   1.0000   1.0000

          k = 0.0575 0.0115-0.0047 ( 96226 PWs)   bands (ev):

   -23.8601 -23.8486 -23.8352 -23.8261 -23.5872 -23.5834 -23.5723 -23.5706
   -19.0993 -19.0975 -19.0898 -19.0886 -18.7881 -18.7870 -18.7737 -18.7724
   -18.1785 -18.1527 -17.1381 -17.0887 -17.0048 -17.0047 -15.9834 -15.9667
   -12.0149 -12.0045 -11.9572 -11.8580 -11.7778 -11.7139 -11.6914 -11.6884
    -8.8289  -8.7442  -8.1932  -8.1894  -7.4791  -7.4688  -7.4563  -7.3497
    -6.9376  -6.8448  -6.5722  -6.5470  -6.3962  -6.3896  -6.2321  -6.2007
    -6.1154  -6.1108  -5.8936  -5.8556  -5.7917  -5.7568  -5.7148  -5.7049
    -5.5624  -5.5457  -5.4756  -5.4670  -5.0442  -5.0238  -4.8260  -4.8227
    -4.3879  -4.3605  -4.3141  -4.2796  -3.9586  -3.9161  -3.6954  -3.6871
    -3.6099  -3.5761  -3.5377  -3.4729  -3.1032  -3.0673  -2.9537  -2.9342
    -0.6390  -0.5893  -0.2423  -0.2317  -0.1540  -0.1478  -0.1204  -0.1137
    -0.0223   0.0108   0.1230   0.1898   0.2446   0.2870   0.3834   0.4213
     0.6248   0.6858   0.7783   0.8139   0.8368   0.8735   0.9404   0.9640
     0.9963   1.0162   1.0926   1.1810   1.3671   1.3753   1.3901   1.4077

     occupation numbers 
     1.0000   1.0000   1.0000   1.0000   1.0000   1.0000   1.0000   1.0000
     1.0000   1.0000   1.0000   1.0000   1.0000   1.0000   1.0000   1.0000
     1.0000   1.0000   1.0000   1.0000   1.0000   1.0000   1.0000   1.0000
     1.0000   1.0000   1.0000   1.0000   1.0000   1.0000   1.0000   1.0000
     1.0000   1.0000   1.0000   1.0000   1.0000   1.0000   1.0000   1.0000
     1.0000   1.0000   1.0000   1.0000   1.0000   1.0000   1.0000   1.0000
     1.0000   1.0000   1.0000   1.0000   1.0000   1.0000   1.0000   1.0000
     1.0000   1.0000   1.0000   1.0000   1.0000   1.0000   1.0000   1.0000
     1.0000   1.0000   1.0000   1.0000   1.0000   1.0000   1.0000   1.0000
     1.0000   1.0000   1.0000   1.0000   1.0000   1.0000   1.0000   1.0000
     1.0000   1.0000   1.0000   1.0000   1.0000   1.0000   1.0000   1.0000
     1.0000   1.0000   1.0000   1.0000   1.0000   1.0000   1.0000   1.0000
     1.0000   1.0000   1.0000   1.0000   1.0000   1.0000   1.0000   1.0000
     1.0000   1.0000   1.0000   1.0000   1.0000   1.0000   1.0000   1.0000

          k = 0.0575 0.0344 0.0302 ( 96296 PWs)   bands (ev):

   -23.8561 -23.8515 -23.8316 -23.8312 -23.5823 -23.5810 -23.5761 -23.5738
   -19.1016 -19.1005 -19.0881 -19.0847 -18.7853 -18.7847 -18.7759 -18.7754
   -18.1664 -18.1663 -17.1145 -17.1135 -17.0017 -17.0008 -15.9790 -15.9780
   -12.0067 -12.0057 -11.9087 -11.9005 -11.7498 -11.7414 -11.6969 -11.6896
    -8.8093  -8.7950  -8.1948  -8.1850  -7.4722  -7.4625  -7.4171  -7.3917
    -6.9239  -6.8997  -6.5361  -6.4889  -6.3828  -6.3585  -6.2257  -6.1915
    -6.1239  -6.0944  -5.9238  -5.8943  -5.8198  -5.7928  -5.6987  -5.6753
    -5.5663  -5.5532  -5.4755  -5.4669  -5.0541  -5.0072  -4.8535  -4.8498
    -4.3781  -4.3644  -4.3094  -4.2908  -3.9202  -3.8964  -3.7219  -3.7026
    -3.6218  -3.5725  -3.4877  -3.4810  -3.0841  -3.0815  -2.9549  -2.9411
    -0.6883  -0.6827  -0.2265  -0.2179  -0.1815  -0.1607  -0.0435  -0.0221
    -0.0002   0.0168   0.1804   0.1974   0.2685   0.2838   0.4121   0.4226
     0.6640   0.6674   0.7005   0.7280   0.8368   0.8464   0.9337   0.9539
     1.0144   1.0442   1.0825   1.1074   1.3604   1.3739   1.4220   1.4376

     occupation numbers 
     1.0000   1.0000   1.0000   1.0000   1.0000   1.0000   1.0000   1.0000
     1.0000   1.0000   1.0000   1.0000   1.0000   1.0000   1.0000   1.0000
     1.0000   1.0000   1.0000   1.0000   1.0000   1.0000   1.0000   1.0000
     1.0000   1.0000   1.0000   1.0000   1.0000   1.0000   1.0000   1.0000
     1.0000   1.0000   1.0000   1.0000   1.0000   1.0000   1.0000   1.0000
     1.0000   1.0000   1.0000   1.0000   1.0000   1.0000   1.0000   1.0000
     1.0000   1.0000   1.0000   1.0000   1.0000   1.0000   1.0000   1.0000
     1.0000   1.0000   1.0000   1.0000   1.0000   1.0000   1.0000   1.0000
     1.0000   1.0000   1.0000   1.0000   1.0000   1.0000   1.0000   1.0000
     1.0000   1.0000   1.0000   1.0000   1.0000   1.0000   1.0000   1.0000
     1.0000   1.0000   1.0000   1.0000   1.0000   1.0000   1.0000   1.0000
     1.0000   1.0000   1.0000   1.0000   1.0000   1.0000   1.0000   1.0000
     1.0000   1.0000   1.0000   1.0000   1.0000   1.0000   1.0000   1.0000
     1.0000   1.0000   1.0000   1.0000   1.0000   1.0000   1.0000   1.0000

          k = 0.0575 0.0344 0.0650 ( 96270 PWs)   bands (ev):

   -23.8536 -23.8521 -23.8335 -23.8299 -23.5828 -23.5825 -23.5768 -23.5724
   -19.1025 -19.1017 -19.0881 -19.0841 -18.7949 -18.7939 -18.7679 -18.7664
   -18.1741 -18.1638 -17.1222 -17.1033 -16.9918 -16.9903 -15.9898 -15.9815
   -12.0222 -12.0185 -11.9217 -11.8907 -11.7367 -11.7198 -11.7001 -11.6920
    -8.8297  -8.7776  -8.1865  -8.1707  -7.4617  -7.4481  -7.3767  -7.3130
    -6.9829  -6.9024  -6.5192  -6.4594  -6.4122  -6.3968  -6.3098  -6.2524
    -6.1783  -6.1254  -5.9040  -5.8856  -5.8478  -5.8239  -5.7434  -5.7020
    -5.5516  -5.5314  -5.4061  -5.3748  -5.0572  -4.9878  -4.8989  -4.8701
    -4.3107  -4.2908  -4.2493  -4.2145  -3.8900  -3.8819  -3.8281  -3.8151
    -3.6484  -3.6092  -3.4583  -3.4207  -3.1256  -3.1114  -2.9397  -2.9143
    -0.7577  -0.7405  -0.2284  -0.2110  -0.1737  -0.1646  -0.0308  -0.0193
     0.0601   0.0725   0.2497   0.2598   0.2991   0.3114   0.4019   0.4486
     0.5379   0.5461   0.6785   0.7354   0.8045   0.8437   0.9189   0.9364
     1.0305   1.0543   1.1092   1.1249   1.3734   1.3896   1.4303   1.4496

     occupation numbers 
     1.0000   1.0000   1.0000   1.0000   1.0000   1.0000   1.0000   1.0000
     1.0000   1.0000   1.0000   1.0000   1.0000   1.0000   1.0000   1.0000
     1.0000   1.0000   1.0000   1.0000   1.0000   1.0000   1.0000   1.0000
     1.0000   1.0000   1.0000   1.0000   1.0000   1.0000   1.0000   1.0000
     1.0000   1.0000   1.0000   1.0000   1.0000   1.0000   1.0000   1.0000
     1.0000   1.0000   1.0000   1.0000   1.0000   1.0000   1.0000   1.0000
     1.0000   1.0000   1.0000   1.0000   1.0000   1.0000   1.0000   1.0000
     1.0000   1.0000   1.0000   1.0000   1.0000   1.0000   1.0000   1.0000
     1.0000   1.0000   1.0000   1.0000   1.0000   1.0000   1.0000   1.0000
     1.0000   1.0000   1.0000   1.0000   1.0000   1.0000   1.0000   1.0000
     1.0000   1.0000   1.0000   1.0000   1.0000   1.0000   1.0000   1.0000
     1.0000   1.0000   1.0000   1.0000   1.0000   1.0000   1.0000   1.0000
     1.0000   1.0000   1.0000   1.0000   1.0000   1.0000   1.0000   1.0000
     1.0000   1.0000   1.0000   1.0000   1.0000   1.0000   1.0000   1.0000

          k = 0.0575 0.0344-0.0396 ( 96254 PWs)   bands (ev):

   -23.8548 -23.8525 -23.8334 -23.8282 -23.5857 -23.5852 -23.5733 -23.5703
   -19.1009 -19.1005 -19.0891 -19.0861 -18.7959 -18.7949 -18.7668 -18.7653
   -18.1759 -18.1611 -17.1260 -17.0982 -16.9951 -16.9939 -15.9874 -15.9766
   -12.0278 -12.0232 -11.9355 -11.8898 -11.7397 -11.7160 -11.6918 -11.6851
    -8.8193  -8.7590  -8.1838  -8.1711  -7.4662  -7.4485  -7.3890  -7.3073
    -6.9900  -6.9012  -6.5181  -6.4753  -6.4274  -6.4069  -6.3577  -6.3018
    -6.1416  -6.0977  -5.9087  -5.8715  -5.8259  -5.8162  -5.7383  -5.7067
    -5.5318  -5.5196  -5.4040  -5.3699  -5.0728  -5.0195  -4.8654  -4.8421
    -4.3292  -4.3128  -4.2205  -4.2025  -3.9322  -3.9282  -3.7761  -3.7729
    -3.6267  -3.6174  -3.4967  -3.4388  -3.1240  -3.1058  -2.9426  -2.9204
    -0.7081  -0.6807  -0.2241  -0.2028  -0.1840  -0.1653  -0.0438  -0.0361
    -0.0033   0.0229   0.1935   0.2261   0.2905   0.3082   0.3478   0.3741
     0.6291   0.6556   0.7361   0.7382   0.8275   0.8366   0.9126   0.9196
     1.0388   1.0568   1.1337   1.1605   1.3806   1.3899   1.4056   1.4186

     occupation numbers 
     1.0000   1.0000   1.0000   1.0000   1.0000   1.0000   1.0000   1.0000
     1.0000   1.0000   1.0000   1.0000   1.0000   1.0000   1.0000   1.0000
     1.0000   1.0000   1.0000   1.0000   1.0000   1.0000   1.0000   1.0000
     1.0000   1.0000   1.0000   1.0000   1.0000   1.0000   1.0000   1.0000
     1.0000   1.0000   1.0000   1.0000   1.0000   1.0000   1.0000   1.0000
     1.0000   1.0000   1.0000   1.0000   1.0000   1.0000   1.0000   1.0000
     1.0000   1.0000   1.0000   1.0000   1.0000   1.0000   1.0000   1.0000
     1.0000   1.0000   1.0000   1.0000   1.0000   1.0000   1.0000   1.0000
     1.0000   1.0000   1.0000   1.0000   1.0000   1.0000   1.0000   1.0000
     1.0000   1.0000   1.0000   1.0000   1.0000   1.0000   1.0000   1.0000
     1.0000   1.0000   1.0000   1.0000   1.0000   1.0000   1.0000   1.0000
     1.0000   1.0000   1.0000   1.0000   1.0000   1.0000   1.0000   1.0000
     1.0000   1.0000   1.0000   1.0000   1.0000   1.0000   1.0000   1.0000
     1.0000   1.0000   1.0000   1.0000   1.0000   1.0000   1.0000   1.0000

          k = 0.0575 0.0344-0.0047 ( 96236 PWs)   bands (ev):

   -23.8569 -23.8522 -23.8324 -23.8287 -23.5855 -23.5839 -23.5724 -23.5715
   -19.0998 -19.0992 -19.0883 -19.0879 -18.7878 -18.7873 -18.7733 -18.7727
   -18.1712 -18.1605 -17.1236 -17.1031 -17.0048 -17.0047 -15.9784 -15.9715
   -12.0135 -12.0099 -11.9307 -11.8924 -11.7527 -11.7286 -11.6906 -11.6880
    -8.8047  -8.7697  -8.1908  -8.1876  -7.4756  -7.4714  -7.4287  -7.3844
    -6.9261  -6.8891  -6.5284  -6.5160  -6.3866  -6.3771  -6.2890  -6.2779
    -6.0680  -6.0591  -5.9052  -5.8828  -5.7845  -5.7702  -5.6949  -5.6891
    -5.5641  -5.5485  -5.4727  -5.4697  -5.0495  -5.0380  -4.8241  -4.8227
    -4.3877  -4.3706  -4.3099  -4.2860  -3.9326  -3.9150  -3.6975  -3.6949
    -3.5863  -3.5599  -3.5419  -3.5012  -3.0906  -3.0746  -2.9554  -2.9480
    -0.6229  -0.6023  -0.2270  -0.2183  -0.1711  -0.1477  -0.1412  -0.1215
    -0.0197   0.0018   0.1466   0.1754   0.2658   0.2865   0.3949   0.4158
     0.6552   0.6889   0.7574   0.7831   0.8364   0.8649   0.9475   0.9524
     1.0165   1.0292   1.1095   1.1503   1.3703   1.3723   1.3945   1.4024

     occupation numbers 
     1.0000   1.0000   1.0000   1.0000   1.0000   1.0000   1.0000   1.0000
     1.0000   1.0000   1.0000   1.0000   1.0000   1.0000   1.0000   1.0000
     1.0000   1.0000   1.0000   1.0000   1.0000   1.0000   1.0000   1.0000
     1.0000   1.0000   1.0000   1.0000   1.0000   1.0000   1.0000   1.0000
     1.0000   1.0000   1.0000   1.0000   1.0000   1.0000   1.0000   1.0000
     1.0000   1.0000   1.0000   1.0000   1.0000   1.0000   1.0000   1.0000
     1.0000   1.0000   1.0000   1.0000   1.0000   1.0000   1.0000   1.0000
     1.0000   1.0000   1.0000   1.0000   1.0000   1.0000   1.0000   1.0000
     1.0000   1.0000   1.0000   1.0000   1.0000   1.0000   1.0000   1.0000
     1.0000   1.0000   1.0000   1.0000   1.0000   1.0000   1.0000   1.0000
     1.0000   1.0000   1.0000   1.0000   1.0000   1.0000   1.0000   1.0000
     1.0000   1.0000   1.0000   1.0000   1.0000   1.0000   1.0000   1.0000
     1.0000   1.0000   1.0000   1.0000   1.0000   1.0000   1.0000   1.0000
     1.0000   1.0000   1.0000   1.0000   1.0000   1.0000   1.0000   1.0000

     highest occupied level (ev):     1.4639

!    total energy              =   -1282.04450173 Ry
     Harris-Foulkes estimate   =   -1282.04450213 Ry
     estimated scf accuracy    <       0.00000045 Ry

     total all-electron energy =     -4786.488249 Ry

     The total energy is the sum of the following terms:

     one-electron contribution =    -633.80656920 Ry
     hartree contribution      =     415.70473653 Ry
     xc contribution           =    -260.20796455 Ry
     ewald contribution        =    -473.34328581 Ry
     one-center paw contrib.   =    -330.39141870 Ry

     convergence has been achieved in  24 iterations

     Forces acting on atoms (Ry/au):

     atom    1 type  1   force =    -0.01373563   -0.00661868   -0.01015494
     atom    2 type  4   force =     0.02849937    0.00790293   -0.01804885
     atom    3 type  1   force =    -0.00089665   -0.01163994   -0.01693833
     atom    4 type  1   force =     0.01279658   -0.00483089    0.00298265
     atom    5 type  4   force =     0.00514417   -0.03545122    0.03844686
     atom    6 type  1   force =     0.01056921    0.01179893   -0.01473270
     atom    7 type  4   force =    -0.00984210    0.02117963    0.04262409
     atom    8 type  2   force =     0.15641582   -0.09971195    0.04668375
     atom    9 type  3   force =    -0.12073500   -0.05440537   -0.12453148
     atom   10 type  3   force =    -0.04055235    0.16059476    0.07164183
     atom   11 type  4   force =    -0.03727771    0.02288131   -0.01633582
     atom   12 type  2   force =     0.12094481   -0.05790240    0.21095813
     atom   13 type  3   force =    -0.19600692   -0.09839718   -0.06245681
     atom   14 type  3   force =     0.06845674    0.15572020   -0.15310885
     atom   15 type  3   force =     0.06845674   -0.15572020   -0.15310885
     atom   16 type  3   force =    -0.19600692    0.09839718   -0.06245681
     atom   17 type  2   force =     0.12094481    0.05790240    0.21095813
     atom   18 type  4   force =    -0.03727771   -0.02288131   -0.01633582
     atom   19 type  3   force =    -0.04055235   -0.16059476    0.07164183
     atom   20 type  3   force =    -0.12073500    0.05440537   -0.12453148
     atom   21 type  2   force =     0.15641582    0.09971195    0.04668375
     atom   22 type  4   force =    -0.00984210   -0.02117963    0.04262409
     atom   23 type  1   force =     0.01056921   -0.01179893   -0.01473270
     atom   24 type  4   force =     0.00514417    0.03545122    0.03844686
     atom   25 type  1   force =     0.01279658    0.00483089    0.00298265
     atom   26 type  1   force =    -0.00089665    0.01163994   -0.01693833
     atom   27 type  4   force =     0.02849937   -0.00790293   -0.01804885
     atom   28 type  1   force =    -0.01373563    0.00661868   -0.01015494
     atom   29 type  3   force =    -0.06845674   -0.15572020    0.15310885
     atom   30 type  3   force =     0.19600692    0.09839718    0.06245681
     atom   31 type  2   force =    -0.12094481    0.05790240   -0.21095813
     atom   32 type  4   force =     0.03727771   -0.02288131    0.01633582
     atom   33 type  3   force =     0.04055235   -0.16059476   -0.07164183
     atom   34 type  3   force =     0.12073500    0.05440537    0.12453148
     atom   35 type  2   force =    -0.15641582    0.09971195   -0.04668375
     atom   36 type  4   force =     0.00984210   -0.02117963   -0.04262409
     atom   37 type  1   force =    -0.01056921   -0.01179893    0.01473270
     atom   38 type  4   force =    -0.00514417    0.03545122   -0.03844686
     atom   39 type  1   force =    -0.01279658    0.00483089   -0.00298265
     atom   40 type  1   force =     0.00089665    0.01163994    0.01693833
     atom   41 type  4   force =    -0.02849937   -0.00790293    0.01804885
     atom   42 type  1   force =     0.01373563    0.00661868    0.01015494
     atom   43 type  3   force =    -0.06845674    0.15572020    0.15310885
     atom   44 type  3   force =     0.19600692   -0.09839718    0.06245681
     atom   45 type  2   force =    -0.12094481   -0.05790240   -0.21095813
     atom   46 type  4   force =     0.03727771    0.02288131    0.01633582
     atom   47 type  3   force =     0.04055235    0.16059476   -0.07164183
     atom   48 type  3   force =     0.12073500   -0.05440537    0.12453148
     atom   49 type  2   force =    -0.15641582   -0.09971195   -0.04668375
     atom   50 type  4   force =     0.00984210    0.02117963   -0.04262409
     atom   51 type  1   force =    -0.01056921    0.01179893    0.01473270
     atom   52 type  4   force =    -0.00514417   -0.03545122   -0.03844686
     atom   53 type  1   force =    -0.01279658   -0.00483089   -0.00298265
     atom   54 type  1   force =     0.00089665   -0.01163994    0.01693833
     atom   55 type  4   force =    -0.02849937    0.00790293    0.01804885
     atom   56 type  1   force =     0.01373563   -0.00661868    0.01015494
     The non-local contrib.  to forces
     atom    1 type  1   force =     0.17203650    0.37615329    0.11407224
     atom    2 type  4   force =    -2.39993482   -0.45994081    1.53819091
     atom    3 type  1   force =     0.04218429   -0.03259020    0.05462504
     atom    4 type  1   force =    -0.57616369   -0.42297607   -0.12545245
     atom    5 type  4   force =     0.16705950    1.86581257   -2.24351488
     atom    6 type  1   force =    -0.00672396    0.06263426    0.05904068
     atom    7 type  4   force =     0.53753426   -1.16905064   -2.62927369
     atom    8 type  2   force =     0.62586532   -0.42617531    0.17577911
     atom    9 type  3   force =     0.07749127    0.02685820    0.06765340
     atom   10 type  3   force =     0.02813936   -0.09642693   -0.03809302
     atom   11 type  4   force =     2.26640490   -1.47564817    0.83938666
     atom   12 type  2   force =     0.38226178   -0.19139612    0.69970042
     atom   13 type  3   force =     0.09391002    0.04780611    0.03979680
     atom   14 type  3   force =    -0.03060980   -0.07478641    0.08000062
     atom   15 type  3   force =    -0.03060980    0.07478641    0.08000062
     atom   16 type  3   force =     0.09391002   -0.04780611    0.03979680
     atom   17 type  2   force =     0.38226178    0.19139612    0.69970042
     atom   18 type  4   force =     2.26640490    1.47564817    0.83938666
     atom   19 type  3   force =     0.02813936    0.09642693   -0.03809302
     atom   20 type  3   force =     0.07749127   -0.02685820    0.06765340
     atom   21 type  2   force =     0.62586532    0.42617531    0.17577911
     atom   22 type  4   force =     0.53753426    1.16905064   -2.62927369
     atom   23 type  1   force =    -0.00672396   -0.06263426    0.05904068
     atom   24 type  4   force =     0.16705950   -1.86581257   -2.24351488
     atom   25 type  1   force =    -0.57616369    0.42297607   -0.12545245
     atom   26 type  1   force =     0.04218429    0.03259020    0.05462504
     atom   27 type  4   force =    -2.39993482    0.45994081    1.53819091
     atom   28 type  1   force =     0.17203650   -0.37615329    0.11407224
     atom   29 type  3   force =     0.03060980    0.07478641   -0.08000062
     atom   30 type  3   force =    -0.09391002   -0.04780611   -0.03979680
     atom   31 type  2   force =    -0.38226178    0.19139612   -0.69970042
     atom   32 type  4   force =    -2.26640490    1.47564817   -0.83938666
     atom   33 type  3   force =    -0.02813936    0.09642693    0.03809302
     atom   34 type  3   force =    -0.07749127   -0.02685820   -0.06765340
     atom   35 type  2   force =    -0.62586532    0.42617531   -0.17577911
     atom   36 type  4   force =    -0.53753426    1.16905064    2.62927369
     atom   37 type  1   force =     0.00672396   -0.06263426   -0.05904068
     atom   38 type  4   force =    -0.16705950   -1.86581257    2.24351488
     atom   39 type  1   force =     0.57616369    0.42297607    0.12545245
     atom   40 type  1   force =    -0.04218429    0.03259020   -0.05462504
     atom   41 type  4   force =     2.39993482    0.45994081   -1.53819091
     atom   42 type  1   force =    -0.17203650   -0.37615329   -0.11407224
     atom   43 type  3   force =     0.03060980   -0.07478641   -0.08000062
     atom   44 type  3   force =    -0.09391002    0.04780611   -0.03979680
     atom   45 type  2   force =    -0.38226178   -0.19139612   -0.69970042
     atom   46 type  4   force =    -2.26640490   -1.47564817   -0.83938666
     atom   47 type  3   force =    -0.02813936   -0.09642693    0.03809302
     atom   48 type  3   force =    -0.07749127    0.02685820   -0.06765340
     atom   49 type  2   force =    -0.62586532   -0.42617531   -0.17577911
     atom   50 type  4   force =    -0.53753426   -1.16905064    2.62927369
     atom   51 type  1   force =     0.00672396    0.06263426   -0.05904068
     atom   52 type  4   force =    -0.16705950    1.86581257    2.24351488
     atom   53 type  1   force =     0.57616369   -0.42297607    0.12545245
     atom   54 type  1   force =    -0.04218429   -0.03259020   -0.05462504
     atom   55 type  4   force =     2.39993482   -0.45994081   -1.53819091
     atom   56 type  1   force =    -0.17203650    0.37615329   -0.11407224
     The ionic contribution  to forces
     atom    1 type  1   force =    -3.03704534    0.23068460   -1.99937260
     atom    2 type  4   force =    12.20159925    4.24569638   -5.95501004
     atom    3 type  1   force =    -0.21338486    1.62447895    0.00672683
     atom    4 type  1   force =     2.80124776    2.82706232    2.02032485
     atom    5 type  4   force =    -1.30237236   -8.61145636   11.42936299
     atom    6 type  1   force =    -0.32683552    0.09668376    1.02280648
     atom    7 type  4   force =    -2.05358400    6.26876102   12.45980920
     atom    8 type  2   force =    -4.06970673    3.24941004   -1.21895625
     atom    9 type  3   force =    -2.21435278   -0.14201158   -1.96089374
     atom   10 type  3   force =    -1.22378006    2.74662803    0.69630709
     atom   11 type  4   force =   -11.13217065    6.18259145   -2.34477034
     atom   12 type  2   force =    -2.86884381    0.94443327   -4.69350685
     atom   13 type  3   force =    -2.59964860   -1.06048005   -1.58695539
     atom   14 type  3   force =     0.27688983    2.05265280   -2.52621440
     atom   15 type  3   force =     0.27688983   -2.05265280   -2.52621440
     atom   16 type  3   force =    -2.59964860    1.06048005   -1.58695539
     atom   17 type  2   force =    -2.86884381   -0.94443327   -4.69350685
     atom   18 type  4   force =   -11.13217065   -6.18259145   -2.34477034
     atom   19 type  3   force =    -1.22378006   -2.74662803    0.69630709
     atom   20 type  3   force =    -2.21435278    0.14201158   -1.96089374
     atom   21 type  2   force =    -4.06970673   -3.24941004   -1.21895625
     atom   22 type  4   force =    -2.05358400   -6.26876102   12.45980920
     atom   23 type  1   force =    -0.32683552   -0.09668376    1.02280648
     atom   24 type  4   force =    -1.30237236    8.61145636   11.42936299
     atom   25 type  1   force =     2.80124776   -2.82706232    2.02032485
     atom   26 type  1   force =    -0.21338486   -1.62447895    0.00672683
     atom   27 type  4   force =    12.20159925   -4.24569638   -5.95501004
     atom   28 type  1   force =    -3.03704534   -0.23068460   -1.99937260
     atom   29 type  3   force =    -0.27688983   -2.05265280    2.52621440
     atom   30 type  3   force =     2.59964860    1.06048005    1.58695539
     atom   31 type  2   force =     2.86884381   -0.94443327    4.69350685
     atom   32 type  4   force =    11.13217065   -6.18259145    2.34477034
     atom   33 type  3   force =     1.22378006   -2.74662803   -0.69630709
     atom   34 type  3   force =     2.21435278    0.14201158    1.96089374
     atom   35 type  2   force =     4.06970673   -3.24941004    1.21895625
     atom   36 type  4   force =     2.05358400   -6.26876102  -12.45980920
     atom   37 type  1   force =     0.32683552   -0.09668376   -1.02280648
     atom   38 type  4   force =     1.30237236    8.61145636  -11.42936299
     atom   39 type  1   force =    -2.80124776   -2.82706232   -2.02032485
     atom   40 type  1   force =     0.21338486   -1.62447895   -0.00672683
     atom   41 type  4   force =   -12.20159925   -4.24569638    5.95501004
     atom   42 type  1   force =     3.03704534   -0.23068460    1.99937260
     atom   43 type  3   force =    -0.27688983    2.05265280    2.52621440
     atom   44 type  3   force =     2.59964860   -1.06048005    1.58695539
     atom   45 type  2   force =     2.86884381    0.94443327    4.69350685
     atom   46 type  4   force =    11.13217065    6.18259145    2.34477034
     atom   47 type  3   force =     1.22378006    2.74662803   -0.69630709
     atom   48 type  3   force =     2.21435278   -0.14201158    1.96089374
     atom   49 type  2   force =     4.06970673    3.24941004    1.21895625
     atom   50 type  4   force =     2.05358400    6.26876102  -12.45980920
     atom   51 type  1   force =     0.32683552    0.09668376   -1.02280648
     atom   52 type  4   force =     1.30237236   -8.61145636  -11.42936299
     atom   53 type  1   force =    -2.80124776    2.82706232   -2.02032485
     atom   54 type  1   force =     0.21338486    1.62447895   -0.00672683
     atom   55 type  4   force =   -12.20159925    4.24569638    5.95501004
     atom   56 type  1   force =     3.03704534    0.23068460    1.99937260
     The local contribution  to forces
     atom    1 type  1   force =     2.85430033   -0.60720860    1.87696378
     atom    2 type  4   force =    -9.79187911   -3.78140864    4.41077220
     atom    3 type  1   force =     0.16997986   -1.60529327   -0.07842043
     atom    4 type  1   force =    -2.22160798   -2.41533204   -1.89363473
     atom    5 type  4   force =     1.14178319    6.72456294   -9.16488254
     atom    6 type  1   force =     0.34504249   -0.14553767   -1.09674896
     atom    7 type  4   force =     1.51036521   -5.08743643   -9.80813453
     atom    8 type  2   force =     3.61352225   -2.93253544    1.09453757
     atom    9 type  3   force =     2.01610761    0.06072583    1.76871446
     atom   10 type  3   force =     1.15507335   -2.48962788   -0.58656767
     atom   11 type  4   force =     8.84597029   -4.69544792    1.49550648
     atom   12 type  2   force =     2.61624039   -0.81497982    4.22065845
     atom   13 type  3   force =     2.30972455    0.91427735    1.48472095
     atom   14 type  3   force =    -0.17783251   -1.82214113    2.29312176
     atom   15 type  3   force =    -0.17783251    1.82214113    2.29312176
     atom   16 type  3   force =     2.30972455   -0.91427735    1.48472095
     atom   17 type  2   force =     2.61624039    0.81497982    4.22065845
     atom   18 type  4   force =     8.84597029    4.69544792    1.49550648
     atom   19 type  3   force =     1.15507335    2.48962788   -0.58656767
     atom   20 type  3   force =     2.01610761   -0.06072583    1.76871446
     atom   21 type  2   force =     3.61352225    2.93253544    1.09453757
     atom   22 type  4   force =     1.51036521    5.08743643   -9.80813453
     atom   23 type  1   force =     0.34504249    0.14553767   -1.09674896
     atom   24 type  4   force =     1.14178319   -6.72456294   -9.16488254
[...]
     atom   38 type  4   force =    -1.14178319   -6.72456294    9.16488254
     atom   39 type  1   force =     2.22160798    2.41533204    1.89363473
     atom   40 type  1   force =    -0.16997986    1.60529327    0.07842043
     atom   41 type  4   force =     9.79187911    3.78140864   -4.41077220
     atom   42 type  1   force =    -2.85430033    0.60720860   -1.87696378
     atom   43 type  3   force =     0.17783251   -1.82214113   -2.29312176
     atom   44 type  3   force =    -2.30972455    0.91427735   -1.48472095
     atom   45 type  2   force =    -2.61624039   -0.81497982   -4.22065845
     atom   46 type  4   force =    -8.84597029   -4.69544792   -1.49550648
     atom   47 type  3   force =    -1.15507335   -2.48962788    0.58656767
     atom   48 type  3   force =    -2.01610761    0.06072583   -1.76871446
     atom   49 type  2   force =    -3.61352225   -2.93253544   -1.09453757
     atom   50 type  4   force =    -1.51036521   -5.08743643    9.80813453
     atom   51 type  1   force =    -0.34504249   -0.14553767    1.09674896
     atom   52 type  4   force =    -1.14178319    6.72456294    9.16488254
     atom   53 type  1   force =     2.22160798   -2.41533204    1.89363473
     atom   54 type  1   force =    -0.16997986   -1.60529327    0.07842043
     atom   55 type  4   force =     9.79187911   -3.78140864   -4.41077220
     atom   56 type  1   force =    -2.85430033   -0.60720860   -1.87696378
     The core correction contribution to forces
     atom    1 type  1   force =    -0.00301597   -0.00630459   -0.00184399
     atom    2 type  4   force =     0.01871178    0.00349988   -0.01201740
     atom    3 type  1   force =     0.00035349    0.00166832    0.00002466
     atom    4 type  1   force =     0.00926196    0.00643809    0.00164282
     atom    5 type  4   force =    -0.00136779   -0.01427645    0.01738603
     atom    6 type  1   force =    -0.00112242   -0.00163334   -0.00020043
     atom    7 type  4   force =    -0.00413661    0.00889351    0.02027315
     atom    8 type  2   force =    -0.01333028    0.00952049   -0.00466366
     atom    9 type  3   force =     0.00000000    0.00000000    0.00000000
     atom   10 type  3   force =     0.00000000    0.00000000    0.00000000
     atom   11 type  4   force =    -0.01760929    0.01153687   -0.00662676
     atom   12 type  2   force =    -0.00870543    0.00403620   -0.01584131
     atom   13 type  3   force =     0.00000000    0.00000000    0.00000000
     atom   14 type  3   force =     0.00000000    0.00000000    0.00000000
     atom   15 type  3   force =     0.00000000    0.00000000    0.00000000
     atom   16 type  3   force =     0.00000000    0.00000000    0.00000000
     atom   17 type  2   force =    -0.00870543   -0.00403620   -0.01584131
     atom   18 type  4   force =    -0.01760929   -0.01153687   -0.00662676
     atom   19 type  3   force =     0.00000000    0.00000000    0.00000000
     atom   20 type  3   force =     0.00000000    0.00000000    0.00000000
     atom   21 type  2   force =    -0.01333028   -0.00952049   -0.00466366
     atom   22 type  4   force =    -0.00413661   -0.00889351    0.02027315
     atom   23 type  1   force =    -0.00112242    0.00163334   -0.00020043
     atom   24 type  4   force =    -0.00136779    0.01427645    0.01738603
     atom   25 type  1   force =     0.00926196   -0.00643809    0.00164282
     atom   26 type  1   force =     0.00035349   -0.00166832    0.00002466
     atom   27 type  4   force =     0.01871178   -0.00349988   -0.01201740
     atom   28 type  1   force =    -0.00301597    0.00630459   -0.00184399
     atom   29 type  3   force =     0.00000000    0.00000000    0.00000000
     atom   30 type  3   force =     0.00000000    0.00000000    0.00000000
     atom   31 type  2   force =     0.00870543   -0.00403620    0.01584131
     atom   32 type  4   force =     0.01760929   -0.01153687    0.00662676
     atom   33 type  3   force =     0.00000000    0.00000000    0.00000000
     atom   34 type  3   force =     0.00000000    0.00000000    0.00000000
     atom   35 type  2   force =     0.01333028   -0.00952049    0.00466366
     atom   36 type  4   force =     0.00413661   -0.00889351   -0.02027315
     atom   37 type  1   force =     0.00112242    0.00163334    0.00020043
     atom   38 type  4   force =     0.00136779    0.01427645   -0.01738603
     atom   39 type  1   force =    -0.00926196   -0.00643809   -0.00164282
     atom   40 type  1   force =    -0.00035349   -0.00166832   -0.00002466
     atom   41 type  4   force =    -0.01871178   -0.00349988    0.01201740
     atom   42 type  1   force =     0.00301597    0.00630459    0.00184399
     atom   43 type  3   force =     0.00000000    0.00000000    0.00000000
     atom   44 type  3   force =     0.00000000    0.00000000    0.00000000
     atom   45 type  2   force =     0.00870543    0.00403620    0.01584131
     atom   46 type  4   force =     0.01760929    0.01153687    0.00662676
     atom   47 type  3   force =     0.00000000    0.00000000    0.00000000
     atom   48 type  3   force =     0.00000000    0.00000000    0.00000000
     atom   49 type  2   force =     0.01333028    0.00952049    0.00466366
     atom   50 type  4   force =     0.00413661    0.00889351   -0.02027315
     atom   51 type  1   force =     0.00112242   -0.00163334    0.00020043
     atom   52 type  4   force =     0.00136779   -0.01427645   -0.01738603
     atom   53 type  1   force =    -0.00926196    0.00643809   -0.00164282
     atom   54 type  1   force =    -0.00035349    0.00166832   -0.00002466
     atom   55 type  4   force =    -0.01871178    0.00349988    0.01201740
     atom   56 type  1   force =     0.00301597   -0.00630459    0.00184399
     The Hubbard contrib.    to forces
     atom    1 type  1   force =     0.00000000    0.00000000    0.00000000
     atom    2 type  4   force =     0.00000000    0.00000000    0.00000000
     atom    3 type  1   force =     0.00000000    0.00000000    0.00000000
     atom    4 type  1   force =     0.00000000    0.00000000    0.00000000
     atom    5 type  4   force =     0.00000000    0.00000000    0.00000000
     atom    6 type  1   force =     0.00000000    0.00000000    0.00000000
     atom    7 type  4   force =     0.00000000    0.00000000    0.00000000
     atom    8 type  2   force =     0.00000000    0.00000000    0.00000000
     atom    9 type  3   force =     0.00000000    0.00000000    0.00000000
     atom   10 type  3   force =     0.00000000    0.00000000    0.00000000
     atom   11 type  4   force =     0.00000000    0.00000000    0.00000000
     atom   12 type  2   force =     0.00000000    0.00000000    0.00000000
     atom   13 type  3   force =     0.00000000    0.00000000    0.00000000
     atom   14 type  3   force =     0.00000000    0.00000000    0.00000000
     atom   15 type  3   force =     0.00000000    0.00000000    0.00000000
     atom   16 type  3   force =     0.00000000    0.00000000    0.00000000
     atom   17 type  2   force =     0.00000000    0.00000000    0.00000000
     atom   18 type  4   force =     0.00000000    0.00000000    0.00000000
     atom   19 type  3   force =     0.00000000    0.00000000    0.00000000
     atom   20 type  3   force =     0.00000000    0.00000000    0.00000000
     atom   21 type  2   force =     0.00000000    0.00000000    0.00000000
     atom   22 type  4   force =     0.00000000    0.00000000    0.00000000
     atom   23 type  1   force =     0.00000000    0.00000000    0.00000000
     atom   24 type  4   force =     0.00000000    0.00000000    0.00000000
     atom   25 type  1   force =     0.00000000    0.00000000    0.00000000
     atom   26 type  1   force =     0.00000000    0.00000000    0.00000000
     atom   27 type  4   force =     0.00000000    0.00000000    0.00000000
     atom   28 type  1   force =     0.00000000    0.00000000    0.00000000
     atom   29 type  3   force =     0.00000000    0.00000000    0.00000000
     atom   30 type  3   force =     0.00000000    0.00000000    0.00000000
     atom   31 type  2   force =     0.00000000    0.00000000    0.00000000
     atom   32 type  4   force =     0.00000000    0.00000000    0.00000000
     atom   33 type  3   force =     0.00000000    0.00000000    0.00000000
     atom   34 type  3   force =     0.00000000    0.00000000    0.00000000
     atom   35 type  2   force =     0.00000000    0.00000000    0.00000000
     atom   36 type  4   force =     0.00000000    0.00000000    0.00000000
     atom   37 type  1   force =     0.00000000    0.00000000    0.00000000
     atom   38 type  4   force =     0.00000000    0.00000000    0.00000000
     atom   39 type  1   force =     0.00000000    0.00000000    0.00000000
     atom   40 type  1   force =     0.00000000    0.00000000    0.00000000
     atom   41 type  4   force =     0.00000000    0.00000000    0.00000000
     atom   42 type  1   force =     0.00000000    0.00000000    0.00000000
     atom   43 type  3   force =     0.00000000    0.00000000    0.00000000
     atom   44 type  3   force =     0.00000000    0.00000000    0.00000000
     atom   45 type  2   force =     0.00000000    0.00000000    0.00000000
     atom   46 type  4   force =     0.00000000    0.00000000    0.00000000
     atom   47 type  3   force =     0.00000000    0.00000000    0.00000000
     atom   48 type  3   force =     0.00000000    0.00000000    0.00000000
     atom   49 type  2   force =     0.00000000    0.00000000    0.00000000
     atom   50 type  4   force =     0.00000000    0.00000000    0.00000000
     atom   51 type  1   force =     0.00000000    0.00000000    0.00000000
     atom   52 type  4   force =     0.00000000    0.00000000    0.00000000
     atom   53 type  1   force =     0.00000000    0.00000000    0.00000000
     atom   54 type  1   force =     0.00000000    0.00000000    0.00000000
     atom   55 type  4   force =     0.00000000    0.00000000    0.00000000
     atom   56 type  1   force =     0.00000000    0.00000000    0.00000000
     The SCF correction term to forces
     atom    1 type  1   force =    -0.00001115    0.00005663    0.00002564
     atom    2 type  4   force =     0.00000227    0.00005613    0.00001548
     atom    3 type  1   force =    -0.00002942    0.00009627    0.00010556
     atom    4 type  1   force =     0.00005853   -0.00002319    0.00010216
     atom    5 type  4   force =     0.00004163   -0.00009391    0.00009526
     atom    6 type  1   force =     0.00020862   -0.00034808    0.00036953
     atom    7 type  4   force =    -0.00002095    0.00001217   -0.00005004
     atom    8 type  2   force =     0.00006526    0.00006827   -0.00001303
     atom    9 type  3   force =     0.00001891    0.00002218   -0.00000560
     atom   10 type  3   force =     0.00001500    0.00002154   -0.00000457
     atom   11 type  4   force =     0.00012703   -0.00015091    0.00016814
     atom   12 type  2   force =    -0.00000811    0.00000406   -0.00005257
     atom   13 type  3   force =     0.00000711   -0.00000059   -0.00001916
     atom   14 type  3   force =     0.00000922   -0.00000506   -0.00001683
     atom   15 type  3   force =     0.00000922    0.00000506   -0.00001683
     atom   16 type  3   force =     0.00000711    0.00000059   -0.00001916
     atom   17 type  2   force =    -0.00000811   -0.00000406   -0.00005257
     atom   18 type  4   force =     0.00012703    0.00015091    0.00016814
     atom   19 type  3   force =     0.00001500   -0.00002154   -0.00000457
     atom   20 type  3   force =     0.00001891   -0.00002218   -0.00000560
     atom   21 type  2   force =     0.00006526   -0.00006827   -0.00001303
     atom   22 type  4   force =    -0.00002095   -0.00001217   -0.00005004
     atom   23 type  1   force =     0.00020862    0.00034808    0.00036953
     atom   24 type  4   force =     0.00004163    0.00009391    0.00009526
     atom   25 type  1   force =     0.00005853    0.00002319    0.00010216
     atom   26 type  1   force =    -0.00002942   -0.00009627    0.00010556
     atom   27 type  4   force =     0.00000227   -0.00005613    0.00001548
     atom   28 type  1   force =    -0.00001115   -0.00005663    0.00002564
     atom   29 type  3   force =    -0.00000922    0.00000506    0.00001683
     atom   30 type  3   force =    -0.00000711    0.00000059    0.00001916
     atom   31 type  2   force =     0.00000811   -0.00000406    0.00005257
     atom   32 type  4   force =    -0.00012703    0.00015091   -0.00016814
     atom   33 type  3   force =    -0.00001500   -0.00002154    0.00000457
     atom   34 type  3   force =    -0.00001891   -0.00002218    0.00000560
     atom   35 type  2   force =    -0.00006526   -0.00006827    0.00001303
     atom   36 type  4   force =     0.00002095   -0.00001217    0.00005004
     atom   37 type  1   force =    -0.00020862    0.00034808   -0.00036953
     atom   38 type  4   force =    -0.00004163    0.00009391   -0.00009526
     atom   39 type  1   force =    -0.00005853    0.00002319   -0.00010216
     atom   40 type  1   force =     0.00002942   -0.00009627   -0.00010556
     atom   41 type  4   force =    -0.00000227   -0.00005613   -0.00001548
     atom   42 type  1   force =     0.00001115   -0.00005663   -0.00002564
     atom   43 type  3   force =    -0.00000922   -0.00000506    0.00001683
     atom   44 type  3   force =    -0.00000711   -0.00000059    0.00001916
     atom   45 type  2   force =     0.00000811    0.00000406    0.00005257
     atom   46 type  4   force =    -0.00012703   -0.00015091   -0.00016814
     atom   47 type  3   force =    -0.00001500    0.00002154    0.00000457
     atom   48 type  3   force =    -0.00001891    0.00002218    0.00000560
     atom   49 type  2   force =    -0.00006526    0.00006827    0.00001303
     atom   50 type  4   force =     0.00002095    0.00001217    0.00005004
     atom   51 type  1   force =    -0.00020862   -0.00034808   -0.00036953
     atom   52 type  4   force =    -0.00004163   -0.00009391   -0.00009526
     atom   53 type  1   force =    -0.00005853   -0.00002319   -0.00010216
     atom   54 type  1   force =     0.00002942    0.00009627   -0.00010556
     atom   55 type  4   force =    -0.00000227    0.00005613   -0.00001548
     atom   56 type  1   force =     0.00001115    0.00005663   -0.00002564

     Total force =     1.056390     Total SCF correction =     0.001339


     entering subroutine stress ...

          total   stress  (Ry/bohr**3)                   (kbar)     P=  138.27
   0.00097438   0.00000000   0.00012026        143.34      0.00     17.69
   0.00000000   0.00094906   0.00000000          0.00    139.61      0.00
   0.00012026   0.00000000   0.00089640         17.69      0.00    131.86

     kinetic stress (kbar)  15309.35      0.00    336.19
                                0.00  15728.45      0.00
                              336.19      0.00  15260.39

     local   stress (kbar) -15742.79     -0.00   7919.08
                               -0.00  -8767.87      0.00
                             7919.08      0.00 -11904.90

     nonloc. stress (kbar)   1036.19      0.00     11.03
                                0.00   1046.28      0.00
                               11.03      0.00   1006.24

     hartree stress (kbar)   7095.25      0.00  -2890.53
                                0.00   5050.03      0.00
                            -2890.53      0.00   5625.59

     exc-cor stress (kbar)  -2207.75     -0.00    -10.98
                               -0.00  -2228.28     -0.00
                              -10.98     -0.00  -2213.43

     corecor stress (kbar)  -1147.15     -0.00     -2.79
                               -0.00  -1149.13     -0.00
                               -2.79     -0.00  -1146.81

     ewald   stress (kbar)  -4199.77      0.00  -5344.31
                                0.00  -9539.87     -0.00
                            -5344.31     -0.00  -6495.22

     hubbard stress (kbar)      0.00      0.00      0.00
                                0.00      0.00      0.00
                                0.00      0.00      0.00

     london  stress (kbar)      0.00      0.00      0.00
                                0.00      0.00      0.00
                                0.00      0.00      0.00

     XDM     stress (kbar)      0.00      0.00      0.00
                                0.00      0.00      0.00
                                0.00      0.00      0.00

     dft-nl  stress (kbar)      0.00      0.00      0.00
                                0.00      0.00      0.00
                                0.00      0.00      0.00

     TS-vdW  stress (kbar)      0.00      0.00      0.00
                                0.00      0.00      0.00
                                0.00      0.00      0.00



     Writing output data file scf.pbe.ec-140.kp-444.HMX-792932.np-8.default-conv-thr.save

     init_run     :    622.32s CPU    659.26s WALL (       1 calls)
     electrons    :  24124.19s CPU  26223.57s WALL (       1 calls)
     forces       :    303.13s CPU    318.92s WALL (       1 calls)
     stress       :   1026.20s CPU   1059.26s WALL (       1 calls)

     Called by init_run:
     wfcinit      :    426.44s CPU    454.95s WALL (       1 calls)
     potinit      :     63.07s CPU     66.26s WALL (       1 calls)

     Called by electrons:
     c_bands      :  19917.89s CPU  21346.09s WALL (      24 calls)
     sum_band     :   3649.14s CPU   4246.40s WALL (      24 calls)
     v_of_rho     :    111.09s CPU    117.97s WALL (      25 calls)
     v_h          :     11.56s CPU     12.33s WALL (      25 calls)
     v_xc         :    107.09s CPU    113.70s WALL (      27 calls)
     newd         :    414.70s CPU    480.91s WALL (      25 calls)
     PAW_pot      :     16.29s CPU     16.52s WALL (      25 calls)
     mix_rho      :     24.06s CPU     24.81s WALL (      24 calls)

     Called by c_bands:
     init_us_2    :    128.98s CPU    131.65s WALL (     816 calls)
     cegterg      :  19728.94s CPU  21136.68s WALL (     384 calls)

     Called by sum_band:
     sum_band:bec :      0.41s CPU      0.38s WALL (     384 calls)
     addusdens    :    712.20s CPU   1191.61s WALL (      24 calls)

     Called by *egterg:
     h_psi        :  11666.66s CPU  12310.21s WALL (    1747 calls)
     s_psi        :   2289.64s CPU   2426.07s WALL (    1747 calls)
     g_psi        :     15.83s CPU     20.80s WALL (    1347 calls)
     cdiaghg      :    356.96s CPU    366.58s WALL (    1731 calls)
     cegterg:over :   2023.27s CPU   2238.14s WALL (    1347 calls)
     cegterg:upda :   1169.20s CPU   1199.57s WALL (    1347 calls)
     cegterg:last :    713.91s CPU    773.10s WALL (     384 calls)

     Called by h_psi:
     h_psi:vloc   :   7194.16s CPU   7513.83s WALL (    1747 calls)
     h_psi:vnl    :   4408.95s CPU   4731.16s WALL (    1747 calls)
     add_vuspsi   :   2295.33s CPU   2459.76s WALL (    1747 calls)

     General routines
     calbec       :   3042.57s CPU   3265.09s WALL (    2211 calls)
     fft          :    122.22s CPU    149.54s WALL (     421 calls)
     ffts         :      2.29s CPU      2.51s WALL (      49 calls)
     fftw         :   4531.72s CPU   4894.96s WALL (  271588 calls)
     interpolate  :     19.57s CPU     21.02s WALL (      49 calls)
     davcio       :      1.26s CPU     28.30s WALL (      16 calls)

     Parallel routines
     fft_scatter  :   1782.61s CPU   2152.85s WALL (  272058 calls)

     PAW routines
     PAW_pot      :     16.29s CPU     16.52s WALL (      25 calls)
     PAW_symme    :      0.02s CPU      0.04s WALL (      49 calls)

     PWSCF        :     7h14m CPU        7h51m WALL


   This run was terminated on:   0:26: 9  26Jun2016            

=------------------------------------------------------------------------------=
   JOB DONE.
=------------------------------------------------------------------------------=
