
     Program PWSCF v.6.0 (svn rev. 13079) starts on  1Apr2017 at  9:20:55 

     This program is part of the open-source Quantum ESPRESSO suite
     for quantum simulation of materials; please cite
         "P. Giannozzi et al., J. Phys.:Condens. Matter 21 395502 (2009);
          URL http://www.quantum-espresso.org", 
     in publications or presentations arising from this work. More details at
     http://www.quantum-espresso.org/quote

     Parallel version (MPI), running on     2 processors
     R & G space division:  proc/nbgrp/npool/nimage =       2
     Waiting for input...
     Reading input from standard input
Warning: card    &IONS ignored
Warning: card TRUST_RADIUS_MAX=0.2 ignored
Warning: card / ignored
Warning: card     &CELL ignored
Warning: card CELL_DYNAMICS='BFGS' ignored
Warning: card / ignored

     Current dimensions of program PWSCF are:
     Max number of different atomic species (ntypx) = 10
     Max number of k-points (npk) =  40000
     Max angular momentum in pseudopotentials (lmaxx) =  3
               file C.pbe-n-kjpaw_psl.1.0.0.UPF: wavefunction(s)  2S 2P renormalized
               file Cl.pbe-n-kjpaw_psl.1.0.0.UPF: wavefunction(s)  3S 3P renormalized
               file H.pbe-kjpaw_psl.1.0.0.UPF: wavefunction(s)  1S renormalized

     Subspace diagonalization in iterative solution of the eigenvalue problem:
     a serial algorithm will be used


     Parallelization info
     --------------------
     sticks:   dense  smooth     PW     G-vecs:    dense   smooth      PW
     Min       17054    6818   1788              2369046   599242   80964
     Max       17055    6819   1789              2369047   599245   80967
     Sum       34109   13637   3577              4738093  1198487  161931


     Title: 
     pcl2b-pbe-scf-kp-222-ec-30-default-conv-thr                                


     bravais-lattice index     =            0
     lattice parameter (alat)  =       1.8897  a.u.
     unit-cell volume          =   53986.6653 (a.u.)^3
     number of atoms/cell      =           12
     number of atomic types    =            3
     number of electrons       =        42.00
     number of Kohn-Sham states=           21
     kinetic-energy cutoff     =      30.0000  Ry
     charge density cutoff     =     300.0000  Ry
     convergence threshold     =      1.0E-06
     mixing beta               =       0.7000
     number of iterations used =            8  plain     mixing
     Exchange-correlation      =  SLA  PW   PBX  PBC ( 1  4  3  4 0 0)

     celldm(1)=   1.889726  celldm(2)=   0.000000  celldm(3)=   0.000000
     celldm(4)=   0.000000  celldm(5)=   0.000000  celldm(6)=   0.000000

     crystal axes: (cart. coord. in units of alat)
               a(1) = (  20.000000   0.000000   0.000000 )  
               a(2) = (   0.000000  20.000000   0.000000 )  
               a(3) = (   0.000000   0.000000  20.000000 )  

     reciprocal axes: (cart. coord. in units 2 pi/alat)
               b(1) = (  0.050000  0.000000  0.000000 )  
               b(2) = (  0.000000  0.050000  0.000000 )  
               b(3) = (  0.000000  0.000000  0.050000 )  


     PseudoPot. # 1 for  C read from file:
     /home/altoidnerd/.data/PSEUDOPOTENTIALS/C.pbe-n-kjpaw_psl.1.0.0.UPF
     MD5 check sum: 2ba8448e293caca687844dde9a1b88a8
     Pseudo is Projector augmented-wave + core cor, Zval =  4.0
     Generated using "atomic" code by A. Dal Corso  v.5.3.0 svn rev. 11974
     Shape of augmentation charge: PSQ
     Using radial grid of 1073 points,  4 beta functions with: 
                l(1) =   0
                l(2) =   0
                l(3) =   1
                l(4) =   1
     Q(r) pseudized with 0 coefficients 


     PseudoPot. # 2 for Cl read from file:
     /home/altoidnerd/.data/PSEUDOPOTENTIALS/Cl.pbe-n-kjpaw_psl.1.0.0.UPF
     MD5 check sum: dca63699d6b897c5771335df08a09219
     Pseudo is Projector augmented-wave + core cor, Zval =  7.0
     Generated using "atomic" code by A. Dal Corso  v.5.3.0 svn rev. 11974
     Shape of augmentation charge: PSQ
     Using radial grid of 1157 points,  6 beta functions with: 
                l(1) =   0
                l(2) =   0
                l(3) =   1
                l(4) =   1
                l(5) =   2
                l(6) =   2
     Q(r) pseudized with 0 coefficients 


     PseudoPot. # 3 for  H read from file:
     /home/altoidnerd/.data/PSEUDOPOTENTIALS/H.pbe-kjpaw_psl.1.0.0.UPF
     MD5 check sum: bc0feb48a24907a0b97fa6ee2d589a29
     Pseudo is Projector augmented-wave, Zval =  1.0
     Generated using "atomic" code by A. Dal Corso  v.5.3.0 svn rev. 11974
     Shape of augmentation charge: PSQ
     Using radial grid of  929 points,  2 beta functions with: 
                l(1) =   0
                l(2) =   0
     Q(r) pseudized with 0 coefficients 


     atomic species   valence    mass     pseudopotential
        C              4.00    12.01100      C( 1.00)
        Cl             7.00    35.45270     Cl( 1.00)
        H              1.00     1.00790      H( 1.00)

      2 Sym. Ops., with inversion, found


                                    s                        frac. trans.

      isym =  1     identity                                     

 cryst.   s( 1) = (     1          0          0      )
                  (     0          1          0      )
                  (     0          0          1      )

 cart.    s( 1) = (  1.0000000  0.0000000  0.0000000 )
                  (  0.0000000  1.0000000  0.0000000 )
                  (  0.0000000  0.0000000  1.0000000 )


      isym =  2     inversion                                    

 cryst.   s( 2) = (    -1          0          0      )
                  (     0         -1          0      )
                  (     0          0         -1      )

 cart.    s( 2) = ( -1.0000000  0.0000000  0.0000000 )
                  (  0.0000000 -1.0000000  0.0000000 )
                  (  0.0000000  0.0000000 -1.0000000 )


   Cartesian axes

     site n.     atom                  positions (alat units)
         1           C   tau(   1) = (  10.0059622   9.9824550   8.6203270  )
         2           C   tau(   2) = (  10.0031726  11.2058494   9.2875168  )
         3           C   tau(   3) = (   9.9972356  11.2238318  10.6811884  )
         4           C   tau(   4) = (   9.9940378  10.0175450  11.3796730  )
         5           C   tau(   5) = (   9.9968274   8.7941506  10.7124832  )
         6           C   tau(   6) = (  10.0027644   8.7761682   9.3188116  )
         7           H   tau(   7) = (  10.0106166  12.1412608   8.7310028  )
         8           H   tau(   8) = (  10.0007890  12.1745728  11.2111170  )
         9           H   tau(   9) = (   9.9893834   7.8587392  11.2689972  )
        10           H   tau(  10) = (   9.9992110   7.8254274   8.7888830  )
        11           Cl  tau(  11) = (  10.0130702   9.9595328   6.8754462  )
        12           Cl  tau(  12) = (   9.9869298  10.0404672  13.1245538  )

   Crystallographic axes

     site n.     atom                  positions (cryst. coord.)
         1           C   tau(   1) = (  0.5002981  0.4991228  0.4310163  )
         2           C   tau(   2) = (  0.5001586  0.5602925  0.4643758  )
         3           C   tau(   3) = (  0.4998618  0.5611916  0.5340594  )
         4           C   tau(   4) = (  0.4997019  0.5008773  0.5689836  )
         5           C   tau(   5) = (  0.4998414  0.4397075  0.5356242  )
         6           C   tau(   6) = (  0.5001382  0.4388084  0.4659406  )
         7           H   tau(   7) = (  0.5005308  0.6070630  0.4365501  )
         8           H   tau(   8) = (  0.5000395  0.6087286  0.5605558  )
         9           H   tau(   9) = (  0.4994692  0.3929370  0.5634499  )
        10           H   tau(  10) = (  0.4999606  0.3912714  0.4394442  )
        11           Cl  tau(  11) = (  0.5006535  0.4979766  0.3437723  )
        12           Cl  tau(  12) = (  0.4993465  0.5020234  0.6562277  )

     number of k points=     1
                       cart. coord. in units 2pi/alat
        k(    1) = (  -0.0250000  -0.0250000  -0.0250000), wk =   2.0000000

                       cryst. coord.
        k(    1) = (  -0.5000000  -0.5000000  -0.5000000), wk =   2.0000000

     Dense  grid:  4738093 G-vectors     FFT dimensions: ( 216, 216, 216)

     Smooth grid:  1198487 G-vectors     FFT dimensions: ( 135, 135, 135)

     Estimated max dynamical RAM per process >    1675.09Mb

     Estimated total allocated dynamical RAM >    3350.18Mb

     Initial potential from superposition of free atoms
     Check: negative starting charge=   -0.002186

     starting charge   41.99969, renormalised to   42.00000

     negative rho (up, down):  2.186E-03 0.000E+00
     Starting wfc are   36 randomized atomic wfcs
     Checking if some PAW data can be deallocated... 
       node    0, deallocated PAW data for type:  2
       node    0, deallocated PAW data for type:  3
       node    1, deallocated PAW data for type:  1

     total cpu time spent up to now is       30.9 secs

     per-process dynamical memory:  1043.7 Mb

     Self-consistent Calculation

     iteration #  1     ecut=    30.00 Ry     beta=0.70
     Davidson diagonalization with overlap
     ethr =  1.00E-02,  avg # of iterations =  2.0

     negative rho (up, down):  7.375E-04 0.000E+00

     total cpu time spent up to now is       79.4 secs

     total energy              =    -273.55895723 Ry
     Harris-Foulkes estimate   =    -274.45133988 Ry
     estimated scf accuracy    <       1.31287762 Ry

     iteration #  2     ecut=    30.00 Ry     beta=0.70
     Davidson diagonalization with overlap
     ethr =  3.13E-03,  avg # of iterations =  3.0

     negative rho (up, down):  9.663E-03 0.000E+00

     total cpu time spent up to now is      128.6 secs

     total energy              =    -273.78713277 Ry
     Harris-Foulkes estimate   =    -274.18567526 Ry
     estimated scf accuracy    <       0.69364550 Ry

     iteration #  3     ecut=    30.00 Ry     beta=0.70
     Davidson diagonalization with overlap
     ethr =  1.65E-03,  avg # of iterations =  3.0

     negative rho (up, down):  2.451E-03 0.000E+00

     total cpu time spent up to now is      177.0 secs

     total energy              =    -273.96666601 Ry
     Harris-Foulkes estimate   =    -273.98755606 Ry
     estimated scf accuracy    <       0.04025394 Ry

     iteration #  4     ecut=    30.00 Ry     beta=0.70
     Davidson diagonalization with overlap
     ethr =  9.58E-05,  avg # of iterations =  3.0

     negative rho (up, down):  1.743E-03 0.000E+00

     total cpu time spent up to now is      225.4 secs

     total energy              =    -273.97603684 Ry
     Harris-Foulkes estimate   =    -273.97921758 Ry
     estimated scf accuracy    <       0.00606431 Ry

     iteration #  5     ecut=    30.00 Ry     beta=0.70
     Davidson diagonalization with overlap
     ethr =  1.44E-05,  avg # of iterations =  3.0

     negative rho (up, down):  9.407E-04 0.000E+00

     total cpu time spent up to now is      273.4 secs

     total energy              =    -273.97745407 Ry
     Harris-Foulkes estimate   =    -273.97762001 Ry
     estimated scf accuracy    <       0.00034956 Ry

     iteration #  6     ecut=    30.00 Ry     beta=0.70
     Davidson diagonalization with overlap
     ethr =  8.32E-07,  avg # of iterations =  3.0

     negative rho (up, down):  9.157E-04 0.000E+00

     total cpu time spent up to now is      322.4 secs

     total energy              =    -273.97754584 Ry
     Harris-Foulkes estimate   =    -273.97755905 Ry
     estimated scf accuracy    <       0.00002656 Ry

     iteration #  7     ecut=    30.00 Ry     beta=0.70
     Davidson diagonalization with overlap
     ethr =  6.32E-08,  avg # of iterations =  3.0

     negative rho (up, down):  9.160E-04 0.000E+00

     total cpu time spent up to now is      370.1 secs

     End of self-consistent calculation

          k =-0.0250-0.0250-0.0250 (150056 PWs)   bands (ev):

   -22.7023 -21.9791 -20.6026 -19.1469 -17.9504 -15.6896 -14.9247 -13.0149
   -12.0432 -11.6550 -10.8572 -10.8424 -10.2174  -9.3062  -9.1525  -9.0262
    -7.6691  -7.6229  -7.4936  -6.8940  -5.9599

     occupation numbers 
     1.0000   1.0000   1.0000   1.0000   1.0000   1.0000   1.0000   1.0000
     1.0000   1.0000   1.0000   1.0000   1.0000   1.0000   1.0000   1.0000
     1.0000   1.0000   1.0000   1.0000   1.0000

     highest occupied level (ev):    -5.9599

!    total energy              =    -273.97755267 Ry
     Harris-Foulkes estimate   =    -273.97755308 Ry
     estimated scf accuracy    <       0.00000086 Ry

     total all-electron energy =     -2307.899297 Ry

     The total energy is the sum of the following terms:

     one-electron contribution =    -590.11899309 Ry
     hartree contribution      =     300.35244854 Ry
     xc contribution           =     -52.04109074 Ry
     ewald contribution        =     195.72185616 Ry
     one-center paw contrib.   =    -127.89177353 Ry

     convergence has been achieved in   7 iterations

     negative rho (up, down):  9.160E-04 0.000E+00

     Forces acting on atoms (Ry/au):

     atom    1 type  1   force =    -0.00011369   -0.00081699   -0.00713726
     atom    2 type  1   force =     0.00057681   -0.00294850    0.00418271
     atom    3 type  1   force =     0.00073277   -0.00334009   -0.00472517
     atom    4 type  1   force =     0.00011369    0.00081699    0.00713726
     atom    5 type  1   force =    -0.00057681    0.00294850   -0.00418271
     atom    6 type  1   force =    -0.00073277    0.00334009    0.00472517
     atom    7 type  3   force =    -0.00030559    0.00349557   -0.00437581
     atom    8 type  3   force =    -0.00041487    0.00332045    0.00475458
     atom    9 type  3   force =     0.00030559   -0.00349557    0.00437581
     atom   10 type  3   force =     0.00041487   -0.00332045   -0.00475458
     atom   11 type  2   force =     0.00001297    0.00004258   -0.00121931
     atom   12 type  2   force =    -0.00001297   -0.00004258    0.00121931
     The non-local contrib.  to forces
     atom    1 type  1   force =     0.00191718   -0.00754981   -0.48280617
     atom    2 type  1   force =     0.00004533   -0.04995598    0.00035060
     atom    3 type  1   force =     0.00011849   -0.04998170    0.00004351
     atom    4 type  1   force =    -0.00191718    0.00754981    0.48280617
     atom    5 type  1   force =    -0.00004533    0.04995598   -0.00035060
     atom    6 type  1   force =    -0.00011849    0.04998170   -0.00004351
     atom    7 type  3   force =    -0.00057396   -0.06873917    0.04095270
     atom    8 type  3   force =    -0.00029367   -0.06989195   -0.03896004
     atom    9 type  3   force =     0.00057396    0.06873917   -0.04095270
     atom   10 type  3   force =     0.00029367    0.06989195    0.03896004
     atom   11 type  2   force =    -0.00169262    0.00538809    0.40181107
     atom   12 type  2   force =     0.00169262   -0.00538809   -0.40181107
     The ionic contribution  to forces
     atom    1 type  1   force =     0.02014524   -0.05688502   -4.28027571
     atom    2 type  1   force =     0.00354322    6.93351411   -2.86685213
     atom    3 type  1   force =    -0.02114212    7.00175840    2.69284744
     atom    4 type  1   force =    -0.02014524    0.05688511    4.28027572
     atom    5 type  1   force =    -0.00354322   -6.93351410    2.86685219
     atom    6 type  1   force =     0.02114212   -7.00175794   -2.69284699
     atom    7 type  3   force =     0.01969604    3.20462383   -1.56494672
     atom    8 type  3   force =     0.00858533    3.24566339    1.47813570
     atom    9 type  3   force =    -0.01969604   -3.20462384    1.56494672
     atom   10 type  3   force =    -0.00858533   -3.24566396   -1.47813618
     atom   11 type  2   force =     0.05392228   -0.16981599  -12.90127758
     atom   12 type  2   force =    -0.05392228    0.16981601   12.90127754
     The local contribution  to forces
     atom    1 type  1   force =    -0.02205106    0.06324003    4.74343196
     atom    2 type  1   force =    -0.00299186   -6.88638458    2.87010013
     atom    3 type  1   force =     0.02169245   -6.95477830   -2.69670286
     atom    4 type  1   force =     0.02205106   -0.06324003   -4.74343196
     atom    5 type  1   force =     0.00299186    6.88638458   -2.87010013
     atom    6 type  1   force =    -0.02169245    6.95477830    2.69670286
     atom    7 type  3   force =    -0.01942695   -3.13239497    1.51957629
     atom    8 type  3   force =    -0.00870646   -3.17245616   -1.43437897
     atom    9 type  3   force =     0.01942695    3.13239497   -1.51957629
     atom   10 type  3   force =     0.00870646    3.17245570    1.43437929
     atom   11 type  2   force =    -0.05235425    0.16475633   12.51666140
     atom   12 type  2   force =     0.05235425   -0.16475633  -12.51666140
     The core correction contribution to forces
     atom    1 type  1   force =    -0.00012573    0.00037833    0.01260396
     atom    2 type  1   force =    -0.00001891   -0.00086194    0.00050278
     atom    3 type  1   force =     0.00006431   -0.00107636   -0.00081215
     atom    4 type  1   force =     0.00012573   -0.00037833   -0.01260396
     atom    5 type  1   force =     0.00001891    0.00086194   -0.00050278
     atom    6 type  1   force =    -0.00006431    0.00107636    0.00081215
     atom    7 type  3   force =     0.00000000    0.00000000    0.00000000
     atom    8 type  3   force =     0.00000000    0.00000000    0.00000000
     atom    9 type  3   force =     0.00000000    0.00000000    0.00000000
     atom   10 type  3   force =     0.00000000    0.00000000    0.00000000
     atom   11 type  2   force =     0.00013501   -0.00027507   -0.01765929
     atom   12 type  2   force =    -0.00013501    0.00027507    0.01765929
     The Hubbard contrib.    to forces
     atom    1 type  1   force =     0.00000000    0.00000000    0.00000000
     atom    2 type  1   force =     0.00000000    0.00000000    0.00000000
     atom    3 type  1   force =     0.00000000    0.00000000    0.00000000
     atom    4 type  1   force =     0.00000000    0.00000000    0.00000000
     atom    5 type  1   force =     0.00000000    0.00000000    0.00000000
     atom    6 type  1   force =     0.00000000    0.00000000    0.00000000
     atom    7 type  3   force =     0.00000000    0.00000000    0.00000000
     atom    8 type  3   force =     0.00000000    0.00000000    0.00000000
     atom    9 type  3   force =     0.00000000    0.00000000    0.00000000
     atom   10 type  3   force =     0.00000000    0.00000000    0.00000000
     atom   11 type  2   force =     0.00000000    0.00000000    0.00000000
     atom   12 type  2   force =     0.00000000    0.00000000    0.00000000
     The SCF correction term to forces
     atom    1 type  1   force =     0.00000069   -0.00000048   -0.00009130
     atom    2 type  1   force =    -0.00000097    0.00073990    0.00008136
     atom    3 type  1   force =    -0.00000036    0.00073810   -0.00010089
     atom    4 type  1   force =    -0.00000069    0.00000048    0.00009130
     atom    5 type  1   force =     0.00000097   -0.00073990   -0.00008136
     atom    6 type  1   force =     0.00000036   -0.00073810    0.00010089
     atom    7 type  3   force =    -0.00000072    0.00000588    0.00004193
     atom    8 type  3   force =    -0.00000007    0.00000467   -0.00004219
     atom    9 type  3   force =     0.00000072   -0.00000588   -0.00004193
     atom   10 type  3   force =     0.00000007   -0.00000467    0.00004219
     atom   11 type  2   force =     0.00000254   -0.00001078   -0.00075492
     atom   12 type  2   force =    -0.00000254    0.00001078    0.00075492

     Total force =     0.018916     Total SCF correction =     0.001839


     entering subroutine stress ...


     negative rho (up, down):  9.160E-04 0.000E+00
          total   stress  (Ry/bohr**3)                   (kbar)     P=   -0.60
  -0.00000512   0.00000000  -0.00000001         -0.75      0.00     -0.00
   0.00000000  -0.00000399   0.00000006          0.00     -0.59      0.01
  -0.00000001   0.00000006  -0.00000318         -0.00      0.01     -0.47

     kinetic stress (kbar)    143.97     -0.03      0.09
                               -0.03    131.30     -0.11
                                0.09     -0.11    122.34

     local   stress (kbar)    -91.52     -0.53      3.78
                               -0.53   -598.26     -5.27
                                3.78     -5.27  -1046.94

     nonloc. stress (kbar)     28.49      0.00     -0.01
                                0.00     30.20      0.00
                               -0.01      0.00     30.55

     hartree stress (kbar)     76.53      0.18     -1.54
                                0.18    270.15      2.33
                               -1.54      2.33    471.73

     exc-cor stress (kbar)     10.24      0.00     -0.00
                                0.00     11.12      0.00
                               -0.00      0.00     11.17

     corecor stress (kbar)    -45.27     -0.00      0.00
                               -0.00    -45.61      0.00
                                0.00      0.00    -45.31

     ewald   stress (kbar)   -123.20      0.38     -2.31
                                0.38    200.51      3.04
                               -2.31      3.04    456.00

     hubbard stress (kbar)      0.00      0.00      0.00
                                0.00      0.00      0.00
                                0.00      0.00      0.00

     london  stress (kbar)      0.00      0.00      0.00
                                0.00      0.00      0.00
                                0.00      0.00      0.00

     XDM     stress (kbar)      0.00      0.00      0.00
                                0.00      0.00      0.00
                                0.00      0.00      0.00

     dft-nl  stress (kbar)      0.00      0.00      0.00
                                0.00      0.00      0.00
                                0.00      0.00      0.00

     TS-vdW  stress (kbar)      0.00      0.00      0.00
                                0.00      0.00      0.00
                                0.00      0.00      0.00



     Writing output data file 001.save

     init_run     :     29.12s CPU     30.29s WALL (       1 calls)
     electrons    :    327.15s CPU    339.32s WALL (       1 calls)
     forces       :     34.99s CPU     36.01s WALL (       1 calls)
     stress       :     73.65s CPU     76.04s WALL (       1 calls)

     Called by init_run:
     wfcinit      :      4.86s CPU      4.91s WALL (       1 calls)
     wfcinit:atom :      0.04s CPU      0.05s WALL (       1 calls)
     wfcinit:wfcr :      4.60s CPU      4.64s WALL (       1 calls)
     potinit      :      5.58s CPU      5.74s WALL (       1 calls)

     Called by electrons:
     c_bands      :     59.00s CPU     59.16s WALL (       7 calls)
     sum_band     :    151.17s CPU    157.12s WALL (       7 calls)
     v_of_rho     :     28.30s CPU     28.87s WALL (       8 calls)
     v_h          :      2.77s CPU      2.79s WALL (       8 calls)
     v_xc         :     31.84s CPU     32.54s WALL (      10 calls)
     newd         :     93.97s CPU    100.20s WALL (       8 calls)
     PAW_pot      :      2.22s CPU      2.22s WALL (       8 calls)
     mix_rho      :      4.65s CPU      4.69s WALL (       7 calls)

     Called by c_bands:
     init_us_2    :      1.00s CPU      1.01s WALL (      15 calls)
     cegterg      :     57.45s CPU     57.61s WALL (       7 calls)

     Called by sum_band:
     sum_band:bec :      0.00s CPU      0.00s WALL (       7 calls)
     addusdens    :    134.17s CPU    140.04s WALL (       7 calls)

     Called by *egterg:
     h_psi        :     46.81s CPU     46.86s WALL (      28 calls)
     s_psi        :      5.79s CPU      5.79s WALL (      28 calls)
     g_psi        :      0.12s CPU      0.14s WALL (      20 calls)
     cdiaghg      :      0.01s CPU      0.02s WALL (      27 calls)
     cegterg:over :      3.75s CPU      3.74s WALL (      20 calls)
     cegterg:upda :      2.56s CPU      2.57s WALL (      20 calls)
     cegterg:last :      1.22s CPU      1.21s WALL (       7 calls)

     Called by h_psi:
     h_psi:pot    :     46.60s CPU     46.63s WALL (      28 calls)
     h_psi:calbec :      5.62s CPU      5.63s WALL (      28 calls)
     vloc_psi     :     35.16s CPU     35.18s WALL (      28 calls)
     add_vuspsi   :      5.82s CPU      5.82s WALL (      28 calls)

     General routines
     calbec       :      8.68s CPU      8.69s WALL (      40 calls)
     fft          :     40.49s CPU     40.99s WALL (     149 calls)
     ffts         :      0.96s CPU      0.96s WALL (      15 calls)
     fftw         :     32.99s CPU     32.96s WALL (    1069 calls)
     interpolate  :      5.56s CPU      5.64s WALL (      15 calls)
     davcio       :      0.00s CPU      0.01s WALL (       1 calls)

     Parallel routines
     fft_scatter  :     17.75s CPU     17.91s WALL (    1233 calls)

     PAW routines
     PAW_pot      :      2.22s CPU      2.22s WALL (       8 calls)
     PAW_symme    :      0.00s CPU      0.00s WALL (      15 calls)

     PWSCF        :  7m45.54s CPU     8m 2.64s WALL


   This run was terminated on:   9:28:58   1Apr2017            

=------------------------------------------------------------------------------=
   JOB DONE.
=------------------------------------------------------------------------------=
