
     Program PWSCF v.5.3.0 (svn rev. 11974) starts on 26May2016 at 11:38:47 

     This program is part of the open-source Quantum ESPRESSO suite
     for quantum simulation of materials; please cite
         "P. Giannozzi et al., J. Phys.:Condens. Matter 21 395502 (2009);
          URL http://www.quantum-espresso.org", 
     in publications or presentations arising from this work. More details at
     http://www.quantum-espresso.org/quote

     Parallel version (MPI), running on     8 processors
     R & G space division:  proc/nbgrp/npool/nimage =       8
     Waiting for input...
     Reading input from standard input
Warning: card    &IONS ignored
Warning: card TRUST_RADIUS_MAX=0.2 ignored
Warning: card / ignored
Warning: card     &CELL ignored
Warning: card CELL_DYNAMICS='BFGS' ignored
Warning: card / ignored

     Current dimensions of program PWSCF are:
     Max number of different atomic species (ntypx) = 10
     Max number of k-points (npk) =  40000
     Max angular momentum in pseudopotentials (lmaxx) =  3
               file N.pbe-n-kjpaw_psl.1.0.0.UPF: wavefunction(s)  2S renormalized
               file C.pbe-n-kjpaw_psl.1.0.0.UPF: wavefunction(s)  2S 2P renormalized
               file H.pbe-kjpaw_psl.1.0.0.UPF: wavefunction(s)  1S renormalized
               file O.pbe-n-kjpaw_psl.1.0.0.UPF: wavefunction(s)  2S 2P renormalized

     Subspace diagonalization in iterative solution of the eigenvalue problem:
     a serial algorithm will be used


     Parallelization info
     --------------------
     sticks:   dense  smooth     PW     G-vecs:    dense   smooth      PW
     Min        4540    1818    474               553572   140048   18747
     Max        4541    1819    475               553574   140075   18749
     Sum       36327   14551   3793              4428587  1120489  149983


     Title: 
     HMX-scf--kp-444-ec-180-default-conv-thr                                    


     bravais-lattice index     =            0
     lattice parameter (alat)  =       1.8897  a.u.
     unit-cell volume          =    3434.3216 (a.u.)^3
     number of atoms/cell      =           56
     number of atomic types    =            4
     number of electrons       =       224.00
     number of Kohn-Sham states=          112
     kinetic-energy cutoff     =     180.0000  Ry
     charge density cutoff     =    1800.0000  Ry
     convergence threshold     =      1.0E-06
     mixing beta               =       0.7000
     number of iterations used =            8  plain     mixing
     Exchange-correlation      =  SLA  PW   PBX  PBC ( 1  4  3  4 0 0)

     celldm(1)=   1.889726  celldm(2)=   0.000000  celldm(3)=   0.000000
     celldm(4)=   0.000000  celldm(5)=   0.000000  celldm(6)=   0.000000

     crystal axes: (cart. coord. in units of alat)
               a(1) = (   6.528800   0.000000   0.000000 )  
               a(2) = (   0.000000  10.886200   0.000000 )  
               a(3) = (  -1.569722   0.000000   7.160359 )  

     reciprocal axes: (cart. coord. in units 2 pi/alat)
               b(1) = (  0.153168 -0.000000  0.033578 )  
               b(2) = (  0.000000  0.091859 -0.000000 )  
               b(3) = (  0.000000  0.000000  0.139658 )  


     PseudoPot. # 1 for  N read from file:
     /users/majewski/.data/PSEUDOPOTENTIALS/N.pbe-n-kjpaw_psl.1.0.0.UPF
     MD5 check sum: c21df8f53e59d08c3548513d559cdda6
     Pseudo is Projector augmented-wave + core cor, Zval =  5.0
     Generated using "atomic" code by A. Dal Corso  v.5.3.0 svn rev. 11974
     Shape of augmentation charge: PSQ
     Using radial grid of 1085 points,  4 beta functions with: 
                l(1) =   0
                l(2) =   0
                l(3) =   1
                l(4) =   1
     Q(r) pseudized with 0 coefficients 


     PseudoPot. # 2 for  C read from file:
     /users/majewski/.data/PSEUDOPOTENTIALS/C.pbe-n-kjpaw_psl.1.0.0.UPF
     MD5 check sum: 2ba8448e293caca687844dde9a1b88a8
     Pseudo is Projector augmented-wave + core cor, Zval =  4.0
     Generated using "atomic" code by A. Dal Corso  v.5.3.0 svn rev. 11974
     Shape of augmentation charge: PSQ
     Using radial grid of 1073 points,  4 beta functions with: 
                l(1) =   0
                l(2) =   0
                l(3) =   1
                l(4) =   1
     Q(r) pseudized with 0 coefficients 


     PseudoPot. # 3 for  H read from file:
     /users/majewski/.data/PSEUDOPOTENTIALS/H.pbe-kjpaw_psl.1.0.0.UPF
     MD5 check sum: bc0feb48a24907a0b97fa6ee2d589a29
     Pseudo is Projector augmented-wave, Zval =  1.0
     Generated using "atomic" code by A. Dal Corso  v.5.3.0 svn rev. 11974
     Shape of augmentation charge: PSQ
     Using radial grid of  929 points,  2 beta functions with: 
                l(1) =   0
                l(2) =   0
     Q(r) pseudized with 0 coefficients 


     PseudoPot. # 4 for  O read from file:
     /users/majewski/.data/PSEUDOPOTENTIALS/O.pbe-n-kjpaw_psl.1.0.0.UPF
     MD5 check sum: 9c0ade6c043cf4a781bde3908a3a8206
     Pseudo is Projector augmented-wave + core cor, Zval =  6.0
     Generated using "atomic" code by A. Dal Corso  v.5.3.0 svn rev. 11974
     Shape of augmentation charge: PSQ
     Using radial grid of 1095 points,  4 beta functions with: 
                l(1) =   0
                l(2) =   0
                l(3) =   1
                l(4) =   1
     Q(r) pseudized with 0 coefficients 


     atomic species   valence    mass     pseudopotential
        N              5.00    14.00670      N( 1.00)
        C              4.00    12.01100      C( 1.00)
        H              1.00     1.00790      H( 1.00)
        O              6.00    15.99940      O( 1.00)

      4 Sym. Ops., with inversion, found ( 2 have fractional translation)


                                    s                        frac. trans.

      isym =  1     identity                                     

 cryst.   s( 1) = (     1          0          0      )
                  (     0          1          0      )
                  (     0          0          1      )

 cart.    s( 1) = (  1.0000000  0.0000000 -0.0000000 )
                  (  0.0000000  1.0000000  0.0000000 )
                  (  0.0000000  0.0000000  1.0000000 )


      isym =  2     180 deg rotation - cart. axis [0,1,0]        

 cryst.   s( 2) = (    -1          0          0      )    f =( -0.5000000 )
                  (     0          1          0      )       (  0.5000000 )
                  (     0          0         -1      )       (  0.5000000 )

 cart.    s( 2) = ( -1.0000000  0.0000000  0.0000000 )    f =( -4.0492611 )
                  (  0.0000000  1.0000000  0.0000000 )       (  5.4431000 )
                  (  0.0000000  0.0000000 -1.0000000 )       (  3.5801793 )


      isym =  3     inversion                                    

 cryst.   s( 3) = (    -1          0          0      )
                  (     0         -1          0      )
                  (     0          0         -1      )

 cart.    s( 3) = ( -1.0000000  0.0000000  0.0000000 )
                  (  0.0000000 -1.0000000  0.0000000 )
                  (  0.0000000  0.0000000 -1.0000000 )


      isym =  4     inv. 180 deg rotation - cart. axis [0,1,0]   

 cryst.   s( 4) = (     1          0          0      )    f =(  0.5000000 )
                  (     0         -1          0      )       (  0.5000000 )
                  (     0          0          1      )       (  0.5000000 )

 cart.    s( 4) = (  1.0000000  0.0000000 -0.0000000 )    f =(  2.4795389 )
                  (  0.0000000 -1.0000000  0.0000000 )       (  5.4431000 )
                  (  0.0000000  0.0000000  1.0000000 )       (  3.5801793 )


   Cartesian axes

     site n.     atom                  positions (alat units)
         1           N   tau(   1) = (  -0.8426245   6.7855862   3.2921181  )
         2           O   tau(   2) = (   1.0977498   7.8431805   3.1142548  )
         3           N   tau(   3) = (   0.0878624   7.6610544   3.7918395  )
         4           N   tau(   4) = (  -2.0432575   5.7306045   5.0613711  )
         5           O   tau(   5) = (  -3.2412146   4.6709418   6.6135221  )
         6           N   tau(   6) = (  -3.2299512   5.4696623   5.6821026  )
         7           O   tau(   7) = (  -0.1459332   8.1504979   4.8880905  )
         8           C   tau(   8) = (  -2.1183376   6.7096005   3.9540933  )
         9           H   tau(   9) = (  -2.8150805   6.4315670   3.3080857  )
        10           H   tau(  10) = (  -2.3643338   7.5996562   4.3105359  )
        11           O   tau(  11) = (  -4.2038894   6.1117304   5.2775424  )
        12           C   tau(  12) = (  -0.5824458   6.1523359   2.0058313  )
        13           H   tau(  13) = (  -1.4089366   5.7337615   1.7184861  )
        14           H   tau(  14) = (  -0.3166458   6.7940774   1.3282465  )
        15           H   tau(  15) = (   3.7326153  -1.3509774  -2.2519328  )
        16           H   tau(  16) = (   2.6403245  -0.2906615  -1.8616933  )
        17           C   tau(  17) = (   3.4668152  -0.7092359  -1.5743481  )
        18           O   tau(  18) = (  -0.1546283  -0.6686304   1.6973630  )
        19           H   tau(  19) = (   1.6849272  -2.1565562   0.7303566  )
        20           H   tau(  20) = (   1.2341806  -0.9884670  -0.2720936  )
        21           C   tau(  21) = (   1.9309234  -1.2665005   0.3739139  )
        22           O   tau(  22) = (   3.9033278  -2.7073979   1.3079111  )
        23           N   tau(  23) = (   0.8193099  -0.0265623   2.1019233  )
        24           O   tau(  24) = (   0.8080465   0.7721582   3.0333428  )
        25           N   tau(  25) = (   2.0060036  -0.2875045   1.4811918  )
        26           N   tau(  26) = (   4.1371235  -2.2179544   0.2116602  )
        27           O   tau(  27) = (   5.1470109  -2.4000805  -0.4659245  )
        28           N   tau(  28) = (   3.2066365  -1.3424862  -0.2880612  )
        29           H   tau(  29) = (  -1.2530763   4.0921226   5.8321122  )
        30           H   tau(  30) = (  -0.1607855   5.1524385   5.4418726  )
        31           C   tau(  31) = (  -0.9872763   4.7338641   5.1545274  )
        32           O   tau(  32) = (   2.6341672   4.7744696   1.8828163  )
        33           H   tau(  33) = (   0.7946117   3.2865438   2.8498228  )
        34           H   tau(  34) = (   1.2453584   4.4546330   3.8522730  )
        35           C   tau(  35) = (   0.5486155   4.1765995   3.2062654  )
        36           O   tau(  36) = (  -1.4237889   2.7357021   2.2722682  )
        37           N   tau(  37) = (   1.6602291   5.4165377   1.4782561  )
        38           O   tau(  38) = (   1.6714925   6.2152582   0.5468366  )
        39           N   tau(  39) = (   0.4735353   5.1555955   2.0989875  )
        40           N   tau(  40) = (  -1.6575845   3.2251456   3.3685191  )
        41           O   tau(  41) = (  -2.6674719   3.0430195   4.0461039  )
        42           N   tau(  42) = (  -0.7270976   4.1006138   3.8682406  )
        43           H   tau(  43) = (   2.7961847   1.3509774   2.2519328  )
        44           H   tau(  44) = (   3.8884755   0.2906615   1.8616933  )
        45           C   tau(  45) = (   3.0619848   0.7092359   1.5743481  )
        46           O   tau(  46) = (   6.6834283   0.6686304  -1.6973630  )
        47           H   tau(  47) = (   4.8438728   2.1565562  -0.7303566  )
        48           H   tau(  48) = (   5.2946194   0.9884670   0.2720936  )
        49           C   tau(  49) = (   4.5978766   1.2665005  -0.3739139  )
        50           O   tau(  50) = (   2.6254722   2.7073979  -1.3079111  )
        51           N   tau(  51) = (   5.7094901   0.0265623  -2.1019233  )
        52           O   tau(  52) = (   5.7207535  -0.7721582  -3.0333428  )
        53           N   tau(  53) = (   4.5227964   0.2875045  -1.4811918  )
        54           N   tau(  54) = (   2.3916765   2.2179544  -0.2116602  )
        55           O   tau(  55) = (   1.3817891   2.4000805   0.4659245  )
        56           N   tau(  56) = (   3.3221635   1.3424862   0.2880612  )

   Crystallographic axes

     site n.     atom                  positions (cryst. coord.)
         1           N   tau(   1) = ( -0.0185200  0.6233200  0.4597700  )
         2           O   tau(   2) = (  0.2727100  0.7204700  0.4349300  )
         3           N   tau(   3) = (  0.1407800  0.7037400  0.5295600  )
         4           N   tau(   4) = ( -0.1430100  0.5264100  0.7068600  )
         5           O   tau(   5) = ( -0.2743800  0.4290700  0.9236300  )
         6           N   tau(   6) = ( -0.3039300  0.5024400  0.7935500  )
         7           O   tau(   7) = (  0.1417800  0.7487000  0.6826600  )
         8           C   tau(   8) = ( -0.1916900  0.6163400  0.5522200  )
         9           H   tau(   9) = ( -0.3201000  0.5908000  0.4620000  )
        10           H   tau(  10) = ( -0.2174000  0.6981000  0.6020000  )
        11           O   tau(  11) = ( -0.4666900  0.5614200  0.7370500  )
        12           C   tau(  12) = ( -0.0218600  0.5651500  0.2801300  )
        13           H   tau(  13) = ( -0.1581000  0.5267000  0.2400000  )
        14           H   tau(  14) = ( -0.0039000  0.6241000  0.1855000  )
        15           H   tau(  15) = (  0.4961000 -0.1241000 -0.3145000  )
        16           H   tau(  16) = (  0.3419000 -0.0267000 -0.2600000  )
        17           C   tau(  17) = (  0.4781400 -0.0651500 -0.2198700  )
        18           O   tau(  18) = (  0.0333100 -0.0614200  0.2370500  )
        19           H   tau(  19) = (  0.2826000 -0.1981000  0.1020000  )
        20           H   tau(  20) = (  0.1799000 -0.0908000 -0.0380000  )
        21           C   tau(  21) = (  0.3083100 -0.1163400  0.0522200  )
        22           O   tau(  22) = (  0.6417800 -0.2487000  0.1826600  )
        23           N   tau(  23) = (  0.1960700 -0.0024400  0.2935500  )
        24           O   tau(  24) = (  0.2256200  0.0709300  0.4236300  )
        25           N   tau(  25) = (  0.3569900 -0.0264100  0.2068600  )
        26           N   tau(  26) = (  0.6407800 -0.2037400  0.0295600  )
        27           O   tau(  27) = (  0.7727100 -0.2204700 -0.0650700  )
        28           N   tau(  28) = (  0.4814800 -0.1233200 -0.0402300  )
        29           H   tau(  29) = (  0.0039000  0.3759000  0.8145000  )
        30           H   tau(  30) = (  0.1581000  0.4733000  0.7600000  )
        31           C   tau(  31) = (  0.0218600  0.4348500  0.7198700  )
        32           O   tau(  32) = (  0.4666900  0.4385800  0.2629500  )
        33           H   tau(  33) = (  0.2174000  0.3019000  0.3980000  )
        34           H   tau(  34) = (  0.3201000  0.4092000  0.5380000  )
        35           C   tau(  35) = (  0.1916900  0.3836600  0.4477800  )
        36           O   tau(  36) = ( -0.1417800  0.2513000  0.3173400  )
        37           N   tau(  37) = (  0.3039300  0.4975600  0.2064500  )
        38           O   tau(  38) = (  0.2743800  0.5709300  0.0763700  )
        39           N   tau(  39) = (  0.1430100  0.4735900  0.2931400  )
        40           N   tau(  40) = ( -0.1407800  0.2962600  0.4704400  )
        41           O   tau(  41) = ( -0.2727100  0.2795300  0.5650700  )
        42           N   tau(  42) = (  0.0185200  0.3766800  0.5402300  )
        43           H   tau(  43) = (  0.5039000  0.1241000  0.3145000  )
        44           H   tau(  44) = (  0.6581000  0.0267000  0.2600000  )
        45           C   tau(  45) = (  0.5218600  0.0651500  0.2198700  )
        46           O   tau(  46) = (  0.9666900  0.0614200 -0.2370500  )
        47           H   tau(  47) = (  0.7174000  0.1981000 -0.1020000  )
        48           H   tau(  48) = (  0.8201000  0.0908000  0.0380000  )
        49           C   tau(  49) = (  0.6916900  0.1163400 -0.0522200  )
        50           O   tau(  50) = (  0.3582200  0.2487000 -0.1826600  )
        51           N   tau(  51) = (  0.8039300  0.0024400 -0.2935500  )
        52           O   tau(  52) = (  0.7743800 -0.0709300 -0.4236300  )
        53           N   tau(  53) = (  0.6430100  0.0264100 -0.2068600  )
        54           N   tau(  54) = (  0.3592200  0.2037400 -0.0295600  )
        55           O   tau(  55) = (  0.2272900  0.2204700  0.0650700  )
        56           N   tau(  56) = (  0.5185200  0.1233200  0.0402300  )

     number of k points=    16
                       cart. coord. in units 2pi/alat
        k(    1) = (   0.0191459   0.0114824   0.0216545), wk =   0.1250000
        k(    2) = (   0.0191459   0.0114824   0.0565689), wk =   0.1250000
        k(    3) = (   0.0191459   0.0114824  -0.0481744), wk =   0.1250000
        k(    4) = (   0.0191459   0.0114824  -0.0132600), wk =   0.1250000
        k(    5) = (   0.0191459   0.0344473   0.0216545), wk =   0.1250000
        k(    6) = (   0.0191459   0.0344473   0.0565689), wk =   0.1250000
        k(    7) = (   0.0191459   0.0344473  -0.0481744), wk =   0.1250000
        k(    8) = (   0.0191459   0.0344473  -0.0132600), wk =   0.1250000
        k(    9) = (   0.0574378   0.0114824   0.0300490), wk =   0.1250000
        k(   10) = (   0.0574378   0.0114824   0.0649634), wk =   0.1250000
        k(   11) = (   0.0574378   0.0114824  -0.0397799), wk =   0.1250000
        k(   12) = (   0.0574378   0.0114824  -0.0048655), wk =   0.1250000
        k(   13) = (   0.0574378   0.0344473   0.0300490), wk =   0.1250000
        k(   14) = (   0.0574378   0.0344473   0.0649634), wk =   0.1250000
        k(   15) = (   0.0574378   0.0344473  -0.0397799), wk =   0.1250000
        k(   16) = (   0.0574378   0.0344473  -0.0048655), wk =   0.1250000

                       cryst. coord.
        k(    1) = (   0.1250000   0.1250000   0.1250000), wk =   0.1250000
        k(    2) = (   0.1250000   0.1250000   0.3750000), wk =   0.1250000
        k(    3) = (   0.1250000   0.1250000  -0.3750000), wk =   0.1250000
        k(    4) = (   0.1250000   0.1250000  -0.1250000), wk =   0.1250000
        k(    5) = (   0.1250000   0.3750000   0.1250000), wk =   0.1250000
        k(    6) = (   0.1250000   0.3750000   0.3750000), wk =   0.1250000
        k(    7) = (   0.1250000   0.3750000  -0.3750000), wk =   0.1250000
        k(    8) = (   0.1250000   0.3750000  -0.1250000), wk =   0.1250000
        k(    9) = (   0.3750000   0.1250000   0.1250000), wk =   0.1250000
        k(   10) = (   0.3750000   0.1250000   0.3750000), wk =   0.1250000
        k(   11) = (   0.3750000   0.1250000  -0.3750000), wk =   0.1250000
        k(   12) = (   0.3750000   0.1250000  -0.1250000), wk =   0.1250000
        k(   13) = (   0.3750000   0.3750000   0.1250000), wk =   0.1250000
        k(   14) = (   0.3750000   0.3750000   0.3750000), wk =   0.1250000
        k(   15) = (   0.3750000   0.3750000  -0.3750000), wk =   0.1250000
        k(   16) = (   0.3750000   0.3750000  -0.1250000), wk =   0.1250000

     Dense  grid:  4428587 G-vectors     FFT dimensions: ( 180, 288, 192)

     Smooth grid:  1120489 G-vectors     FFT dimensions: ( 108, 180, 120)

     Largest allocated arrays     est. size (Mb)     dimensions
        Kohn-Sham Wavefunctions        29.96 Mb     (   17531,  112)
        NL pseudopotentials            94.16 Mb     (   17531,  352)
        Each V/rho on FFT grid         18.98 Mb     ( 1244160)
        Each G-vector array             4.22 Mb     (  553574)
        G-vector shells                 3.88 Mb     (  508076)
     Largest temporary arrays     est. size (Mb)     dimensions
        Auxiliary wavefunctions       119.84 Mb     (   17531,  448)
        Each subspace H/S matrix        3.06 Mb     (     448,  448)
        Each <psi_i|beta_j> matrix      0.60 Mb     (     352,  112)
        Arrays for rho mixing         151.88 Mb     ( 1244160,    8)

     Initial potential from superposition of free atoms

     starting charge  223.99937, renormalised to  224.00000
     Starting wfc are  176 randomized atomic wfcs
     Checking if some PAW data can be deallocated... 
       node    0, deallocated PAW data for type:  2
       node    0, deallocated PAW data for type:  3
       node    1, deallocated PAW data for type:  1
       node    2, deallocated PAW data for type:  1
       node    3, deallocated PAW data for type:  2
       node    3, deallocated PAW data for type:  3
       node    4, deallocated PAW data for type:  1
       node    5, deallocated PAW data for type:  2
       node    5, deallocated PAW data for type:  3
       node    6, deallocated PAW data for type:  1
       node    7, deallocated PAW data for type:  2
       node    7, deallocated PAW data for type:  3

     total cpu time spent up to now is     1145.0 secs

     per-process dynamical memory:   879.6 Mb

     Self-consistent Calculation

     iteration #  1     ecut=   180.00 Ry     beta=0.70
     Davidson diagonalization with overlap
     ethr =  1.00E-02,  avg # of iterations =  3.0

     total cpu time spent up to now is     4045.4 secs

     total energy              =   -1279.68582984 Ry
     Harris-Foulkes estimate   =   -1283.98327078 Ry
     estimated scf accuracy    <       6.62018838 Ry

     iteration #  2     ecut=   180.00 Ry     beta=0.70
     Davidson diagonalization with overlap
     ethr =  2.96E-03,  avg # of iterations =  4.0

     total cpu time spent up to now is     7293.7 secs

     total energy              =   -1280.32972816 Ry
     Harris-Foulkes estimate   =   -1283.85262057 Ry
     estimated scf accuracy    <       7.14032147 Ry

     iteration #  3     ecut=   180.00 Ry     beta=0.70
     Davidson diagonalization with overlap
     ethr =  2.96E-03,  avg # of iterations =  4.6

     total cpu time spent up to now is     9674.8 secs

     total energy              =   -1281.85217979 Ry
     Harris-Foulkes estimate   =   -1282.09250364 Ry
     estimated scf accuracy    <       0.44632885 Ry

     iteration #  4     ecut=   180.00 Ry     beta=0.70
     Davidson diagonalization with overlap
     ethr =  1.99E-04,  avg # of iterations =  4.9

     total cpu time spent up to now is    12701.0 secs

     total energy              =   -1282.00022735 Ry
     Harris-Foulkes estimate   =   -1282.09542772 Ry
     estimated scf accuracy    <       0.21386852 Ry

     iteration #  5     ecut=   180.00 Ry     beta=0.70
     Davidson diagonalization with overlap
     ethr =  9.55E-05,  avg # of iterations =  4.1

     total cpu time spent up to now is    15238.3 secs

     total energy              =   -1282.04302864 Ry
     Harris-Foulkes estimate   =   -1282.05239623 Ry
     estimated scf accuracy    <       0.02298286 Ry

     iteration #  6     ecut=   180.00 Ry     beta=0.70
     Davidson diagonalization with overlap
     ethr =  1.03E-05,  avg # of iterations =  6.9

     total cpu time spent up to now is    17763.5 secs

     total energy              =   -1282.04638958 Ry
     Harris-Foulkes estimate   =   -1282.04798814 Ry
     estimated scf accuracy    <       0.00367892 Ry

     iteration #  7     ecut=   180.00 Ry     beta=0.70
     Davidson diagonalization with overlap
     ethr =  1.64E-06,  avg # of iterations =  4.6

     total cpu time spent up to now is    21214.1 secs

     total energy              =   -1282.04825512 Ry
     Harris-Foulkes estimate   =   -1282.04876205 Ry
     estimated scf accuracy    <       0.00126397 Ry

     iteration #  8     ecut=   180.00 Ry     beta=0.70
     Davidson diagonalization with overlap
     ethr =  5.64E-07,  avg # of iterations =  5.9

     total cpu time spent up to now is    23948.9 secs

     total energy              =   -1282.04830634 Ry
     Harris-Foulkes estimate   =   -1282.04837920 Ry
     estimated scf accuracy    <       0.00021263 Ry

     iteration #  9     ecut=   180.00 Ry     beta=0.70
     Davidson diagonalization with overlap
     ethr =  9.49E-08,  avg # of iterations =  4.9

     total cpu time spent up to now is    27828.1 secs

     total energy              =   -1282.04844847 Ry
     Harris-Foulkes estimate   =   -1282.04863800 Ry
     estimated scf accuracy    <       0.00055902 Ry

     iteration # 10     ecut=   180.00 Ry     beta=0.70
     Davidson diagonalization with overlap
     ethr =  9.49E-08,  avg # of iterations =  6.7

     total cpu time spent up to now is    31271.6 secs

     total energy              =   -1282.04852454 Ry
     Harris-Foulkes estimate   =   -1282.04852656 Ry
     estimated scf accuracy    <       0.00000579 Ry

     iteration # 11     ecut=   180.00 Ry     beta=0.70
     Davidson diagonalization with overlap
     ethr =  2.58E-09,  avg # of iterations =  4.2

     total cpu time spent up to now is    35580.4 secs

     total energy              =   -1282.04852917 Ry
     Harris-Foulkes estimate   =   -1282.04853001 Ry
     estimated scf accuracy    <       0.00000216 Ry

     iteration # 12     ecut=   180.00 Ry     beta=0.70
     Davidson diagonalization with overlap
     ethr =  9.64E-10,  avg # of iterations =  4.3

     total cpu time spent up to now is    38816.1 secs

     End of self-consistent calculation

          k = 0.0191 0.0115 0.0217 (140087 PWs)   bands (ev):

   -23.8372 -23.8136 -23.8026 -23.7927 -23.5099 -23.4991 -23.4982 -23.4960
   -19.0560 -19.0504 -19.0435 -19.0305 -18.7217 -18.7210 -18.7178 -18.7163
   -18.1504 -18.1221 -17.1199 -17.0657 -16.9749 -16.9713 -15.9594 -15.9461
   -12.0091 -11.9855 -11.9764 -11.8822 -11.8189 -11.7404 -11.6626 -11.6412
    -8.8013  -8.7605  -8.1765  -8.1377  -7.4639  -7.4171  -7.3390  -7.3339
    -6.7701  -6.6646  -6.5210  -6.4221  -6.4030  -6.3234  -6.2697  -6.1789
    -6.0417  -6.0072  -5.9848  -5.8499  -5.8053  -5.7257  -5.6538  -5.6147
    -5.5578  -5.5346  -5.4601  -5.4138  -5.0597  -4.9422  -4.8440  -4.8323
    -4.3596  -4.3489  -4.3205  -4.2739  -4.1285  -4.0186  -3.7881  -3.7757
    -3.6048  -3.4670  -3.4063  -3.3624  -3.0751  -3.0353  -2.9423  -2.9227
    -0.7160  -0.7132  -0.2386  -0.2324  -0.1302  -0.0832  -0.0195   0.0059
     0.0652   0.0927   0.2462   0.2824   0.2998   0.3319   0.4563   0.4690
     0.5103   0.5374   0.7090   0.7689   0.8535   0.9046   0.9576   0.9722
     1.0131   1.1123   1.1422   1.2040   1.2777   1.4228   1.4400   1.4639

     occupation numbers 
     1.0000   1.0000   1.0000   1.0000   1.0000   1.0000   1.0000   1.0000
     1.0000   1.0000   1.0000   1.0000   1.0000   1.0000   1.0000   1.0000
     1.0000   1.0000   1.0000   1.0000   1.0000   1.0000   1.0000   1.0000
     1.0000   1.0000   1.0000   1.0000   1.0000   1.0000   1.0000   1.0000
     1.0000   1.0000   1.0000   1.0000   1.0000   1.0000   1.0000   1.0000
     1.0000   1.0000   1.0000   1.0000   1.0000   1.0000   1.0000   1.0000
     1.0000   1.0000   1.0000   1.0000   1.0000   1.0000   1.0000   1.0000
     1.0000   1.0000   1.0000   1.0000   1.0000   1.0000   1.0000   1.0000
     1.0000   1.0000   1.0000   1.0000   1.0000   1.0000   1.0000   1.0000
     1.0000   1.0000   1.0000   1.0000   1.0000   1.0000   1.0000   1.0000
     1.0000   1.0000   1.0000   1.0000   1.0000   1.0000   1.0000   1.0000
     1.0000   1.0000   1.0000   1.0000   1.0000   1.0000   1.0000   1.0000
     1.0000   1.0000   1.0000   1.0000   1.0000   1.0000   1.0000   1.0000
     1.0000   1.0000   1.0000   1.0000   1.0000   1.0000   1.0000   1.0000

          k = 0.0191 0.0115 0.0566 (140043 PWs)   bands (ev):

   -23.8289 -23.8195 -23.7988 -23.7977 -23.5103 -23.5066 -23.4958 -23.4917
   -19.0545 -19.0494 -19.0443 -19.0339 -18.7278 -18.7270 -18.7125 -18.7102
   -18.1379 -18.1373 -17.0936 -17.0911 -16.9701 -16.9671 -15.9550 -15.9527
   -11.9943 -11.9862 -11.9531 -11.9297 -11.7767 -11.7610 -11.6717 -11.6603
    -8.7818  -8.7441  -8.1589  -8.1320  -7.4751  -7.4205  -7.3180  -7.2322
    -6.8197  -6.6923  -6.5058  -6.4603  -6.4516  -6.3426  -6.2934  -6.2553
    -6.0966  -6.0688  -5.8633  -5.8123  -5.7894  -5.7367  -5.7069  -5.6625
    -5.6125  -5.5549  -5.3797  -5.3302  -5.0634  -4.9832  -4.8389  -4.8008
    -4.3203  -4.3118  -4.2533  -4.1830  -4.0523  -4.0190  -3.9018  -3.8996
    -3.5790  -3.5171  -3.3454  -3.3333  -3.1015  -3.0975  -2.9237  -2.8974
    -0.6794  -0.6492  -0.2522  -0.2396  -0.1413  -0.1092  -0.0541  -0.0287
     0.0029   0.0421   0.1566   0.2189   0.3158   0.3721   0.4249   0.4383
     0.6209   0.6819   0.7353   0.7748   0.8613   0.8767   0.9163   0.9725
     1.0649   1.1106   1.1833   1.2050   1.2939   1.3730   1.4421   1.4680

     occupation numbers 
     1.0000   1.0000   1.0000   1.0000   1.0000   1.0000   1.0000   1.0000
     1.0000   1.0000   1.0000   1.0000   1.0000   1.0000   1.0000   1.0000
     1.0000   1.0000   1.0000   1.0000   1.0000   1.0000   1.0000   1.0000
     1.0000   1.0000   1.0000   1.0000   1.0000   1.0000   1.0000   1.0000
     1.0000   1.0000   1.0000   1.0000   1.0000   1.0000   1.0000   1.0000
     1.0000   1.0000   1.0000   1.0000   1.0000   1.0000   1.0000   1.0000
     1.0000   1.0000   1.0000   1.0000   1.0000   1.0000   1.0000   1.0000
     1.0000   1.0000   1.0000   1.0000   1.0000   1.0000   1.0000   1.0000
     1.0000   1.0000   1.0000   1.0000   1.0000   1.0000   1.0000   1.0000
     1.0000   1.0000   1.0000   1.0000   1.0000   1.0000   1.0000   1.0000
     1.0000   1.0000   1.0000   1.0000   1.0000   1.0000   1.0000   1.0000
     1.0000   1.0000   1.0000   1.0000   1.0000   1.0000   1.0000   1.0000
     1.0000   1.0000   1.0000   1.0000   1.0000   1.0000   1.0000   1.0000
     1.0000   1.0000   1.0000   1.0000   1.0000   1.0000   1.0000   1.0000

          k = 0.0191 0.0115-0.0482 (140064 PWs)   bands (ev):

   -23.8300 -23.8188 -23.8026 -23.7934 -23.5118 -23.5085 -23.4928 -23.4914
   -19.0516 -19.0505 -19.0403 -19.0399 -18.7289 -18.7286 -18.7108 -18.7089
   -18.1505 -18.1232 -17.1173 -17.0667 -16.9724 -16.9716 -15.9586 -15.9419
   -12.0191 -11.9854 -11.9732 -11.8969 -11.7999 -11.7314 -11.6715 -11.6632
    -8.7908  -8.7034  -8.1457  -8.1411  -7.4698  -7.4527  -7.3269  -7.2068
    -6.8334  -6.7163  -6.5011  -6.4628  -6.4181  -6.3908  -6.3015  -6.2682
    -6.1236  -6.0906  -5.8609  -5.8288  -5.7394  -5.7008  -5.6865  -5.6697
    -5.6108  -5.5387  -5.3847  -5.3259  -5.0592  -4.9814  -4.8265  -4.7928
    -4.3515  -4.2763  -4.2450  -4.1797  -4.0793  -4.0498  -3.9126  -3.8503
    -3.5769  -3.5259  -3.3993  -3.3119  -3.1109  -3.0821  -2.9200  -2.9041
    -0.6102  -0.5508  -0.2407  -0.2298  -0.2082  -0.1713  -0.0919  -0.0754
    -0.0095  -0.0027   0.1251   0.2127   0.3336   0.3750   0.3799   0.4303
     0.6615   0.7462   0.7720   0.7857   0.8351   0.9270   0.9282   0.9539
     1.0637   1.1177   1.1886   1.2455   1.3029   1.3343   1.4306   1.4536

     occupation numbers 
     1.0000   1.0000   1.0000   1.0000   1.0000   1.0000   1.0000   1.0000
     1.0000   1.0000   1.0000   1.0000   1.0000   1.0000   1.0000   1.0000
     1.0000   1.0000   1.0000   1.0000   1.0000   1.0000   1.0000   1.0000
     1.0000   1.0000   1.0000   1.0000   1.0000   1.0000   1.0000   1.0000
     1.0000   1.0000   1.0000   1.0000   1.0000   1.0000   1.0000   1.0000
     1.0000   1.0000   1.0000   1.0000   1.0000   1.0000   1.0000   1.0000
     1.0000   1.0000   1.0000   1.0000   1.0000   1.0000   1.0000   1.0000
     1.0000   1.0000   1.0000   1.0000   1.0000   1.0000   1.0000   1.0000
     1.0000   1.0000   1.0000   1.0000   1.0000   1.0000   1.0000   1.0000
     1.0000   1.0000   1.0000   1.0000   1.0000   1.0000   1.0000   1.0000
     1.0000   1.0000   1.0000   1.0000   1.0000   1.0000   1.0000   1.0000
     1.0000   1.0000   1.0000   1.0000   1.0000   1.0000   1.0000   1.0000
     1.0000   1.0000   1.0000   1.0000   1.0000   1.0000   1.0000   1.0000
     1.0000   1.0000   1.0000   1.0000   1.0000   1.0000   1.0000   1.0000

          k = 0.0191 0.0115-0.0133 (140053 PWs)   bands (ev):

   -23.8377 -23.8138 -23.8037 -23.7909 -23.5120 -23.5027 -23.4948 -23.4936
   -19.0547 -19.0490 -19.0437 -19.0332 -18.7248 -18.7246 -18.7136 -18.7135
   -18.1552 -18.1158 -17.1296 -17.0553 -16.9776 -16.9754 -15.9598 -15.9386
   -12.0325 -11.9907 -11.9724 -11.8748 -11.8195 -11.7286 -11.6618 -11.6435
    -8.8124  -8.7177  -8.1692  -8.1412  -7.4694  -7.4431  -7.3712  -7.2833
    -6.7391  -6.7250  -6.5148  -6.4135  -6.4085  -6.3657  -6.2714  -6.1993
    -6.0942  -6.0440  -5.9051  -5.8534  -5.7692  -5.7260  -5.6369  -5.6061
    -5.5700  -5.5219  -5.4304  -5.4224  -5.0260  -4.9787  -4.8344  -4.8081
    -4.3606  -4.3456  -4.3142  -4.2898  -4.1412  -4.0252  -3.7987  -3.7368
    -3.6273  -3.4790  -3.4186  -3.3591  -3.0839  -3.0283  -2.9338  -2.9319
    -0.6663  -0.6443  -0.2271  -0.2207  -0.1331  -0.1025  -0.0323  -0.0123
     0.0033   0.0426   0.1462   0.2131   0.2656   0.3493   0.3974   0.4693
     0.6322   0.6723   0.7084   0.7894   0.8479   0.9078   0.9685   0.9862
     1.0176   1.0901   1.1668   1.2298   1.2716   1.4032   1.4254   1.4547

     occupation numbers 
     1.0000   1.0000   1.0000   1.0000   1.0000   1.0000   1.0000   1.0000
     1.0000   1.0000   1.0000   1.0000   1.0000   1.0000   1.0000   1.0000
     1.0000   1.0000   1.0000   1.0000   1.0000   1.0000   1.0000   1.0000
     1.0000   1.0000   1.0000   1.0000   1.0000   1.0000   1.0000   1.0000
     1.0000   1.0000   1.0000   1.0000   1.0000   1.0000   1.0000   1.0000
     1.0000   1.0000   1.0000   1.0000   1.0000   1.0000   1.0000   1.0000
     1.0000   1.0000   1.0000   1.0000   1.0000   1.0000   1.0000   1.0000
     1.0000   1.0000   1.0000   1.0000   1.0000   1.0000   1.0000   1.0000
     1.0000   1.0000   1.0000   1.0000   1.0000   1.0000   1.0000   1.0000
     1.0000   1.0000   1.0000   1.0000   1.0000   1.0000   1.0000   1.0000
     1.0000   1.0000   1.0000   1.0000   1.0000   1.0000   1.0000   1.0000
     1.0000   1.0000   1.0000   1.0000   1.0000   1.0000   1.0000   1.0000
     1.0000   1.0000   1.0000   1.0000   1.0000   1.0000   1.0000   1.0000
     1.0000   1.0000   1.0000   1.0000   1.0000   1.0000   1.0000   1.0000

          k = 0.0191 0.0344 0.0217 (140105 PWs)   bands (ev):

   -23.8316 -23.8226 -23.7977 -23.7944 -23.5061 -23.5012 -23.4981 -23.4976
   -19.0557 -19.0541 -19.0377 -19.0329 -18.7215 -18.7212 -18.7173 -18.7167
   -18.1424 -18.1307 -17.1040 -17.0816 -16.9737 -16.9722 -15.9554 -15.9499
   -11.9955 -11.9879 -11.9655 -11.9299 -11.7805 -11.7533 -11.6562 -11.6474
    -8.7904  -8.7735  -8.1659  -8.1498  -7.4544  -7.4347  -7.3293  -7.3271
    -6.7479  -6.7007  -6.4643  -6.4182  -6.4128  -6.3716  -6.2436  -6.2145
    -6.0561  -6.0346  -5.9012  -5.8639  -5.8061  -5.7605  -5.6693  -5.6523
    -5.5190  -5.5040  -5.4372  -5.4134  -5.0117  -4.9406  -4.8954  -4.8669
    -4.3725  -4.3622  -4.2843  -4.2641  -4.1045  -4.0517  -3.7824  -3.7744
    -3.5641  -3.5043  -3.3943  -3.3735  -3.0675  -3.0515  -2.9331  -2.9258
    -0.7116  -0.7097  -0.2296  -0.2197  -0.1475  -0.1138  -0.0395  -0.0327
     0.1001   0.1086   0.2757   0.2861   0.3216   0.3296   0.4698   0.4820
     0.4885   0.5264   0.7183   0.7495   0.8370   0.8600   0.9763   0.9982
     1.0335   1.0809   1.1698   1.1926   1.3208   1.3804   1.4488   1.4559

     occupation numbers 
     1.0000   1.0000   1.0000   1.0000   1.0000   1.0000   1.0000   1.0000
     1.0000   1.0000   1.0000   1.0000   1.0000   1.0000   1.0000   1.0000
     1.0000   1.0000   1.0000   1.0000   1.0000   1.0000   1.0000   1.0000
     1.0000   1.0000   1.0000   1.0000   1.0000   1.0000   1.0000   1.0000
     1.0000   1.0000   1.0000   1.0000   1.0000   1.0000   1.0000   1.0000
     1.0000   1.0000   1.0000   1.0000   1.0000   1.0000   1.0000   1.0000
     1.0000   1.0000   1.0000   1.0000   1.0000   1.0000   1.0000   1.0000
     1.0000   1.0000   1.0000   1.0000   1.0000   1.0000   1.0000   1.0000
     1.0000   1.0000   1.0000   1.0000   1.0000   1.0000   1.0000   1.0000
     1.0000   1.0000   1.0000   1.0000   1.0000   1.0000   1.0000   1.0000
     1.0000   1.0000   1.0000   1.0000   1.0000   1.0000   1.0000   1.0000
     1.0000   1.0000   1.0000   1.0000   1.0000   1.0000   1.0000   1.0000
     1.0000   1.0000   1.0000   1.0000   1.0000   1.0000   1.0000   1.0000
     1.0000   1.0000   1.0000   1.0000   1.0000   1.0000   1.0000   1.0000

          k = 0.0191 0.0344 0.0566 (140063 PWs)   bands (ev):

   -23.8258 -23.8218 -23.7990 -23.7985 -23.5086 -23.5070 -23.4952 -23.4935
   -19.0544 -19.0529 -19.0392 -19.0355 -18.7275 -18.7272 -18.7118 -18.7109
   -18.1377 -18.1375 -17.0933 -17.0923 -16.9688 -16.9676 -15.9544 -15.9534
   -11.9910 -11.9868 -11.9502 -11.9395 -11.7690 -11.7622 -11.6695 -11.6647
    -8.7710  -8.7554  -8.1516  -8.1404  -7.4579  -7.4358  -7.2920  -7.2576
    -6.8001  -6.7535  -6.4857  -6.4714  -6.4034  -6.3557  -6.3019  -6.2796
    -6.0554  -6.0207  -5.8832  -5.8265  -5.7767  -5.7420  -5.7085  -5.6892
    -5.6004  -5.5624  -5.3885  -5.3638  -4.9959  -4.9429  -4.8913  -4.8505
    -4.2933  -4.2762  -4.2504  -4.2155  -4.0489  -4.0351  -3.9019  -3.9000
    -3.5546  -3.5287  -3.3435  -3.3381  -3.0968  -3.0924  -2.9240  -2.9111
    -0.6692  -0.6568  -0.2433  -0.2331  -0.1557  -0.1283  -0.0684  -0.0521
     0.0300   0.0465   0.2081   0.2286   0.3219   0.3497   0.4151   0.4290
     0.6395   0.6656   0.7472   0.7658   0.8665   0.8824   0.9168   0.9544
     1.0667   1.0911   1.1945   1.2029   1.3223   1.3539   1.4482   1.4588

     occupation numbers 
     1.0000   1.0000   1.0000   1.0000   1.0000   1.0000   1.0000   1.0000
     1.0000   1.0000   1.0000   1.0000   1.0000   1.0000   1.0000   1.0000
     1.0000   1.0000   1.0000   1.0000   1.0000   1.0000   1.0000   1.0000
     1.0000   1.0000   1.0000   1.0000   1.0000   1.0000   1.0000   1.0000
     1.0000   1.0000   1.0000   1.0000   1.0000   1.0000   1.0000   1.0000
     1.0000   1.0000   1.0000   1.0000   1.0000   1.0000   1.0000   1.0000
     1.0000   1.0000   1.0000   1.0000   1.0000   1.0000   1.0000   1.0000
     1.0000   1.0000   1.0000   1.0000   1.0000   1.0000   1.0000   1.0000
     1.0000   1.0000   1.0000   1.0000   1.0000   1.0000   1.0000   1.0000
     1.0000   1.0000   1.0000   1.0000   1.0000   1.0000   1.0000   1.0000
     1.0000   1.0000   1.0000   1.0000   1.0000   1.0000   1.0000   1.0000
     1.0000   1.0000   1.0000   1.0000   1.0000   1.0000   1.0000   1.0000
     1.0000   1.0000   1.0000   1.0000   1.0000   1.0000   1.0000   1.0000
     1.0000   1.0000   1.0000   1.0000   1.0000   1.0000   1.0000   1.0000

          k = 0.0191 0.0344-0.0482 (140025 PWs)   bands (ev):

   -23.8268 -23.8222 -23.7999 -23.7961 -23.5103 -23.5089 -23.4928 -23.4922
   -19.0524 -19.0519 -19.0390 -19.0389 -18.7288 -18.7287 -18.7103 -18.7095
   -18.1427 -18.1315 -17.1027 -17.0817 -16.9719 -16.9716 -15.9536 -15.9467
   -12.0095 -11.9967 -11.9562 -11.9279 -11.7706 -11.7445 -11.6694 -11.6657
    -8.7663  -8.7301  -8.1459  -8.1437  -7.4608  -7.4549  -7.2952  -7.2443
    -6.7973  -6.7478  -6.5084  -6.4777  -6.4006  -6.3838  -6.3343  -6.3146
    -6.0328  -6.0146  -5.8994  -5.8677  -5.7316  -5.7122  -5.6873  -5.6625
    -5.6016  -5.5625  -5.3764  -5.3450  -5.0293  -4.9753  -4.8517  -4.8173
    -4.3372  -4.3052  -4.2015  -4.1760  -4.0802  -4.0680  -3.8949  -3.8694
    -3.5537  -3.5325  -3.3740  -3.3376  -3.0961  -3.0829  -2.9255  -2.9195
    -0.5935  -0.5693  -0.2414  -0.2354  -0.1765  -0.1574  -0.1178  -0.0963
    -0.0254  -0.0136   0.1784   0.2130   0.3379   0.3561   0.3914   0.4199
     0.6848   0.7195   0.7926   0.8069   0.8298   0.8767   0.9423   0.9538
     1.0759   1.0925   1.2153   1.2360   1.3097   1.3238   1.4364   1.4464

     occupation numbers 
     1.0000   1.0000   1.0000   1.0000   1.0000   1.0000   1.0000   1.0000
     1.0000   1.0000   1.0000   1.0000   1.0000   1.0000   1.0000   1.0000
     1.0000   1.0000   1.0000   1.0000   1.0000   1.0000   1.0000   1.0000
     1.0000   1.0000   1.0000   1.0000   1.0000   1.0000   1.0000   1.0000
     1.0000   1.0000   1.0000   1.0000   1.0000   1.0000   1.0000   1.0000
     1.0000   1.0000   1.0000   1.0000   1.0000   1.0000   1.0000   1.0000
     1.0000   1.0000   1.0000   1.0000   1.0000   1.0000   1.0000   1.0000
     1.0000   1.0000   1.0000   1.0000   1.0000   1.0000   1.0000   1.0000
     1.0000   1.0000   1.0000   1.0000   1.0000   1.0000   1.0000   1.0000
     1.0000   1.0000   1.0000   1.0000   1.0000   1.0000   1.0000   1.0000
     1.0000   1.0000   1.0000   1.0000   1.0000   1.0000   1.0000   1.0000
     1.0000   1.0000   1.0000   1.0000   1.0000   1.0000   1.0000   1.0000
     1.0000   1.0000   1.0000   1.0000   1.0000   1.0000   1.0000   1.0000
     1.0000   1.0000   1.0000   1.0000   1.0000   1.0000   1.0000   1.0000

          k = 0.0191 0.0344-0.0133 (140124 PWs)   bands (ev):

   -23.8323 -23.8233 -23.7976 -23.7932 -23.5088 -23.5049 -23.4948 -23.4944
   -19.0545 -19.0528 -19.0384 -19.0348 -18.7248 -18.7247 -18.7136 -18.7135
   -18.1442 -18.1279 -17.1075 -17.0768 -16.9770 -16.9761 -15.9533 -15.9446
   -12.0164 -11.9995 -11.9591 -11.9257 -11.7749 -11.7441 -11.6557 -11.6482
    -8.7866  -8.7474  -8.1627  -8.1512  -7.4627  -7.4505  -7.3416  -7.3067
    -6.7134  -6.6965  -6.5070  -6.4510  -6.4054  -6.3820  -6.2962  -6.2613
    -6.0311  -6.0068  -5.9128  -5.8841  -5.7612  -5.7377  -5.6437  -5.6427
    -5.5194  -5.5051  -5.4205  -5.4108  -5.0218  -4.9880  -4.8507  -4.8297
    -4.3767  -4.3719  -4.2860  -4.2629  -4.1178  -4.0616  -3.7783  -3.7528
    -3.5728  -3.5101  -3.4047  -3.3791  -3.0709  -3.0481  -2.9326  -2.9319
    -0.6562  -0.6470  -0.2201  -0.2094  -0.1485  -0.1159  -0.0432  -0.0335
     0.0026   0.0244   0.1808   0.2112   0.2927   0.3305   0.4362   0.4675
     0.6467   0.6777   0.7083   0.7657   0.8229   0.8621   0.9895   0.9939
     1.0452   1.0736   1.1968   1.2215   1.3034   1.3608   1.4356   1.4439

     occupation numbers 
     1.0000   1.0000   1.0000   1.0000   1.0000   1.0000   1.0000   1.0000
     1.0000   1.0000   1.0000   1.0000   1.0000   1.0000   1.0000   1.0000
     1.0000   1.0000   1.0000   1.0000   1.0000   1.0000   1.0000   1.0000
     1.0000   1.0000   1.0000   1.0000   1.0000   1.0000   1.0000   1.0000
     1.0000   1.0000   1.0000   1.0000   1.0000   1.0000   1.0000   1.0000
     1.0000   1.0000   1.0000   1.0000   1.0000   1.0000   1.0000   1.0000
     1.0000   1.0000   1.0000   1.0000   1.0000   1.0000   1.0000   1.0000
     1.0000   1.0000   1.0000   1.0000   1.0000   1.0000   1.0000   1.0000
     1.0000   1.0000   1.0000   1.0000   1.0000   1.0000   1.0000   1.0000
     1.0000   1.0000   1.0000   1.0000   1.0000   1.0000   1.0000   1.0000
     1.0000   1.0000   1.0000   1.0000   1.0000   1.0000   1.0000   1.0000
     1.0000   1.0000   1.0000   1.0000   1.0000   1.0000   1.0000   1.0000
     1.0000   1.0000   1.0000   1.0000   1.0000   1.0000   1.0000   1.0000
     1.0000   1.0000   1.0000   1.0000   1.0000   1.0000   1.0000   1.0000

          k = 0.0574 0.0115 0.0300 (140044 PWs)   bands (ev):

   -23.8264 -23.8163 -23.7995 -23.7988 -23.5079 -23.5040 -23.4997 -23.4956
   -19.0540 -19.0497 -19.0450 -19.0347 -18.7256 -18.7244 -18.7152 -18.7133
   -18.1431 -18.1426 -17.0929 -17.0909 -16.9733 -16.9712 -15.9557 -15.9530
   -11.9809 -11.9769 -11.9202 -11.9008 -11.7487 -11.7257 -11.6759 -11.6564
    -8.8020  -8.7673  -8.1763  -8.1521  -7.4615  -7.4278  -7.4048  -7.3473
    -6.8930  -6.8229  -6.5931  -6.4628  -6.3690  -6.3272  -6.1700  -6.1349
    -6.1120  -6.0607  -5.9192  -5.8537  -5.7979  -5.7519  -5.6632  -5.6383
    -5.5494  -5.5096  -5.4568  -5.4363  -5.0685  -4.9522  -4.8301  -4.8263
    -4.3476  -4.3252  -4.2790  -4.2296  -3.9356  -3.8799  -3.7301  -3.6823
    -3.6427  -3.5148  -3.4756  -3.4669  -3.0707  -3.0677  -2.9443  -2.9109
    -0.6672  -0.6590  -0.2186  -0.2129  -0.1270  -0.1062  -0.0412  -0.0131
     0.0194   0.0479   0.1922   0.2134   0.2806   0.2974   0.4396   0.4603
     0.6547   0.6658   0.7390   0.7864   0.8618   0.8673   0.9594   0.9746
     1.0278   1.0755   1.1004   1.1458   1.3566   1.3921   1.4155   1.4563

     occupation numbers 
     1.0000   1.0000   1.0000   1.0000   1.0000   1.0000   1.0000   1.0000
     1.0000   1.0000   1.0000   1.0000   1.0000   1.0000   1.0000   1.0000
     1.0000   1.0000   1.0000   1.0000   1.0000   1.0000   1.0000   1.0000
     1.0000   1.0000   1.0000   1.0000   1.0000   1.0000   1.0000   1.0000
     1.0000   1.0000   1.0000   1.0000   1.0000   1.0000   1.0000   1.0000
     1.0000   1.0000   1.0000   1.0000   1.0000   1.0000   1.0000   1.0000
     1.0000   1.0000   1.0000   1.0000   1.0000   1.0000   1.0000   1.0000
     1.0000   1.0000   1.0000   1.0000   1.0000   1.0000   1.0000   1.0000
     1.0000   1.0000   1.0000   1.0000   1.0000   1.0000   1.0000   1.0000
     1.0000   1.0000   1.0000   1.0000   1.0000   1.0000   1.0000   1.0000
     1.0000   1.0000   1.0000   1.0000   1.0000   1.0000   1.0000   1.0000
     1.0000   1.0000   1.0000   1.0000   1.0000   1.0000   1.0000   1.0000
     1.0000   1.0000   1.0000   1.0000   1.0000   1.0000   1.0000   1.0000
     1.0000   1.0000   1.0000   1.0000   1.0000   1.0000   1.0000   1.0000

          k = 0.0574 0.0115 0.0650 (140008 PWs)   bands (ev):

   -23.8221 -23.8193 -23.8034 -23.7950 -23.5057 -23.5056 -23.5032 -23.4938
   -19.0549 -19.0517 -19.0452 -19.0331 -18.7359 -18.7336 -18.7072 -18.7029
   -18.1592 -18.1330 -17.1143 -17.0663 -16.9631 -16.9598 -15.9724 -15.9518
   -11.9988 -11.9830 -11.9487 -11.8728 -11.7415 -11.7048 -11.6800 -11.6583
    -8.8494  -8.7223  -8.1729  -8.1320  -7.4569  -7.4376  -7.3590  -7.2240
    -6.9995  -6.7694  -6.5978  -6.4072  -6.3917  -6.3525  -6.3320  -6.2249
    -6.1691  -6.0795  -5.9031  -5.8642  -5.8223  -5.7528  -5.6893  -5.6281
    -5.5249  -5.4785  -5.4167  -5.3332  -5.0825  -4.9170  -4.9030  -4.8314
    -4.2910  -4.2772  -4.2108  -4.1718  -3.8918  -3.8741  -3.8214  -3.7940
    -3.6567  -3.5433  -3.4804  -3.3783  -3.1221  -3.0858  -2.9427  -2.8770
    -0.7435  -0.7095  -0.2274  -0.1882  -0.1261  -0.0950  -0.0331   0.0052
     0.0568   0.0962   0.2511   0.2809   0.3095   0.3257   0.4033   0.5040
     0.5722   0.5838   0.6371   0.7413   0.8650   0.8922   0.9447   0.9657
     1.0611   1.0995   1.1085   1.1384   1.3690   1.4114   1.4228   1.4709

     occupation numbers 
     1.0000   1.0000   1.0000   1.0000   1.0000   1.0000   1.0000   1.0000
     1.0000   1.0000   1.0000   1.0000   1.0000   1.0000   1.0000   1.0000
     1.0000   1.0000   1.0000   1.0000   1.0000   1.0000   1.0000   1.0000
     1.0000   1.0000   1.0000   1.0000   1.0000   1.0000   1.0000   1.0000
     1.0000   1.0000   1.0000   1.0000   1.0000   1.0000   1.0000   1.0000
     1.0000   1.0000   1.0000   1.0000   1.0000   1.0000   1.0000   1.0000
     1.0000   1.0000   1.0000   1.0000   1.0000   1.0000   1.0000   1.0000
     1.0000   1.0000   1.0000   1.0000   1.0000   1.0000   1.0000   1.0000
     1.0000   1.0000   1.0000   1.0000   1.0000   1.0000   1.0000   1.0000
     1.0000   1.0000   1.0000   1.0000   1.0000   1.0000   1.0000   1.0000
     1.0000   1.0000   1.0000   1.0000   1.0000   1.0000   1.0000   1.0000
     1.0000   1.0000   1.0000   1.0000   1.0000   1.0000   1.0000   1.0000
     1.0000   1.0000   1.0000   1.0000   1.0000   1.0000   1.0000   1.0000
     1.0000   1.0000   1.0000   1.0000   1.0000   1.0000   1.0000   1.0000

          k = 0.0574 0.0115-0.0398 (140029 PWs)   bands (ev):

   -23.8241 -23.8180 -23.8051 -23.7927 -23.5092 -23.5082 -23.4985 -23.4923
   -19.0529 -19.0505 -19.0458 -19.0359 -18.7366 -18.7345 -18.7063 -18.7021
   -18.1642 -18.1265 -17.1249 -17.0549 -16.9662 -16.9637 -15.9718 -15.9452
   -12.0087 -11.9883 -11.9655 -11.8505 -11.7576 -11.6862 -11.6750 -11.6635
    -8.8438  -8.6964  -8.1667  -8.1332  -7.4583  -7.4389  -7.3838  -7.2115
    -7.0205  -6.7698  -6.5854  -6.4393  -6.3947  -6.3795  -6.3208  -6.2541
    -6.1730  -6.0962  -5.8880  -5.8355  -5.7729  -5.7607  -5.6904  -5.6450
    -5.5012  -5.4743  -5.4232  -5.3328  -5.0732  -4.9401  -4.8757  -4.8181
    -4.2947  -4.2515  -4.2126  -4.1849  -3.9298  -3.9205  -3.7712  -3.7576
    -3.6085  -3.5764  -3.5329  -3.3811  -3.1268  -3.0822  -2.9388  -2.8826
    -0.6994  -0.6424  -0.2193  -0.1619  -0.1414  -0.1173  -0.0406  -0.0184
    -0.0058   0.0364   0.1878   0.2804   0.3011   0.3522   0.3640   0.3901
     0.6162   0.6840   0.7227   0.7446   0.8645   0.8912   0.9622   0.9781
     1.0528   1.0821   1.1245   1.1921   1.3831   1.4011   1.4076   1.4359

     occupation numbers 
     1.0000   1.0000   1.0000   1.0000   1.0000   1.0000   1.0000   1.0000
     1.0000   1.0000   1.0000   1.0000   1.0000   1.0000   1.0000   1.0000
     1.0000   1.0000   1.0000   1.0000   1.0000   1.0000   1.0000   1.0000
     1.0000   1.0000   1.0000   1.0000   1.0000   1.0000   1.0000   1.0000
     1.0000   1.0000   1.0000   1.0000   1.0000   1.0000   1.0000   1.0000
     1.0000   1.0000   1.0000   1.0000   1.0000   1.0000   1.0000   1.0000
     1.0000   1.0000   1.0000   1.0000   1.0000   1.0000   1.0000   1.0000
     1.0000   1.0000   1.0000   1.0000   1.0000   1.0000   1.0000   1.0000
     1.0000   1.0000   1.0000   1.0000   1.0000   1.0000   1.0000   1.0000
     1.0000   1.0000   1.0000   1.0000   1.0000   1.0000   1.0000   1.0000
     1.0000   1.0000   1.0000   1.0000   1.0000   1.0000   1.0000   1.0000
     1.0000   1.0000   1.0000   1.0000   1.0000   1.0000   1.0000   1.0000
     1.0000   1.0000   1.0000   1.0000   1.0000   1.0000   1.0000   1.0000
     1.0000   1.0000   1.0000   1.0000   1.0000   1.0000   1.0000   1.0000

          k = 0.0574 0.0115-0.0049 (140042 PWs)   bands (ev):

   -23.8273 -23.8160 -23.8034 -23.7943 -23.5103 -23.5066 -23.4960 -23.4943
   -19.0513 -19.0501 -19.0412 -19.0409 -18.7274 -18.7267 -18.7129 -18.7113
   -18.1558 -18.1284 -17.1170 -17.0660 -16.9758 -16.9757 -15.9592 -15.9423
   -11.9939 -11.9773 -11.9567 -11.8606 -11.7689 -11.7018 -11.6703 -11.6636
    -8.8114  -8.7259  -8.1637  -8.1603  -7.4542  -7.4467  -7.4354  -7.3232
    -6.9125  -6.8169  -6.5491  -6.5234  -6.3625  -6.3569  -6.2094  -6.1794
    -6.0925  -6.0836  -5.8579  -5.8167  -5.7654  -5.7375  -5.6762  -5.6680
    -5.5295  -5.5114  -5.4503  -5.4387  -5.0273  -5.0049  -4.8085  -4.8050
    -4.3485  -4.3212  -4.2740  -4.2380  -3.9504  -3.9052  -3.6904  -3.6791
    -3.5975  -3.5657  -3.5190  -3.4556  -3.0898  -3.0517  -2.9386  -2.9173
    -0.6107  -0.5635  -0.2240  -0.2114  -0.1381  -0.1293  -0.1001  -0.0985
     0.0056   0.0359   0.1506   0.2212   0.2599   0.3053   0.4091   0.4489
     0.6346   0.7057   0.8034   0.8256   0.8608   0.8929   0.9750   0.9973
     1.0285   1.0423   1.1092   1.1941   1.3744   1.3820   1.3962   1.4163

     occupation numbers 
     1.0000   1.0000   1.0000   1.0000   1.0000   1.0000   1.0000   1.0000
     1.0000   1.0000   1.0000   1.0000   1.0000   1.0000   1.0000   1.0000
     1.0000   1.0000   1.0000   1.0000   1.0000   1.0000   1.0000   1.0000
     1.0000   1.0000   1.0000   1.0000   1.0000   1.0000   1.0000   1.0000
     1.0000   1.0000   1.0000   1.0000   1.0000   1.0000   1.0000   1.0000
     1.0000   1.0000   1.0000   1.0000   1.0000   1.0000   1.0000   1.0000
     1.0000   1.0000   1.0000   1.0000   1.0000   1.0000   1.0000   1.0000
     1.0000   1.0000   1.0000   1.0000   1.0000   1.0000   1.0000   1.0000
     1.0000   1.0000   1.0000   1.0000   1.0000   1.0000   1.0000   1.0000
     1.0000   1.0000   1.0000   1.0000   1.0000   1.0000   1.0000   1.0000
     1.0000   1.0000   1.0000   1.0000   1.0000   1.0000   1.0000   1.0000
     1.0000   1.0000   1.0000   1.0000   1.0000   1.0000   1.0000   1.0000
     1.0000   1.0000   1.0000   1.0000   1.0000   1.0000   1.0000   1.0000
     1.0000   1.0000   1.0000   1.0000   1.0000   1.0000   1.0000   1.0000

          k = 0.0574 0.0344 0.0300 (140098 PWs)   bands (ev):

   -23.8232 -23.8189 -23.7998 -23.7993 -23.5057 -23.5042 -23.4994 -23.4977
   -19.0540 -19.0528 -19.0401 -19.0364 -18.7252 -18.7248 -18.7146 -18.7139
   -18.1430 -18.1428 -17.0925 -17.0917 -16.9725 -16.9716 -15.9549 -15.9538
   -11.9800 -11.9783 -11.9128 -11.9046 -11.7440 -11.7343 -11.6700 -11.6619
    -8.7918  -8.7774  -8.1656  -8.1553  -7.4505  -7.4373  -7.3928  -7.3682
    -6.8973  -6.8741  -6.5131  -6.4662  -6.3497  -6.3240  -6.2014  -6.1675
    -6.0987  -6.0695  -5.8903  -5.8634  -5.7883  -5.7647  -5.6663  -5.6411
    -5.5305  -5.5206  -5.4484  -5.4381  -5.0375  -4.9894  -4.8361  -4.8331
    -4.3393  -4.3253  -4.2693  -4.2499  -3.9105  -3.8862  -3.7169  -3.6956
    -3.6071  -3.5546  -3.4738  -3.4668  -3.0696  -3.0668  -2.9395  -2.9247
    -0.6606  -0.6572  -0.2101  -0.2029  -0.1638  -0.1435  -0.0196   0.0037
     0.0257   0.0411   0.2016   0.2226   0.2902   0.3056   0.4378   0.4484
     0.6853   0.6877   0.7150   0.7485   0.8566   0.8646   0.9645   0.9865
     1.0361   1.0688   1.1051   1.1260   1.3679   1.3818   1.4290   1.4451

     occupation numbers 
     1.0000   1.0000   1.0000   1.0000   1.0000   1.0000   1.0000   1.0000
     1.0000   1.0000   1.0000   1.0000   1.0000   1.0000   1.0000   1.0000
     1.0000   1.0000   1.0000   1.0000   1.0000   1.0000   1.0000   1.0000
     1.0000   1.0000   1.0000   1.0000   1.0000   1.0000   1.0000   1.0000
     1.0000   1.0000   1.0000   1.0000   1.0000   1.0000   1.0000   1.0000
     1.0000   1.0000   1.0000   1.0000   1.0000   1.0000   1.0000   1.0000
     1.0000   1.0000   1.0000   1.0000   1.0000   1.0000   1.0000   1.0000
     1.0000   1.0000   1.0000   1.0000   1.0000   1.0000   1.0000   1.0000
     1.0000   1.0000   1.0000   1.0000   1.0000   1.0000   1.0000   1.0000
     1.0000   1.0000   1.0000   1.0000   1.0000   1.0000   1.0000   1.0000
     1.0000   1.0000   1.0000   1.0000   1.0000   1.0000   1.0000   1.0000
     1.0000   1.0000   1.0000   1.0000   1.0000   1.0000   1.0000   1.0000
     1.0000   1.0000   1.0000   1.0000   1.0000   1.0000   1.0000   1.0000
     1.0000   1.0000   1.0000   1.0000   1.0000   1.0000   1.0000   1.0000

          k = 0.0574 0.0344 0.0650 (140052 PWs)   bands (ev):

   -23.8209 -23.8197 -23.8015 -23.7980 -23.5055 -23.5053 -23.5006 -23.4966
   -19.0553 -19.0544 -19.0398 -19.0353 -18.7352 -18.7342 -18.7060 -18.7042
   -18.1517 -18.1409 -17.1003 -17.0805 -16.9620 -16.9607 -15.9662 -15.9577
   -11.9987 -11.9938 -11.9203 -11.8909 -11.7306 -11.7155 -11.6737 -11.6648
    -8.8134  -8.7609  -8.1593  -8.1422  -7.4312  -7.4214  -7.3524  -7.2905
    -6.9566  -6.8764  -6.4986  -6.4388  -6.3783  -6.3646  -6.2866  -6.2281
    -6.1525  -6.0977  -5.8815  -5.8593  -5.8084  -5.7792  -5.7067  -5.6668
    -5.5195  -5.5009  -5.3815  -5.3479  -5.0428  -4.9715  -4.8825  -4.8512
    -4.2749  -4.2539  -4.2110  -4.1748  -3.8811  -3.8740  -3.8192  -3.8074
    -3.6325  -3.5920  -3.4416  -3.4032  -3.1128  -3.0980  -2.9237  -2.8964
    -0.7296  -0.7158  -0.2145  -0.1965  -0.1550  -0.1442  -0.0073   0.0055
     0.0869   0.1019   0.2684   0.2781   0.3244   0.3372   0.4257   0.4739
     0.5542   0.5630   0.6919   0.7487   0.8339   0.8687   0.9555   0.9684
     1.0469   1.0704   1.1341   1.1480   1.3807   1.3976   1.4371   1.4564

     occupation numbers 
     1.0000   1.0000   1.0000   1.0000   1.0000   1.0000   1.0000   1.0000
     1.0000   1.0000   1.0000   1.0000   1.0000   1.0000   1.0000   1.0000
     1.0000   1.0000   1.0000   1.0000   1.0000   1.0000   1.0000   1.0000
     1.0000   1.0000   1.0000   1.0000   1.0000   1.0000   1.0000   1.0000
     1.0000   1.0000   1.0000   1.0000   1.0000   1.0000   1.0000   1.0000
     1.0000   1.0000   1.0000   1.0000   1.0000   1.0000   1.0000   1.0000
     1.0000   1.0000   1.0000   1.0000   1.0000   1.0000   1.0000   1.0000
     1.0000   1.0000   1.0000   1.0000   1.0000   1.0000   1.0000   1.0000
     1.0000   1.0000   1.0000   1.0000   1.0000   1.0000   1.0000   1.0000
     1.0000   1.0000   1.0000   1.0000   1.0000   1.0000   1.0000   1.0000
     1.0000   1.0000   1.0000   1.0000   1.0000   1.0000   1.0000   1.0000
     1.0000   1.0000   1.0000   1.0000   1.0000   1.0000   1.0000   1.0000
     1.0000   1.0000   1.0000   1.0000   1.0000   1.0000   1.0000   1.0000
     1.0000   1.0000   1.0000   1.0000   1.0000   1.0000   1.0000   1.0000

          k = 0.0574 0.0344-0.0398 (140018 PWs)   bands (ev):

   -23.8224 -23.8200 -23.8013 -23.7963 -23.5087 -23.5081 -23.4969 -23.4943
   -19.0537 -19.0532 -19.0408 -19.0374 -18.7359 -18.7351 -18.7051 -18.7033
   -18.1536 -18.1380 -17.1043 -17.0753 -16.9655 -16.9645 -15.9637 -15.9527
   -12.0074 -12.0010 -11.9302 -11.8874 -11.7301 -11.7033 -11.6704 -11.6661
    -8.8027  -8.7419  -8.1566  -8.1425  -7.4371  -7.4180  -7.3684  -7.2849
    -6.9640  -6.8745  -6.4971  -6.4532  -6.3954  -6.3737  -6.3354  -6.2783
    -6.1160  -6.0710  -5.8781  -5.8455  -5.7870  -5.7805  -5.6995  -5.6676
    -5.5012  -5.4896  -5.3802  -5.3433  -5.0584  -5.0031  -4.8477  -4.8233
    -4.2949  -4.2775  -4.1793  -4.1616  -3.9233  -3.9196  -3.7695  -3.7643
    -3.6135  -3.6010  -3.4785  -3.4196  -3.1115  -3.0921  -2.9268  -2.9027
    -0.6794  -0.6554  -0.2106  -0.1889  -0.1634  -0.1463  -0.0205  -0.0111
     0.0213   0.0473   0.2196   0.2556   0.3078   0.3287   0.3718   0.3967
     0.6402   0.6698   0.7527   0.7585   0.8521   0.8643   0.9508   0.9555
     1.0583   1.0796   1.1535   1.1784   1.3868   1.3960   1.4129   1.4263

     occupation numbers 
     1.0000   1.0000   1.0000   1.0000   1.0000   1.0000   1.0000   1.0000
     1.0000   1.0000   1.0000   1.0000   1.0000   1.0000   1.0000   1.0000
     1.0000   1.0000   1.0000   1.0000   1.0000   1.0000   1.0000   1.0000
     1.0000   1.0000   1.0000   1.0000   1.0000   1.0000   1.0000   1.0000
     1.0000   1.0000   1.0000   1.0000   1.0000   1.0000   1.0000   1.0000
     1.0000   1.0000   1.0000   1.0000   1.0000   1.0000   1.0000   1.0000
     1.0000   1.0000   1.0000   1.0000   1.0000   1.0000   1.0000   1.0000
     1.0000   1.0000   1.0000   1.0000   1.0000   1.0000   1.0000   1.0000
     1.0000   1.0000   1.0000   1.0000   1.0000   1.0000   1.0000   1.0000
     1.0000   1.0000   1.0000   1.0000   1.0000   1.0000   1.0000   1.0000
     1.0000   1.0000   1.0000   1.0000   1.0000   1.0000   1.0000   1.0000
     1.0000   1.0000   1.0000   1.0000   1.0000   1.0000   1.0000   1.0000
     1.0000   1.0000   1.0000   1.0000   1.0000   1.0000   1.0000   1.0000
     1.0000   1.0000   1.0000   1.0000   1.0000   1.0000   1.0000   1.0000

          k = 0.0574 0.0344-0.0049 (140039 PWs)   bands (ev):

   -23.8242 -23.8196 -23.8005 -23.7968 -23.5088 -23.5072 -23.4959 -23.4951
   -19.0520 -19.0516 -19.0401 -19.0399 -18.7272 -18.7269 -18.7124 -18.7118
   -18.1480 -18.1367 -17.1020 -17.0809 -16.9757 -16.9757 -15.9542 -15.9472
   -11.9911 -11.9858 -11.9295 -11.8929 -11.7440 -11.7182 -11.6675 -11.6645
    -8.7870  -8.7516  -8.1614  -8.1580  -7.4509  -7.4484  -7.4070  -7.3603
    -6.9002  -6.8622  -6.5045  -6.4931  -6.3533  -6.3430  -6.2665  -6.2553
    -6.0426  -6.0358  -5.8669  -5.8444  -5.7614  -5.7499  -5.6553  -5.6500
    -5.5323  -5.5156  -5.4466  -5.4421  -5.0326  -5.0201  -4.8066  -4.8056
    -4.3496  -4.3324  -4.2687  -4.2435  -3.9233  -3.9043  -3.6919  -3.6881
    -3.5733  -3.5488  -3.5232  -3.4843  -3.0764  -3.0594  -2.9400  -2.9320
    -0.5948  -0.5751  -0.2122  -0.2022  -0.1534  -0.1316  -0.1190  -0.1002
     0.0068   0.0283   0.1721   0.2017   0.2852   0.3076   0.4202   0.4422
     0.6663   0.7043   0.7855   0.8105   0.8494   0.8800   0.9826   0.9881
     1.0468   1.0564   1.1243   1.1637   1.3769   1.3787   1.4019   1.4107

     occupation numbers 
     1.0000   1.0000   1.0000   1.0000   1.0000   1.0000   1.0000   1.0000
     1.0000   1.0000   1.0000   1.0000   1.0000   1.0000   1.0000   1.0000
     1.0000   1.0000   1.0000   1.0000   1.0000   1.0000   1.0000   1.0000
     1.0000   1.0000   1.0000   1.0000   1.0000   1.0000   1.0000   1.0000
     1.0000   1.0000   1.0000   1.0000   1.0000   1.0000   1.0000   1.0000
     1.0000   1.0000   1.0000   1.0000   1.0000   1.0000   1.0000   1.0000
     1.0000   1.0000   1.0000   1.0000   1.0000   1.0000   1.0000   1.0000
     1.0000   1.0000   1.0000   1.0000   1.0000   1.0000   1.0000   1.0000
     1.0000   1.0000   1.0000   1.0000   1.0000   1.0000   1.0000   1.0000
     1.0000   1.0000   1.0000   1.0000   1.0000   1.0000   1.0000   1.0000
     1.0000   1.0000   1.0000   1.0000   1.0000   1.0000   1.0000   1.0000
     1.0000   1.0000   1.0000   1.0000   1.0000   1.0000   1.0000   1.0000
     1.0000   1.0000   1.0000   1.0000   1.0000   1.0000   1.0000   1.0000
     1.0000   1.0000   1.0000   1.0000   1.0000   1.0000   1.0000   1.0000

     highest occupied level (ev):     1.4709

!    total energy              =   -1282.04852911 Ry
     Harris-Foulkes estimate   =   -1282.04852965 Ry
     estimated scf accuracy    <       0.00000063 Ry

     total all-electron energy =     -4786.492277 Ry

     The total energy is the sum of the following terms:

     one-electron contribution =    -629.45346336 Ry
     hartree contribution      =     413.70126789 Ry
     xc contribution           =    -260.13761874 Ry
     ewald contribution        =    -475.76697818 Ry
     one-center paw contrib.   =    -330.39173671 Ry

     convergence has been achieved in  12 iterations

     Forces acting on atoms (Ry/au):

     atom    1 type  1   force =    -0.01447134   -0.00698050   -0.01248501
     atom    2 type  4   force =     0.02954722    0.00601357   -0.02159863
     atom    3 type  1   force =    -0.00398565   -0.00732786   -0.00831382
     atom    4 type  1   force =     0.00679743    0.00336072   -0.00206817
     atom    5 type  4   force =     0.00266912   -0.02672349    0.02942655
     atom    6 type  1   force =     0.01255153    0.00202297   -0.00464607
     atom    7 type  4   force =    -0.01022246    0.01886427    0.03927751
     atom    8 type  2   force =     0.16220392   -0.10203493    0.04994900
     atom    9 type  3   force =    -0.11966348   -0.05545397   -0.12396445
     atom   10 type  3   force =    -0.04064494    0.16084411    0.07174513
     atom   11 type  4   force =    -0.03243942    0.02020117   -0.01516991
     atom   12 type  2   force =     0.12482923   -0.05232051    0.21046338
     atom   13 type  3   force =    -0.19692157   -0.10082289   -0.06146482
     atom   14 type  3   force =     0.06588312    0.15311940   -0.15287556
     atom   15 type  3   force =     0.06588312   -0.15311940   -0.15287556
     atom   16 type  3   force =    -0.19692157    0.10082289   -0.06146482
     atom   17 type  2   force =     0.12482923    0.05232051    0.21046338
     atom   18 type  4   force =    -0.03243942   -0.02020117   -0.01516991
     atom   19 type  3   force =    -0.04064494   -0.16084411    0.07174513
     atom   20 type  3   force =    -0.11966348    0.05545397   -0.12396445
     atom   21 type  2   force =     0.16220392    0.10203493    0.04994900
     atom   22 type  4   force =    -0.01022246   -0.01886427    0.03927751
     atom   23 type  1   force =     0.01255153   -0.00202297   -0.00464607
     atom   24 type  4   force =     0.00266912    0.02672349    0.02942655
     atom   25 type  1   force =     0.00679743   -0.00336072   -0.00206817
     atom   26 type  1   force =    -0.00398565    0.00732786   -0.00831382
     atom   27 type  4   force =     0.02954722   -0.00601357   -0.02159863
     atom   28 type  1   force =    -0.01447134    0.00698050   -0.01248501
     atom   29 type  3   force =    -0.06588312   -0.15311940    0.15287556
     atom   30 type  3   force =     0.19692157    0.10082289    0.06146482
     atom   31 type  2   force =    -0.12482923    0.05232051   -0.21046338
     atom   32 type  4   force =     0.03243942   -0.02020117    0.01516991
     atom   33 type  3   force =     0.04064494   -0.16084411   -0.07174513
     atom   34 type  3   force =     0.11966348    0.05545397    0.12396445
     atom   35 type  2   force =    -0.16220392    0.10203493   -0.04994900
     atom   36 type  4   force =     0.01022246   -0.01886427   -0.03927751
     atom   37 type  1   force =    -0.01255153   -0.00202297    0.00464607
     atom   38 type  4   force =    -0.00266912    0.02672349   -0.02942655
     atom   39 type  1   force =    -0.00679743   -0.00336072    0.00206817
     atom   40 type  1   force =     0.00398565    0.00732786    0.00831382
     atom   41 type  4   force =    -0.02954722   -0.00601357    0.02159863
     atom   42 type  1   force =     0.01447134    0.00698050    0.01248501
     atom   43 type  3   force =    -0.06588312    0.15311940    0.15287556
     atom   44 type  3   force =     0.19692157   -0.10082289    0.06146482
     atom   45 type  2   force =    -0.12482923   -0.05232051   -0.21046338
     atom   46 type  4   force =     0.03243942    0.02020117    0.01516991
     atom   47 type  3   force =     0.04064494    0.16084411   -0.07174513
     atom   48 type  3   force =     0.11966348   -0.05545397    0.12396445
     atom   49 type  2   force =    -0.16220392   -0.10203493   -0.04994900
     atom   50 type  4   force =     0.01022246    0.01886427   -0.03927751
     atom   51 type  1   force =    -0.01255153    0.00202297    0.00464607
     atom   52 type  4   force =    -0.00266912   -0.02672349   -0.02942655
     atom   53 type  1   force =    -0.00679743    0.00336072    0.00206817
     atom   54 type  1   force =     0.00398565   -0.00732786    0.00831382
     atom   55 type  4   force =    -0.02954722    0.00601357    0.02159863
     atom   56 type  1   force =     0.01447134   -0.00698050    0.01248501
     The non-local contrib.  to forces
     atom    1 type  1   force =     0.17568725    0.38345148    0.11464903
     atom    2 type  4   force =    -2.40937089   -0.47323096    1.52927927
     atom    3 type  1   force =     0.04369963   -0.03290203    0.05161261
     atom    4 type  1   force =    -0.57738224   -0.42458911   -0.12873170
     atom    5 type  4   force =     0.15265751    1.85539543   -2.23060794
     atom    6 type  1   force =    -0.00443450    0.06437591    0.05520193
     atom    7 type  4   force =     0.52777576   -1.16614862   -2.61923721
     atom    8 type  2   force =     0.63138272   -0.42754513    0.17905768
     atom    9 type  3   force =     0.07731975    0.02722932    0.06768997
     atom   10 type  3   force =     0.02830002   -0.09666069   -0.03773298
     atom   11 type  4   force =     2.27275047   -1.47235354    0.84017339
     atom   12 type  2   force =     0.39210685   -0.18584413    0.69742371
     atom   13 type  3   force =     0.09518276    0.04760228    0.03762626
     atom   14 type  3   force =    -0.02904883   -0.07455711    0.08036815
     atom   15 type  3   force =    -0.02904883    0.07455711    0.08036815
     atom   16 type  3   force =     0.09518276   -0.04760228    0.03762626
     atom   17 type  2   force =     0.39210685    0.18584413    0.69742371
     atom   18 type  4   force =     2.27275047    1.47235354    0.84017339
     atom   19 type  3   force =     0.02830002    0.09666069   -0.03773298
     atom   20 type  3   force =     0.07731975   -0.02722932    0.06768997
     atom   21 type  2   force =     0.63138272    0.42754513    0.17905768
     atom   22 type  4   force =     0.52777576    1.16614862   -2.61923721
     atom   23 type  1   force =    -0.00443450   -0.06437591    0.05520193
     atom   24 type  4   force =     0.15265751   -1.85539543   -2.23060794
     atom   25 type  1   force =    -0.57738224    0.42458911   -0.12873170
     atom   26 type  1   force =     0.04369963    0.03290203    0.05161261
     atom   27 type  4   force =    -2.40937089    0.47323096    1.52927927
     atom   28 type  1   force =     0.17568725   -0.38345148    0.11464903
     atom   29 type  3   force =     0.02904883    0.07455711   -0.08036815
     atom   30 type  3   force =    -0.09518276   -0.04760228   -0.03762626
     atom   31 type  2   force =    -0.39210685    0.18584413   -0.69742371
     atom   32 type  4   force =    -2.27275047    1.47235354   -0.84017339
     atom   33 type  3   force =    -0.02830002    0.09666069    0.03773298
     atom   34 type  3   force =    -0.07731975   -0.02722932   -0.06768997
     atom   35 type  2   force =    -0.63138272    0.42754513   -0.17905768
     atom   36 type  4   force =    -0.52777576    1.16614862    2.61923721
     atom   37 type  1   force =     0.00443450   -0.06437591   -0.05520193
     atom   38 type  4   force =    -0.15265751   -1.85539543    2.23060794
     atom   39 type  1   force =     0.57738224    0.42458911    0.12873170
     atom   40 type  1   force =    -0.04369963    0.03290203   -0.05161261
     atom   41 type  4   force =     2.40937089    0.47323096   -1.52927927
     atom   42 type  1   force =    -0.17568725   -0.38345148   -0.11464903
     atom   43 type  3   force =     0.02904883   -0.07455711   -0.08036815
     atom   44 type  3   force =    -0.09518276    0.04760228   -0.03762626
     atom   45 type  2   force =    -0.39210685   -0.18584413   -0.69742371
     atom   46 type  4   force =    -2.27275047   -1.47235354   -0.84017339
     atom   47 type  3   force =    -0.02830002   -0.09666069    0.03773298
     atom   48 type  3   force =    -0.07731975    0.02722932   -0.06768997
     atom   49 type  2   force =    -0.63138272   -0.42754513   -0.17905768
     atom   50 type  4   force =    -0.52777576   -1.16614862    2.61923721
     atom   51 type  1   force =     0.00443450    0.06437591   -0.05520193
     atom   52 type  4   force =    -0.15265751    1.85539543    2.23060794
     atom   53 type  1   force =     0.57738224   -0.42458911    0.12873170
     atom   54 type  1   force =    -0.04369963   -0.03290203   -0.05161261
     atom   55 type  4   force =     2.40937089   -0.47323096   -1.52927927
     atom   56 type  1   force =    -0.17568725    0.38345148   -0.11464903
     The ionic contribution  to forces
     atom    1 type  1   force =    -3.04749591    0.21766414   -1.99240599
     atom    2 type  4   force =    12.22001344    4.20543766   -5.95129811
     atom    3 type  1   force =    -0.25343708    1.58648813    0.02568761
     atom    4 type  1   force =     2.78945071    2.83954108    2.01969096
     atom    5 type  4   force =    -1.25508253   -8.51663178   11.31585330
     atom    6 type  1   force =    -0.34741973    0.05591994    1.04189888
     atom    7 type  4   force =    -2.03687615    6.22892756   12.41631523
     atom    8 type  2   force =    -4.05962555    3.21951030   -1.21500043
     atom    9 type  3   force =    -2.20696654   -0.15642891   -1.95434125
     atom   10 type  3   force =    -1.22024029    2.73807927    0.68218894
     atom   11 type  4   force =   -11.08544922    6.11400670   -2.37954406
     atom   12 type  2   force =    -2.84331302    0.93991762   -4.69320934
     atom   13 type  3   force =    -2.61600476   -1.06554071   -1.55056573
     atom   14 type  3   force =     0.25824027    2.03089505   -2.52496382
     atom   15 type  3   force =     0.25824027   -2.03089505   -2.52496382
     atom   16 type  3   force =    -2.61600476    1.06554071   -1.55056573
     atom   17 type  2   force =    -2.84331302   -0.93991762   -4.69320934
     atom   18 type  4   force =   -11.08544922   -6.11400670   -2.37954406
     atom   19 type  3   force =    -1.22024029   -2.73807927    0.68218894
     atom   20 type  3   force =    -2.20696654    0.15642891   -1.95434125
     atom   21 type  2   force =    -4.05962555   -3.21951030   -1.21500043
     atom   22 type  4   force =    -2.03687615   -6.22892756   12.41631523
     atom   23 type  1   force =    -0.34741973   -0.05591994    1.04189888
     atom   24 type  4   force =    -1.25508253    8.51663178   11.31585330
     atom   25 type  1   force =     2.78945071   -2.83954108    2.01969096
     atom   26 type  1   force =    -0.25343708   -1.58648813    0.02568761
     atom   27 type  4   force =    12.22001344   -4.20543766   -5.95129811
     atom   28 type  1   force =    -3.04749591   -0.21766414   -1.99240599
     atom   29 type  3   force =    -0.25824027   -2.03089505    2.52496382
     atom   30 type  3   force =     2.61600476    1.06554071    1.55056573
     atom   31 type  2   force =     2.84331302   -0.93991762    4.69320934
     atom   32 type  4   force =    11.08544922   -6.11400670    2.37954406
     atom   33 type  3   force =     1.22024029   -2.73807927   -0.68218894
     atom   34 type  3   force =     2.20696654    0.15642891    1.95434125
     atom   35 type  2   force =     4.05962555   -3.21951030    1.21500043
     atom   36 type  4   force =     2.03687615   -6.22892756  -12.41631523
     atom   37 type  1   force =     0.34741973   -0.05591994   -1.04189888
     atom   38 type  4   force =     1.25508253    8.51663178  -11.31585330
     atom   39 type  1   force =    -2.78945071   -2.83954108   -2.01969096
     atom   40 type  1   force =     0.25343708   -1.58648813   -0.02568761
     atom   41 type  4   force =   -12.22001344   -4.20543766    5.95129811
     atom   42 type  1   force =     3.04749591   -0.21766414    1.99240599
     atom   43 type  3   force =    -0.25824027    2.03089505    2.52496382
     atom   44 type  3   force =     2.61600476   -1.06554071    1.55056573
     atom   45 type  2   force =     2.84331302    0.93991762    4.69320934
     atom   46 type  4   force =    11.08544922    6.11400670    2.37954406
     atom   47 type  3   force =     1.22024029    2.73807927   -0.68218894
     atom   48 type  3   force =     2.20696654   -0.15642891    1.95434125
     atom   49 type  2   force =     4.05962555    3.21951030    1.21500043
     atom   50 type  4   force =     2.03687615    6.22892756  -12.41631523
     atom   51 type  1   force =     0.34741973    0.05591994   -1.04189888
     atom   52 type  4   force =     1.25508253   -8.51663178  -11.31585330
     atom   53 type  1   force =    -2.78945071    2.83954108   -2.01969096
     atom   54 type  1   force =     0.25343708    1.58648813   -0.02568761
     atom   55 type  4   force =   -12.22001344    4.20543766    5.95129811
     atom   56 type  1   force =     3.04749591    0.21766414    1.99240599
     The local contribution  to forces
     atom    1 type  1   force =     2.86026763   -0.60171179    1.86712412
     atom    2 type  4   force =    -9.79967104   -3.72973242    4.41227075
     atom    3 type  1   force =     0.20536638   -1.56248072   -0.08546268
     atom    4 type  1   force =    -2.21464194   -2.41792891   -1.89475398
     atom    5 type  4   force =     1.10635293    6.64898203   -9.07341410
     atom    6 type  1   force =     0.36552232   -0.11624302   -1.10197451
     atom    7 type  4   force =     1.50293133   -5.05278870   -9.77795051
     atom    8 type  2   force =     3.60377165   -2.90362952    1.09076757
     atom    9 type  3   force =     2.00997411    0.07374027    1.76271078
     atom   10 type  3   force =     1.15128507   -2.48061584   -0.57270372
     atom   11 type  4   force =     8.79800208   -4.63287950    1.53070905
     atom   12 type  2   force =     2.58507364   -0.81034474    4.22189657
     atom   13 type  3   force =     2.32391320    0.91712162    1.45148351
     atom   14 type  3   force =    -0.16332215   -1.80322883    2.29173171
     atom   15 type  3   force =    -0.16332215    1.80322883    2.29173171
     atom   16 type  3   force =     2.32391320   -0.91712162    1.45148351
     atom   17 type  2   force =     2.58507364    0.81034474    4.22189657
     atom   18 type  4   force =     8.79800208    4.63287950    1.53070905
     atom   19 type  3   force =     1.15128507    2.48061584   -0.57270372
     atom   20 type  3   force =     2.00997411   -0.07374027    1.76271078
     atom   21 type  2   force =     3.60377165    2.90362952    1.09076757
     atom   22 type  4   force =     1.50293133    5.05278870   -9.77795051
     atom   23 type  1   force =     0.36552232    0.11624302   -1.10197451
     atom   24 type  4   force =     1.10635293   -6.64898203   -9.07341410
     atom   25 type  1   force =    -2.21464194    2.41792891   -1.89475398
     atom   26 type  1   force =     0.20536638    1.56248072   -0.08546268
     atom   27 type  4   force =    -9.79967104    3.72973242    4.41227075
     atom   28 type  1   force =     2.86026763    0.60171179    1.86712412
     atom   29 type  3   force =     0.16332215    1.80322883   -2.29173171
     atom   30 type  3   force =    -2.32391320   -0.91712162   -1.45148351
     atom   31 type  2   force =    -2.58507364    0.81034474   -4.22189657
     atom   32 type  4   force =    -8.79800208    4.63287950   -1.53070905
     atom   33 type  3   force =    -1.15128507    2.48061584    0.57270372
     atom   34 type  3   force =    -2.00997411   -0.07374027   -1.76271078
     atom   35 type  2   force =    -3.60377165    2.90362952   -1.09076757
     atom   36 type  4   force =    -1.50293133    5.05278870    9.77795051
     atom   37 type  1   force =    -0.36552232    0.11624302    1.10197451
     atom   38 type  4   force =    -1.10635293   -6.64898203    9.07341410
     atom   39 type  1   force =     2.21464194    2.41792891    1.89475398
     atom   40 type  1   force =    -0.20536638    1.56248072    0.08546268
     atom   41 type  4   force =     9.79967104    3.72973242   -4.41227075
     atom   42 type  1   force =    -2.86026763    0.60171179   -1.86712412
     atom   43 type  3   force =     0.16332215   -1.80322883   -2.29173171
     atom   44 type  3   force =    -2.32391320    0.91712162   -1.45148351
     atom   45 type  2   force =    -2.58507364   -0.81034474   -4.22189657
     atom   46 type  4   force =    -8.79800208   -4.63287950   -1.53070905
     atom   47 type  3   force =    -1.15128507   -2.48061584    0.57270372
     atom   48 type  3   force =    -2.00997411    0.07374027   -1.76271078
     atom   49 type  2   force =    -3.60377165   -2.90362952   -1.09076757
     atom   50 type  4   force =    -1.50293133   -5.05278870    9.77795051
     atom   51 type  1   force =    -0.36552232   -0.11624302    1.10197451
     atom   52 type  4   force =    -1.10635293    6.64898203    9.07341410
     atom   53 type  1   force =     2.21464194   -2.41792891    1.89475398
     atom   54 type  1   force =    -0.20536638   -1.56248072    0.08546268
     atom   55 type  4   force =     9.79967104   -3.72973242   -4.41227075
     atom   56 type  1   force =    -2.86026763   -0.60171179   -1.86712412
     The core correction contribution to forces
     atom    1 type  1   force =    -0.00304595   -0.00641760   -0.00185961
     atom    2 type  4   force =     0.01875526    0.00362012   -0.01190544
     atom    3 type  1   force =     0.00037509    0.00165452   -0.00000814
     atom    4 type  1   force =     0.00930153    0.00643843    0.00170628
     atom    5 type  4   force =    -0.00123553   -0.01431364    0.01741327
     atom    6 type  1   force =    -0.00112794   -0.00159231   -0.00023620
     atom    7 type  4   force =    -0.00406479    0.00890424    0.02025412
     atom    8 type  2   force =    -0.01345017    0.00957721   -0.00475920
     atom    9 type  3   force =     0.00000000    0.00000000    0.00000000
     atom   10 type  3   force =     0.00000000    0.00000000    0.00000000
     atom   11 type  4   force =    -0.01770104    0.01153259   -0.00664259
     atom   12 type  2   force =    -0.00898064    0.00387986   -0.01571333
     atom   13 type  3   force =     0.00000000    0.00000000    0.00000000
     atom   14 type  3   force =     0.00000000    0.00000000    0.00000000
     atom   15 type  3   force =     0.00000000    0.00000000    0.00000000
     atom   16 type  3   force =     0.00000000    0.00000000    0.00000000
     atom   17 type  2   force =    -0.00898064   -0.00387986   -0.01571333
     atom   18 type  4   force =    -0.01770104   -0.01153259   -0.00664259
     atom   19 type  3   force =     0.00000000    0.00000000    0.00000000
     atom   20 type  3   force =     0.00000000    0.00000000    0.00000000
     atom   21 type  2   force =    -0.01345017   -0.00957721   -0.00475920
     atom   22 type  4   force =    -0.00406479   -0.00890424    0.02025412
     atom   23 type  1   force =    -0.00112794    0.00159231   -0.00023620
     atom   24 type  4   force =    -0.00123553    0.01431364    0.01741327
     atom   25 type  1   force =     0.00930153   -0.00643843    0.00170628
     atom   26 type  1   force =     0.00037509   -0.00165452   -0.00000814
     atom   27 type  4   force =     0.01875526   -0.00362012   -0.01190544
     atom   28 type  1   force =    -0.00304595    0.00641760   -0.00185961
     atom   29 type  3   force =     0.00000000    0.00000000    0.00000000
     atom   30 type  3   force =     0.00000000    0.00000000    0.00000000
     atom   31 type  2   force =     0.00898064   -0.00387986    0.01571333
     atom   32 type  4   force =     0.01770104   -0.01153259    0.00664259
     atom   33 type  3   force =     0.00000000    0.00000000    0.00000000
     atom   34 type  3   force =     0.00000000    0.00000000    0.00000000
     atom   35 type  2   force =     0.01345017   -0.00957721    0.00475920
     atom   36 type  4   force =     0.00406479   -0.00890424   -0.02025412
     atom   37 type  1   force =     0.00112794    0.00159231    0.00023620
     atom   38 type  4   force =     0.00123553    0.01431364   -0.01741327
     atom   39 type  1   force =    -0.00930153   -0.00643843   -0.00170628
     atom   40 type  1   force =    -0.00037509   -0.00165452    0.00000814
     atom   41 type  4   force =    -0.01875526   -0.00362012    0.01190544
     atom   42 type  1   force =     0.00304595    0.00641760    0.00185961
     atom   43 type  3   force =     0.00000000    0.00000000    0.00000000
     atom   44 type  3   force =     0.00000000    0.00000000    0.00000000
     atom   45 type  2   force =     0.00898064    0.00387986    0.01571333
     atom   46 type  4   force =     0.01770104    0.01153259    0.00664259
     atom   47 type  3   force =     0.00000000    0.00000000    0.00000000
     atom   48 type  3   force =     0.00000000    0.00000000    0.00000000
     atom   49 type  2   force =     0.01345017    0.00957721    0.00475920
     atom   50 type  4   force =     0.00406479    0.00890424   -0.02025412
     atom   51 type  1   force =     0.00112794   -0.00159231    0.00023620
     atom   52 type  4   force =     0.00123553   -0.01431364   -0.01741327
     atom   53 type  1   force =    -0.00930153    0.00643843   -0.00170628
     atom   54 type  1   force =    -0.00037509    0.00165452    0.00000814
     atom   55 type  4   force =    -0.01875526    0.00362012    0.01190544
     atom   56 type  1   force =     0.00304595   -0.00641760    0.00185961
     The Hubbard contrib.    to forces
     atom    1 type  1   force =     0.00000000    0.00000000    0.00000000
     atom    2 type  4   force =     0.00000000    0.00000000    0.00000000
     atom    3 type  1   force =     0.00000000    0.00000000    0.00000000
     atom    4 type  1   force =     0.00000000    0.00000000    0.00000000
     atom    5 type  4   force =     0.00000000    0.00000000    0.00000000
     atom    6 type  1   force =     0.00000000    0.00000000    0.00000000
     atom    7 type  4   force =     0.00000000    0.00000000    0.00000000
     atom    8 type  2   force =     0.00000000    0.00000000    0.00000000
     atom    9 type  3   force =     0.00000000    0.00000000    0.00000000
     atom   10 type  3   force =     0.00000000    0.00000000    0.00000000
     atom   11 type  4   force =     0.00000000    0.00000000    0.00000000
     atom   12 type  2   force =     0.00000000    0.00000000    0.00000000
     atom   13 type  3   force =     0.00000000    0.00000000    0.00000000
     atom   14 type  3   force =     0.00000000    0.00000000    0.00000000
     atom   15 type  3   force =     0.00000000    0.00000000    0.00000000
     atom   16 type  3   force =     0.00000000    0.00000000    0.00000000
     atom   17 type  2   force =     0.00000000    0.00000000    0.00000000
     atom   18 type  4   force =     0.00000000    0.00000000    0.00000000
     atom   19 type  3   force =     0.00000000    0.00000000    0.00000000
     atom   20 type  3   force =     0.00000000    0.00000000    0.00000000
     atom   21 type  2   force =     0.00000000    0.00000000    0.00000000
     atom   22 type  4   force =     0.00000000    0.00000000    0.00000000
     atom   23 type  1   force =     0.00000000    0.00000000    0.00000000
     atom   24 type  4   force =     0.00000000    0.00000000    0.00000000
     atom   25 type  1   force =     0.00000000    0.00000000    0.00000000
     atom   26 type  1   force =     0.00000000    0.00000000    0.00000000
     atom   27 type  4   force =     0.00000000    0.00000000    0.00000000
     atom   28 type  1   force =     0.00000000    0.00000000    0.00000000
     atom   29 type  3   force =     0.00000000    0.00000000    0.00000000
     atom   30 type  3   force =     0.00000000    0.00000000    0.00000000
     atom   31 type  2   force =     0.00000000    0.00000000    0.00000000
     atom   32 type  4   force =     0.00000000    0.00000000    0.00000000
     atom   33 type  3   force =     0.00000000    0.00000000    0.00000000
     atom   34 type  3   force =     0.00000000    0.00000000    0.00000000
     atom   35 type  2   force =     0.00000000    0.00000000    0.00000000
     atom   36 type  4   force =     0.00000000    0.00000000    0.00000000
     atom   37 type  1   force =     0.00000000    0.00000000    0.00000000
     atom   38 type  4   force =     0.00000000    0.00000000    0.00000000
     atom   39 type  1   force =     0.00000000    0.00000000    0.00000000
     atom   40 type  1   force =     0.00000000    0.00000000    0.00000000
     atom   41 type  4   force =     0.00000000    0.00000000    0.00000000
     atom   42 type  1   force =     0.00000000    0.00000000    0.00000000
     atom   43 type  3   force =     0.00000000    0.00000000    0.00000000
     atom   44 type  3   force =     0.00000000    0.00000000    0.00000000
     atom   45 type  2   force =     0.00000000    0.00000000    0.00000000
     atom   46 type  4   force =     0.00000000    0.00000000    0.00000000
     atom   47 type  3   force =     0.00000000    0.00000000    0.00000000
     atom   48 type  3   force =     0.00000000    0.00000000    0.00000000
     atom   49 type  2   force =     0.00000000    0.00000000    0.00000000
     atom   50 type  4   force =     0.00000000    0.00000000    0.00000000
     atom   51 type  1   force =     0.00000000    0.00000000    0.00000000
     atom   52 type  4   force =     0.00000000    0.00000000    0.00000000
     atom   53 type  1   force =     0.00000000    0.00000000    0.00000000
     atom   54 type  1   force =     0.00000000    0.00000000    0.00000000
     atom   55 type  4   force =     0.00000000    0.00000000    0.00000000
     atom   56 type  1   force =     0.00000000    0.00000000    0.00000000
     The SCF correction term to forces
     atom    1 type  1   force =     0.00011563    0.00003328    0.00000744
     atom    2 type  4   force =    -0.00017955   -0.00008083    0.00005490
     atom    3 type  1   force =     0.00001034   -0.00008776   -0.00014322
     atom    4 type  1   force =     0.00006936   -0.00010077    0.00002027
     atom    5 type  4   force =    -0.00002327   -0.00015553    0.00018202
     atom    6 type  1   force =     0.00001138   -0.00043756    0.00046383
     atom    7 type  4   force =     0.00001138   -0.00003021   -0.00010412
     atom    8 type  2   force =     0.00012526    0.00005221   -0.00011662
     atom    9 type  3   force =     0.00000920    0.00000535   -0.00002395
     atom   10 type  3   force =     0.00001026    0.00004137   -0.00000710
     atom   11 type  4   force =    -0.00004170   -0.00010507    0.00013429
     atom   12 type  2   force =    -0.00005760    0.00007088    0.00006578
     atom   13 type  3   force =    -0.00001277   -0.00000608   -0.00000885
     atom   14 type  3   force =     0.00001384    0.00001029   -0.00001161
     atom   15 type  3   force =     0.00001384   -0.00001029   -0.00001161
     atom   16 type  3   force =    -0.00001277    0.00000608   -0.00000885
     atom   17 type  2   force =    -0.00005760   -0.00007088    0.00006578
     atom   18 type  4   force =    -0.00004170    0.00010507    0.00013429
     atom   19 type  3   force =     0.00001026   -0.00004137   -0.00000710
     atom   20 type  3   force =     0.00000920   -0.00000535   -0.00002395
     atom   21 type  2   force =     0.00012526   -0.00005221   -0.00011662
     atom   22 type  4   force =     0.00001138    0.00003021   -0.00010412
     atom   23 type  1   force =     0.00001138    0.00043756    0.00046383
     atom   24 type  4   force =    -0.00002327    0.00015553    0.00018202
     atom   25 type  1   force =     0.00006936    0.00010077    0.00002027
     atom   26 type  1   force =     0.00001034    0.00008776   -0.00014322
     atom   27 type  4   force =    -0.00017955    0.00008083    0.00005490
     atom   28 type  1   force =     0.00011563   -0.00003328    0.00000744
     atom   29 type  3   force =    -0.00001384   -0.00001029    0.00001161
     atom   30 type  3   force =     0.00001277    0.00000608    0.00000885
     atom   31 type  2   force =     0.00005760   -0.00007088   -0.00006578
     atom   32 type  4   force =     0.00004170    0.00010507   -0.00013429
     atom   33 type  3   force =    -0.00001026   -0.00004137    0.00000710
     atom   34 type  3   force =    -0.00000920   -0.00000535    0.00002395
     atom   35 type  2   force =    -0.00012526   -0.00005221    0.00011662
     atom   36 type  4   force =    -0.00001138    0.00003021    0.00010412
     atom   37 type  1   force =    -0.00001138    0.00043756   -0.00046383
     atom   38 type  4   force =     0.00002327    0.00015553   -0.00018202
     atom   39 type  1   force =    -0.00006936    0.00010077   -0.00002027
     atom   40 type  1   force =    -0.00001034    0.00008776    0.00014322
     atom   41 type  4   force =     0.00017955    0.00008083   -0.00005490
     atom   42 type  1   force =    -0.00011563   -0.00003328   -0.00000744
     atom   43 type  3   force =    -0.00001384    0.00001029    0.00001161
     atom   44 type  3   force =     0.00001277   -0.00000608    0.00000885
     atom   45 type  2   force =     0.00005760    0.00007088   -0.00006578
     atom   46 type  4   force =     0.00004170   -0.00010507   -0.00013429
     atom   47 type  3   force =    -0.00001026    0.00004137    0.00000710
     atom   48 type  3   force =    -0.00000920    0.00000535    0.00002395
     atom   49 type  2   force =    -0.00012526    0.00005221    0.00011662
     atom   50 type  4   force =    -0.00001138   -0.00003021    0.00010412
     atom   51 type  1   force =    -0.00001138   -0.00043756   -0.00046383
     atom   52 type  4   force =     0.00002327   -0.00015553   -0.00018202
     atom   53 type  1   force =    -0.00006936   -0.00010077   -0.00002027
     atom   54 type  1   force =    -0.00001034   -0.00008776    0.00014322
     atom   55 type  4   force =     0.00017955   -0.00008083   -0.00005490
     atom   56 type  1   force =    -0.00011563    0.00003328   -0.00000744

     Total force =     1.055642     Total SCF correction =     0.001619


     entering subroutine stress ...

          total   stress  (Ry/bohr**3)                   (kbar)     P=  134.28
   0.00093935   0.00000000   0.00010740        138.18      0.00     15.80
   0.00000000   0.00092732   0.00000000          0.00    136.41      0.00
   0.00010740   0.00000000   0.00087179         15.80      0.00    128.24

     kinetic stress (kbar)  15321.55      0.00    327.69
                                0.00  15755.05      0.00
                              327.69      0.00  15293.21

     local   stress (kbar) -15731.00     -0.00   7849.62
                               -0.00  -8727.19      0.00
                             7849.62      0.00 -11840.40

     nonloc. stress (kbar)   1039.81      0.00     10.99
                                0.00   1050.02      0.00
                               10.99      0.00   1009.95

     hartree stress (kbar)   7076.36     -0.00  -2867.71
                               -0.00   5037.18     -0.00
                            -2867.71     -0.00   5606.86

     exc-cor stress (kbar)  -2211.04     -0.00    -10.86
                               -0.00  -2231.87     -0.00
                              -10.86     -0.00  -2217.09

     corecor stress (kbar)  -1149.34     -0.00     -2.74
                               -0.00  -1151.36      0.00
                               -2.74      0.00  -1148.96

     ewald   stress (kbar)  -4208.15      0.00  -5291.19
                                0.00  -9595.42     -0.00
                            -5291.19     -0.00  -6575.33

     hubbard stress (kbar)      0.00      0.00      0.00
                                0.00      0.00      0.00
                                0.00      0.00      0.00

     london  stress (kbar)      0.00      0.00      0.00
                                0.00      0.00      0.00
                                0.00      0.00      0.00

     XDM     stress (kbar)      0.00      0.00      0.00
                                0.00      0.00      0.00
                                0.00      0.00      0.00

     dft-nl  stress (kbar)      0.00      0.00      0.00
                                0.00      0.00      0.00
                                0.00      0.00      0.00

     TS-vdW  stress (kbar)      0.00      0.00      0.00
                                0.00      0.00      0.00
                                0.00      0.00      0.00



     Writing output data file scf.pbe.ec-180.kp-444.HMX-792934.np-8.default-conv-thr.save

     init_run     :   1067.47s CPU   1143.95s WALL (       1 calls)
     electrons    :  27225.18s CPU  37694.66s WALL (       1 calls)
     forces       :    577.36s CPU   1734.96s WALL (       1 calls)
     stress       :   1504.99s CPU   1790.03s WALL (       1 calls)

     Called by init_run:
     wfcinit      :    782.74s CPU    839.47s WALL (       1 calls)
     potinit      :     94.63s CPU    102.40s WALL (       1 calls)

     Called by electrons:
     c_bands      :  23451.69s CPU  31360.17s WALL (      12 calls)
     sum_band     :   3408.54s CPU   4421.36s WALL (      12 calls)
     v_of_rho     :    101.56s CPU    209.03s WALL (      13 calls)
     v_h          :      9.31s CPU     10.00s WALL (      13 calls)
     v_xc         :    107.61s CPU    246.90s WALL (      15 calls)
     newd         :    230.00s CPU   1097.87s WALL (      13 calls)
     PAW_pot      :     10.62s CPU     34.20s WALL (      13 calls)
     mix_rho      :     24.43s CPU    224.96s WALL (      12 calls)

     Called by c_bands:
     init_us_2    :    107.99s CPU    390.17s WALL (     432 calls)
     cegterg      :  23116.18s CPU  28095.82s WALL (     192 calls)

     Called by sum_band:
     sum_band:bec :      0.21s CPU      0.39s WALL (     192 calls)
     addusdens    :    290.33s CPU    620.78s WALL (      12 calls)

     Called by *egterg:
     h_psi        :  14788.93s CPU  18524.87s WALL (    1137 calls)
     s_psi        :   1966.88s CPU   2068.13s WALL (    1137 calls)
     g_psi        :     17.08s CPU     21.61s WALL (     929 calls)
     cdiaghg      :    288.71s CPU    327.11s WALL (    1121 calls)
     cegterg:over :   3357.98s CPU   3927.09s WALL (     929 calls)
     cegterg:upda :   1372.51s CPU   1428.95s WALL (     929 calls)
     cegterg:last :    652.11s CPU    779.87s WALL (     197 calls)

     Called by h_psi:
     h_psi:vloc   :   9795.45s CPU  10377.09s WALL (    1137 calls)
     h_psi:vnl    :   4928.26s CPU   8079.17s WALL (    1137 calls)
     add_vuspsi   :   1972.66s CPU   2150.54s WALL (    1137 calls)

     General routines
     calbec       :   4097.98s CPU   7239.04s WALL (    1409 calls)
     fft          :    171.39s CPU    371.13s WALL (     229 calls)
     ffts         :      4.43s CPU     14.54s WALL (      25 calls)
     fftw         :   5700.38s CPU   6353.04s WALL (  162108 calls)
     interpolate  :     28.46s CPU    182.04s WALL (      25 calls)
     davcio       :      1.63s CPU    103.63s WALL (      16 calls)

     Parallel routines
     fft_scatter  :   2447.54s CPU   3240.00s WALL (  162362 calls)

     PAW routines
     PAW_pot      :     10.62s CPU     34.20s WALL (      13 calls)
     PAW_symme    :      0.26s CPU      1.72s WALL (      25 calls)

     PWSCF        :     8h26m CPU       11h49m WALL


   This run was terminated on:  23:28:17  26May2016            

=------------------------------------------------------------------------------=
   JOB DONE.
=------------------------------------------------------------------------------=
