
     Program PWSCF v.5.3.0 (svn rev. 11974) starts on 26May2016 at  5:30:43 

     This program is part of the open-source Quantum ESPRESSO suite
     for quantum simulation of materials; please cite
         "P. Giannozzi et al., J. Phys.:Condens. Matter 21 395502 (2009);
          URL http://www.quantum-espresso.org", 
     in publications or presentations arising from this work. More details at
     http://www.quantum-espresso.org/quote

     Parallel version (MPI), running on     8 processors
     R & G space division:  proc/nbgrp/npool/nimage =       8
     Waiting for input...
     Reading input from standard input
Warning: card    &IONS ignored
Warning: card TRUST_RADIUS_MAX=0.2 ignored
Warning: card / ignored
Warning: card     &CELL ignored
Warning: card CELL_DYNAMICS='BFGS' ignored
Warning: card / ignored

     Current dimensions of program PWSCF are:
     Max number of different atomic species (ntypx) = 10
     Max number of k-points (npk) =  40000
     Max angular momentum in pseudopotentials (lmaxx) =  3
               file N.pbe-n-kjpaw_psl.1.0.0.UPF: wavefunction(s)  2S renormalized
               file C.pbe-n-kjpaw_psl.1.0.0.UPF: wavefunction(s)  2S 2P renormalized
               file H.pbe-kjpaw_psl.1.0.0.UPF: wavefunction(s)  1S renormalized
               file O.pbe-n-kjpaw_psl.1.0.0.UPF: wavefunction(s)  2S 2P renormalized

     Subspace diagonalization in iterative solution of the eigenvalue problem:
     a serial algorithm will be used


     Parallelization info
     --------------------
     sticks:   dense  smooth     PW     G-vecs:    dense   smooth      PW
     Min        3535    1414    372               379764    96039   12975
     Max        3536    1415    373               379766    96098   12977
     Sum       28287   11319   2977              3038121   768495  103809


     Title: 
     HMX-scf--kp-444-ec-140-default-conv-thr                                    


     bravais-lattice index     =            0
     lattice parameter (alat)  =       1.8897  a.u.
     unit-cell volume          =    3434.3216 (a.u.)^3
     number of atoms/cell      =           56
     number of atomic types    =            4
     number of electrons       =       224.00
     number of Kohn-Sham states=          112
     kinetic-energy cutoff     =     140.0000  Ry
     charge density cutoff     =    1400.0000  Ry
     convergence threshold     =      1.0E-06
     mixing beta               =       0.7000
     number of iterations used =            8  plain     mixing
     Exchange-correlation      =  SLA  PW   PBX  PBC ( 1  4  3  4 0 0)

     celldm(1)=   1.889726  celldm(2)=   0.000000  celldm(3)=   0.000000
     celldm(4)=   0.000000  celldm(5)=   0.000000  celldm(6)=   0.000000

     crystal axes: (cart. coord. in units of alat)
               a(1) = (   6.528800   0.000000   0.000000 )  
               a(2) = (   0.000000  10.886200   0.000000 )  
               a(3) = (  -1.569722   0.000000   7.160359 )  

     reciprocal axes: (cart. coord. in units 2 pi/alat)
               b(1) = (  0.153168 -0.000000  0.033578 )  
               b(2) = (  0.000000  0.091859 -0.000000 )  
               b(3) = (  0.000000  0.000000  0.139658 )  


     PseudoPot. # 1 for  N read from file:
     /users/majewski/.data/PSEUDOPOTENTIALS/N.pbe-n-kjpaw_psl.1.0.0.UPF
     MD5 check sum: c21df8f53e59d08c3548513d559cdda6
     Pseudo is Projector augmented-wave + core cor, Zval =  5.0
     Generated using "atomic" code by A. Dal Corso  v.5.3.0 svn rev. 11974
     Shape of augmentation charge: PSQ
     Using radial grid of 1085 points,  4 beta functions with: 
                l(1) =   0
                l(2) =   0
                l(3) =   1
                l(4) =   1
     Q(r) pseudized with 0 coefficients 


     PseudoPot. # 2 for  C read from file:
     /users/majewski/.data/PSEUDOPOTENTIALS/C.pbe-n-kjpaw_psl.1.0.0.UPF
     MD5 check sum: 2ba8448e293caca687844dde9a1b88a8
     Pseudo is Projector augmented-wave + core cor, Zval =  4.0
     Generated using "atomic" code by A. Dal Corso  v.5.3.0 svn rev. 11974
     Shape of augmentation charge: PSQ
     Using radial grid of 1073 points,  4 beta functions with: 
                l(1) =   0
                l(2) =   0
                l(3) =   1
                l(4) =   1
     Q(r) pseudized with 0 coefficients 


     PseudoPot. # 3 for  H read from file:
     /users/majewski/.data/PSEUDOPOTENTIALS/H.pbe-kjpaw_psl.1.0.0.UPF
     MD5 check sum: bc0feb48a24907a0b97fa6ee2d589a29
     Pseudo is Projector augmented-wave, Zval =  1.0
     Generated using "atomic" code by A. Dal Corso  v.5.3.0 svn rev. 11974
     Shape of augmentation charge: PSQ
     Using radial grid of  929 points,  2 beta functions with: 
                l(1) =   0
                l(2) =   0
     Q(r) pseudized with 0 coefficients 


     PseudoPot. # 4 for  O read from file:
     /users/majewski/.data/PSEUDOPOTENTIALS/O.pbe-n-kjpaw_psl.1.0.0.UPF
     MD5 check sum: 9c0ade6c043cf4a781bde3908a3a8206
     Pseudo is Projector augmented-wave + core cor, Zval =  6.0
     Generated using "atomic" code by A. Dal Corso  v.5.3.0 svn rev. 11974
     Shape of augmentation charge: PSQ
     Using radial grid of 1095 points,  4 beta functions with: 
                l(1) =   0
                l(2) =   0
                l(3) =   1
                l(4) =   1
     Q(r) pseudized with 0 coefficients 


     atomic species   valence    mass     pseudopotential
        N              5.00    14.00670      N( 1.00)
        C              4.00    12.01100      C( 1.00)
        H              1.00     1.00790      H( 1.00)
        O              6.00    15.99940      O( 1.00)

      4 Sym. Ops., with inversion, found ( 2 have fractional translation)


                                    s                        frac. trans.

      isym =  1     identity                                     

 cryst.   s( 1) = (     1          0          0      )
                  (     0          1          0      )
                  (     0          0          1      )

 cart.    s( 1) = (  1.0000000  0.0000000 -0.0000000 )
                  (  0.0000000  1.0000000  0.0000000 )
                  (  0.0000000  0.0000000  1.0000000 )


      isym =  2     180 deg rotation - cart. axis [0,1,0]        

 cryst.   s( 2) = (    -1          0          0      )    f =( -0.5000000 )
                  (     0          1          0      )       (  0.5000000 )
                  (     0          0         -1      )       (  0.5000000 )

 cart.    s( 2) = ( -1.0000000  0.0000000  0.0000000 )    f =( -4.0492611 )
                  (  0.0000000  1.0000000  0.0000000 )       (  5.4431000 )
                  (  0.0000000  0.0000000 -1.0000000 )       (  3.5801793 )


      isym =  3     inversion                                    

 cryst.   s( 3) = (    -1          0          0      )
                  (     0         -1          0      )
                  (     0          0         -1      )

 cart.    s( 3) = ( -1.0000000  0.0000000  0.0000000 )
                  (  0.0000000 -1.0000000  0.0000000 )
                  (  0.0000000  0.0000000 -1.0000000 )


      isym =  4     inv. 180 deg rotation - cart. axis [0,1,0]   

 cryst.   s( 4) = (     1          0          0      )    f =(  0.5000000 )
                  (     0         -1          0      )       (  0.5000000 )
                  (     0          0          1      )       (  0.5000000 )

 cart.    s( 4) = (  1.0000000  0.0000000 -0.0000000 )    f =(  2.4795389 )
                  (  0.0000000 -1.0000000  0.0000000 )       (  5.4431000 )
                  (  0.0000000  0.0000000  1.0000000 )       (  3.5801793 )


   Cartesian axes

     site n.     atom                  positions (alat units)
         1           N   tau(   1) = (  -0.8426245   6.7855862   3.2921181  )
         2           O   tau(   2) = (   1.0977498   7.8431805   3.1142548  )
         3           N   tau(   3) = (   0.0878624   7.6610544   3.7918395  )
         4           N   tau(   4) = (  -2.0432575   5.7306045   5.0613711  )
         5           O   tau(   5) = (  -3.2412146   4.6709418   6.6135221  )
         6           N   tau(   6) = (  -3.2299512   5.4696623   5.6821026  )
         7           O   tau(   7) = (  -0.1459332   8.1504979   4.8880905  )
         8           C   tau(   8) = (  -2.1183376   6.7096005   3.9540933  )
         9           H   tau(   9) = (  -2.8150805   6.4315670   3.3080857  )
        10           H   tau(  10) = (  -2.3643338   7.5996562   4.3105359  )
        11           O   tau(  11) = (  -4.2038894   6.1117304   5.2775424  )
        12           C   tau(  12) = (  -0.5824458   6.1523359   2.0058313  )
        13           H   tau(  13) = (  -1.4089366   5.7337615   1.7184861  )
        14           H   tau(  14) = (  -0.3166458   6.7940774   1.3282465  )
        15           H   tau(  15) = (   3.7326153  -1.3509774  -2.2519328  )
        16           H   tau(  16) = (   2.6403245  -0.2906615  -1.8616933  )
        17           C   tau(  17) = (   3.4668152  -0.7092359  -1.5743481  )
        18           O   tau(  18) = (  -0.1546283  -0.6686304   1.6973630  )
        19           H   tau(  19) = (   1.6849272  -2.1565562   0.7303566  )
        20           H   tau(  20) = (   1.2341806  -0.9884670  -0.2720936  )
        21           C   tau(  21) = (   1.9309234  -1.2665005   0.3739139  )
        22           O   tau(  22) = (   3.9033278  -2.7073979   1.3079111  )
        23           N   tau(  23) = (   0.8193099  -0.0265623   2.1019233  )
        24           O   tau(  24) = (   0.8080465   0.7721582   3.0333428  )
        25           N   tau(  25) = (   2.0060036  -0.2875045   1.4811918  )
        26           N   tau(  26) = (   4.1371235  -2.2179544   0.2116602  )
        27           O   tau(  27) = (   5.1470109  -2.4000805  -0.4659245  )
        28           N   tau(  28) = (   3.2066365  -1.3424862  -0.2880612  )
        29           H   tau(  29) = (  -1.2530763   4.0921226   5.8321122  )
        30           H   tau(  30) = (  -0.1607855   5.1524385   5.4418726  )
        31           C   tau(  31) = (  -0.9872763   4.7338641   5.1545274  )
        32           O   tau(  32) = (   2.6341672   4.7744696   1.8828163  )
        33           H   tau(  33) = (   0.7946117   3.2865438   2.8498228  )
        34           H   tau(  34) = (   1.2453584   4.4546330   3.8522730  )
        35           C   tau(  35) = (   0.5486155   4.1765995   3.2062654  )
        36           O   tau(  36) = (  -1.4237889   2.7357021   2.2722682  )
        37           N   tau(  37) = (   1.6602291   5.4165377   1.4782561  )
        38           O   tau(  38) = (   1.6714925   6.2152582   0.5468366  )
        39           N   tau(  39) = (   0.4735353   5.1555955   2.0989875  )
        40           N   tau(  40) = (  -1.6575845   3.2251456   3.3685191  )
        41           O   tau(  41) = (  -2.6674719   3.0430195   4.0461039  )
        42           N   tau(  42) = (  -0.7270976   4.1006138   3.8682406  )
        43           H   tau(  43) = (   2.7961847   1.3509774   2.2519328  )
        44           H   tau(  44) = (   3.8884755   0.2906615   1.8616933  )
        45           C   tau(  45) = (   3.0619848   0.7092359   1.5743481  )
        46           O   tau(  46) = (   6.6834283   0.6686304  -1.6973630  )
        47           H   tau(  47) = (   4.8438728   2.1565562  -0.7303566  )
        48           H   tau(  48) = (   5.2946194   0.9884670   0.2720936  )
        49           C   tau(  49) = (   4.5978766   1.2665005  -0.3739139  )
        50           O   tau(  50) = (   2.6254722   2.7073979  -1.3079111  )
        51           N   tau(  51) = (   5.7094901   0.0265623  -2.1019233  )
        52           O   tau(  52) = (   5.7207535  -0.7721582  -3.0333428  )
        53           N   tau(  53) = (   4.5227964   0.2875045  -1.4811918  )
        54           N   tau(  54) = (   2.3916765   2.2179544  -0.2116602  )
        55           O   tau(  55) = (   1.3817891   2.4000805   0.4659245  )
        56           N   tau(  56) = (   3.3221635   1.3424862   0.2880612  )

   Crystallographic axes

     site n.     atom                  positions (cryst. coord.)
         1           N   tau(   1) = ( -0.0185200  0.6233200  0.4597700  )
         2           O   tau(   2) = (  0.2727100  0.7204700  0.4349300  )
         3           N   tau(   3) = (  0.1407800  0.7037400  0.5295600  )
         4           N   tau(   4) = ( -0.1430100  0.5264100  0.7068600  )
         5           O   tau(   5) = ( -0.2743800  0.4290700  0.9236300  )
         6           N   tau(   6) = ( -0.3039300  0.5024400  0.7935500  )
         7           O   tau(   7) = (  0.1417800  0.7487000  0.6826600  )
         8           C   tau(   8) = ( -0.1916900  0.6163400  0.5522200  )
         9           H   tau(   9) = ( -0.3201000  0.5908000  0.4620000  )
        10           H   tau(  10) = ( -0.2174000  0.6981000  0.6020000  )
        11           O   tau(  11) = ( -0.4666900  0.5614200  0.7370500  )
        12           C   tau(  12) = ( -0.0218600  0.5651500  0.2801300  )
        13           H   tau(  13) = ( -0.1581000  0.5267000  0.2400000  )
        14           H   tau(  14) = ( -0.0039000  0.6241000  0.1855000  )
        15           H   tau(  15) = (  0.4961000 -0.1241000 -0.3145000  )
        16           H   tau(  16) = (  0.3419000 -0.0267000 -0.2600000  )
        17           C   tau(  17) = (  0.4781400 -0.0651500 -0.2198700  )
        18           O   tau(  18) = (  0.0333100 -0.0614200  0.2370500  )
        19           H   tau(  19) = (  0.2826000 -0.1981000  0.1020000  )
        20           H   tau(  20) = (  0.1799000 -0.0908000 -0.0380000  )
        21           C   tau(  21) = (  0.3083100 -0.1163400  0.0522200  )
        22           O   tau(  22) = (  0.6417800 -0.2487000  0.1826600  )
        23           N   tau(  23) = (  0.1960700 -0.0024400  0.2935500  )
        24           O   tau(  24) = (  0.2256200  0.0709300  0.4236300  )
        25           N   tau(  25) = (  0.3569900 -0.0264100  0.2068600  )
        26           N   tau(  26) = (  0.6407800 -0.2037400  0.0295600  )
        27           O   tau(  27) = (  0.7727100 -0.2204700 -0.0650700  )
        28           N   tau(  28) = (  0.4814800 -0.1233200 -0.0402300  )
        29           H   tau(  29) = (  0.0039000  0.3759000  0.8145000  )
        30           H   tau(  30) = (  0.1581000  0.4733000  0.7600000  )
        31           C   tau(  31) = (  0.0218600  0.4348500  0.7198700  )
        32           O   tau(  32) = (  0.4666900  0.4385800  0.2629500  )
        33           H   tau(  33) = (  0.2174000  0.3019000  0.3980000  )
        34           H   tau(  34) = (  0.3201000  0.4092000  0.5380000  )
        35           C   tau(  35) = (  0.1916900  0.3836600  0.4477800  )
        36           O   tau(  36) = ( -0.1417800  0.2513000  0.3173400  )
        37           N   tau(  37) = (  0.3039300  0.4975600  0.2064500  )
        38           O   tau(  38) = (  0.2743800  0.5709300  0.0763700  )
        39           N   tau(  39) = (  0.1430100  0.4735900  0.2931400  )
        40           N   tau(  40) = ( -0.1407800  0.2962600  0.4704400  )
        41           O   tau(  41) = ( -0.2727100  0.2795300  0.5650700  )
        42           N   tau(  42) = (  0.0185200  0.3766800  0.5402300  )
        43           H   tau(  43) = (  0.5039000  0.1241000  0.3145000  )
        44           H   tau(  44) = (  0.6581000  0.0267000  0.2600000  )
        45           C   tau(  45) = (  0.5218600  0.0651500  0.2198700  )
        46           O   tau(  46) = (  0.9666900  0.0614200 -0.2370500  )
        47           H   tau(  47) = (  0.7174000  0.1981000 -0.1020000  )
        48           H   tau(  48) = (  0.8201000  0.0908000  0.0380000  )
        49           C   tau(  49) = (  0.6916900  0.1163400 -0.0522200  )
        50           O   tau(  50) = (  0.3582200  0.2487000 -0.1826600  )
        51           N   tau(  51) = (  0.8039300  0.0024400 -0.2935500  )
        52           O   tau(  52) = (  0.7743800 -0.0709300 -0.4236300  )
        53           N   tau(  53) = (  0.6430100  0.0264100 -0.2068600  )
        54           N   tau(  54) = (  0.3592200  0.2037400 -0.0295600  )
        55           O   tau(  55) = (  0.2272900  0.2204700  0.0650700  )
        56           N   tau(  56) = (  0.5185200  0.1233200  0.0402300  )

     number of k points=    16
                       cart. coord. in units 2pi/alat
        k(    1) = (   0.0191459   0.0114824   0.0216545), wk =   0.1250000
        k(    2) = (   0.0191459   0.0114824   0.0565689), wk =   0.1250000
        k(    3) = (   0.0191459   0.0114824  -0.0481744), wk =   0.1250000
        k(    4) = (   0.0191459   0.0114824  -0.0132600), wk =   0.1250000
        k(    5) = (   0.0191459   0.0344473   0.0216545), wk =   0.1250000
        k(    6) = (   0.0191459   0.0344473   0.0565689), wk =   0.1250000
        k(    7) = (   0.0191459   0.0344473  -0.0481744), wk =   0.1250000
        k(    8) = (   0.0191459   0.0344473  -0.0132600), wk =   0.1250000
        k(    9) = (   0.0574378   0.0114824   0.0300490), wk =   0.1250000
        k(   10) = (   0.0574378   0.0114824   0.0649634), wk =   0.1250000
        k(   11) = (   0.0574378   0.0114824  -0.0397799), wk =   0.1250000
        k(   12) = (   0.0574378   0.0114824  -0.0048655), wk =   0.1250000
        k(   13) = (   0.0574378   0.0344473   0.0300490), wk =   0.1250000
        k(   14) = (   0.0574378   0.0344473   0.0649634), wk =   0.1250000
        k(   15) = (   0.0574378   0.0344473  -0.0397799), wk =   0.1250000
        k(   16) = (   0.0574378   0.0344473  -0.0048655), wk =   0.1250000

                       cryst. coord.
        k(    1) = (   0.1250000   0.1250000   0.1250000), wk =   0.1250000
        k(    2) = (   0.1250000   0.1250000   0.3750000), wk =   0.1250000
        k(    3) = (   0.1250000   0.1250000  -0.3750000), wk =   0.1250000
        k(    4) = (   0.1250000   0.1250000  -0.1250000), wk =   0.1250000
        k(    5) = (   0.1250000   0.3750000   0.1250000), wk =   0.1250000
        k(    6) = (   0.1250000   0.3750000   0.3750000), wk =   0.1250000
        k(    7) = (   0.1250000   0.3750000  -0.3750000), wk =   0.1250000
        k(    8) = (   0.1250000   0.3750000  -0.1250000), wk =   0.1250000
        k(    9) = (   0.3750000   0.1250000   0.1250000), wk =   0.1250000
        k(   10) = (   0.3750000   0.1250000   0.3750000), wk =   0.1250000
        k(   11) = (   0.3750000   0.1250000  -0.3750000), wk =   0.1250000
        k(   12) = (   0.3750000   0.1250000  -0.1250000), wk =   0.1250000
        k(   13) = (   0.3750000   0.3750000   0.1250000), wk =   0.1250000
        k(   14) = (   0.3750000   0.3750000   0.3750000), wk =   0.1250000
        k(   15) = (   0.3750000   0.3750000  -0.3750000), wk =   0.1250000
        k(   16) = (   0.3750000   0.3750000  -0.1250000), wk =   0.1250000

     Dense  grid:  3038121 G-vectors     FFT dimensions: ( 150, 250, 180)

     Smooth grid:   768495 G-vectors     FFT dimensions: (  96, 160, 108)

     Largest allocated arrays     est. size (Mb)     dimensions
        Kohn-Sham Wavefunctions        20.51 Mb     (   12003,  112)
        NL pseudopotentials            64.47 Mb     (   12003,  352)
        Each V/rho on FFT grid         13.16 Mb     (  862500)
        Each G-vector array             2.90 Mb     (  379765)
        G-vector shells                 2.62 Mb     (  343285)
     Largest temporary arrays     est. size (Mb)     dimensions
        Auxiliary wavefunctions        82.05 Mb     (   12003,  448)
        Each subspace H/S matrix        3.06 Mb     (     448,  448)
        Each <psi_i|beta_j> matrix      0.60 Mb     (     352,  112)
        Arrays for rho mixing         105.29 Mb     (  862500,    8)

     Initial potential from superposition of free atoms

     starting charge  223.99937, renormalised to  224.00000
     Starting wfc are  176 randomized atomic wfcs
     Checking if some PAW data can be deallocated... 
       node    0, deallocated PAW data for type:  2
       node    0, deallocated PAW data for type:  3
       node    1, deallocated PAW data for type:  1
       node    2, deallocated PAW data for type:  1
       node    3, deallocated PAW data for type:  2
       node    3, deallocated PAW data for type:  3
       node    4, deallocated PAW data for type:  1
       node    5, deallocated PAW data for type:  2
       node    5, deallocated PAW data for type:  3
       node    6, deallocated PAW data for type:  1
       node    7, deallocated PAW data for type:  2
       node    7, deallocated PAW data for type:  3

     total cpu time spent up to now is      708.5 secs

     per-process dynamical memory:   604.0 Mb

     Self-consistent Calculation

     iteration #  1     ecut=   140.00 Ry     beta=0.70
     Davidson diagonalization with overlap
     ethr =  1.00E-02,  avg # of iterations =  3.0

     total cpu time spent up to now is     2236.7 secs

     total energy              =   -1279.68548612 Ry
     Harris-Foulkes estimate   =   -1283.98294469 Ry
     estimated scf accuracy    <       6.61974604 Ry

     iteration #  2     ecut=   140.00 Ry     beta=0.70
     Davidson diagonalization with overlap
     ethr =  2.96E-03,  avg # of iterations =  4.0

     total cpu time spent up to now is     3981.2 secs

     total energy              =   -1280.32845521 Ry
     Harris-Foulkes estimate   =   -1283.85258771 Ry
     estimated scf accuracy    <       7.14332057 Ry

     iteration #  3     ecut=   140.00 Ry     beta=0.70
     Davidson diagonalization with overlap
     ethr =  2.96E-03,  avg # of iterations =  4.6

     total cpu time spent up to now is     5265.8 secs

     total energy              =   -1281.85154867 Ry
     Harris-Foulkes estimate   =   -1282.09259257 Ry
     estimated scf accuracy    <       0.44783616 Ry

     iteration #  4     ecut=   140.00 Ry     beta=0.70
     Davidson diagonalization with overlap
     ethr =  2.00E-04,  avg # of iterations =  4.9

     total cpu time spent up to now is     6897.3 secs

     total energy              =   -1281.99964417 Ry
     Harris-Foulkes estimate   =   -1282.09508555 Ry
     estimated scf accuracy    <       0.21453807 Ry

     iteration #  5     ecut=   140.00 Ry     beta=0.70
     Davidson diagonalization with overlap
     ethr =  9.58E-05,  avg # of iterations =  4.1

     total cpu time spent up to now is     8223.8 secs

     total energy              =   -1282.04255797 Ry
     Harris-Foulkes estimate   =   -1282.05187046 Ry
     estimated scf accuracy    <       0.02281764 Ry

     iteration #  6     ecut=   140.00 Ry     beta=0.70
     Davidson diagonalization with overlap
     ethr =  1.02E-05,  avg # of iterations =  6.8

     total cpu time spent up to now is     9545.2 secs

     total energy              =   -1282.04595091 Ry
     Harris-Foulkes estimate   =   -1282.04754782 Ry
     estimated scf accuracy    <       0.00365700 Ry

     iteration #  7     ecut=   140.00 Ry     beta=0.70
     Davidson diagonalization with overlap
     ethr =  1.63E-06,  avg # of iterations =  4.4

     total cpu time spent up to now is    11170.3 secs

     total energy              =   -1282.04777249 Ry
     Harris-Foulkes estimate   =   -1282.04824950 Ry
     estimated scf accuracy    <       0.00116896 Ry

     iteration #  8     ecut=   140.00 Ry     beta=0.70
     Davidson diagonalization with overlap
     ethr =  5.22E-07,  avg # of iterations =  7.6

     total cpu time spent up to now is    12260.8 secs

     total energy              =   -1282.04789369 Ry
     Harris-Foulkes estimate   =   -1282.04792894 Ry
     estimated scf accuracy    <       0.00012301 Ry

     iteration #  9     ecut=   140.00 Ry     beta=0.70
     Davidson diagonalization with overlap
     ethr =  5.49E-08,  avg # of iterations =  4.6

     total cpu time spent up to now is    14031.9 secs

     total energy              =   -1282.04799222 Ry
     Harris-Foulkes estimate   =   -1282.04808175 Ry
     estimated scf accuracy    <       0.00023849 Ry

     iteration # 10     ecut=   140.00 Ry     beta=0.70
     Davidson diagonalization with overlap
     ethr =  5.49E-08,  avg # of iterations =  6.3

     total cpu time spent up to now is    15338.5 secs

     total energy              =   -1282.04803269 Ry
     Harris-Foulkes estimate   =   -1282.04803487 Ry
     estimated scf accuracy    <       0.00000546 Ry

     iteration # 11     ecut=   140.00 Ry     beta=0.70
     Davidson diagonalization with overlap
     ethr =  2.44E-09,  avg # of iterations =  5.0

     total cpu time spent up to now is    17066.5 secs

     total energy              =   -1282.04803488 Ry
     Harris-Foulkes estimate   =   -1282.04803581 Ry
     estimated scf accuracy    <       0.00000268 Ry

     iteration # 12     ecut=   140.00 Ry     beta=0.70
     Davidson diagonalization with overlap
     ethr =  1.20E-09,  avg # of iterations =  2.7

     total cpu time spent up to now is    18048.4 secs

     total energy              =   -1282.04803461 Ry
     Harris-Foulkes estimate   =   -1282.04803501 Ry
     estimated scf accuracy    <       0.00000105 Ry

     iteration # 13     ecut=   140.00 Ry     beta=0.70
     Davidson diagonalization with overlap
     ethr =  4.68E-10,  avg # of iterations =  4.7

     total cpu time spent up to now is    19698.1 secs

     total energy              =   -1282.04803525 Ry
     Harris-Foulkes estimate   =   -1282.04803552 Ry
     estimated scf accuracy    <       0.00000123 Ry

     iteration # 14     ecut=   140.00 Ry     beta=0.70
     Davidson diagonalization with overlap
     ethr =  4.68E-10,  avg # of iterations =  1.0

     total cpu time spent up to now is    20651.6 secs

     End of self-consistent calculation

          k = 0.0191 0.0115 0.0217 ( 96084 PWs)   bands (ev):

   -23.8378 -23.8142 -23.8032 -23.7933 -23.5098 -23.4990 -23.4981 -23.4960
   -19.0565 -19.0510 -19.0441 -19.0311 -18.7217 -18.7210 -18.7178 -18.7163
   -18.1505 -18.1222 -17.1203 -17.0661 -16.9746 -16.9710 -15.9594 -15.9461
   -12.0091 -11.9853 -11.9762 -11.8822 -11.8191 -11.7406 -11.6625 -11.6411
    -8.8013  -8.7605  -8.1765  -8.1377  -7.4638  -7.4170  -7.3389  -7.3339
    -6.7702  -6.6648  -6.5213  -6.4221  -6.4030  -6.3236  -6.2698  -6.1791
    -6.0419  -6.0075  -5.9849  -5.8499  -5.8055  -5.7259  -5.6538  -5.6148
    -5.5580  -5.5348  -5.4602  -5.4140  -5.0597  -4.9423  -4.8442  -4.8324
    -4.3597  -4.3491  -4.3207  -4.2741  -4.1286  -4.0186  -3.7880  -3.7756
    -3.6046  -3.4669  -3.4061  -3.3623  -3.0749  -3.0351  -2.9421  -2.9225
    -0.7162  -0.7134  -0.2389  -0.2326  -0.1306  -0.0835  -0.0198   0.0055
     0.0648   0.0924   0.2461   0.2823   0.2997   0.3319   0.4562   0.4689
     0.5102   0.5373   0.7089   0.7687   0.8534   0.9043   0.9574   0.9720
     1.0127   1.1121   1.1419   1.2039   1.2778   1.4228   1.4400   1.4639

     occupation numbers 
     1.0000   1.0000   1.0000   1.0000   1.0000   1.0000   1.0000   1.0000
     1.0000   1.0000   1.0000   1.0000   1.0000   1.0000   1.0000   1.0000
     1.0000   1.0000   1.0000   1.0000   1.0000   1.0000   1.0000   1.0000
     1.0000   1.0000   1.0000   1.0000   1.0000   1.0000   1.0000   1.0000
     1.0000   1.0000   1.0000   1.0000   1.0000   1.0000   1.0000   1.0000
     1.0000   1.0000   1.0000   1.0000   1.0000   1.0000   1.0000   1.0000
     1.0000   1.0000   1.0000   1.0000   1.0000   1.0000   1.0000   1.0000
     1.0000   1.0000   1.0000   1.0000   1.0000   1.0000   1.0000   1.0000
     1.0000   1.0000   1.0000   1.0000   1.0000   1.0000   1.0000   1.0000
     1.0000   1.0000   1.0000   1.0000   1.0000   1.0000   1.0000   1.0000
     1.0000   1.0000   1.0000   1.0000   1.0000   1.0000   1.0000   1.0000
     1.0000   1.0000   1.0000   1.0000   1.0000   1.0000   1.0000   1.0000
     1.0000   1.0000   1.0000   1.0000   1.0000   1.0000   1.0000   1.0000
     1.0000   1.0000   1.0000   1.0000   1.0000   1.0000   1.0000   1.0000

          k = 0.0191 0.0115 0.0566 ( 96085 PWs)   bands (ev):

   -23.8295 -23.8201 -23.7995 -23.7983 -23.5102 -23.5065 -23.4958 -23.4917
   -19.0551 -19.0500 -19.0448 -19.0344 -18.7278 -18.7270 -18.7125 -18.7102
   -18.1380 -18.1373 -17.0940 -17.0915 -16.9698 -16.9668 -15.9550 -15.9527
   -11.9942 -11.9860 -11.9531 -11.9297 -11.7769 -11.7612 -11.6716 -11.6602
    -8.7818  -8.7440  -8.1589  -8.1320  -7.4750  -7.4204  -7.3179  -7.2322
    -6.8198  -6.6924  -6.5061  -6.4603  -6.4517  -6.3427  -6.2936  -6.2554
    -6.0969  -6.0690  -5.8633  -5.8124  -5.7896  -5.7368  -5.7070  -5.6625
    -5.6127  -5.5551  -5.3797  -5.3303  -5.0634  -4.9833  -4.8391  -4.8010
    -4.3205  -4.3119  -4.2534  -4.1832  -4.0523  -4.0190  -3.9016  -3.8995
    -3.5789  -3.5170  -3.3453  -3.3332  -3.1013  -3.0973  -2.9235  -2.8972
    -0.6796  -0.6494  -0.2525  -0.2398  -0.1416  -0.1094  -0.0544  -0.0290
     0.0026   0.0419   0.1564   0.2187   0.3156   0.3720   0.4247   0.4382
     0.6209   0.6819   0.7351   0.7746   0.8611   0.8766   0.9160   0.9722
     1.0648   1.1104   1.1831   1.2048   1.2938   1.3729   1.4421   1.4680

     occupation numbers 
     1.0000   1.0000   1.0000   1.0000   1.0000   1.0000   1.0000   1.0000
     1.0000   1.0000   1.0000   1.0000   1.0000   1.0000   1.0000   1.0000
     1.0000   1.0000   1.0000   1.0000   1.0000   1.0000   1.0000   1.0000
     1.0000   1.0000   1.0000   1.0000   1.0000   1.0000   1.0000   1.0000
     1.0000   1.0000   1.0000   1.0000   1.0000   1.0000   1.0000   1.0000
     1.0000   1.0000   1.0000   1.0000   1.0000   1.0000   1.0000   1.0000
     1.0000   1.0000   1.0000   1.0000   1.0000   1.0000   1.0000   1.0000
     1.0000   1.0000   1.0000   1.0000   1.0000   1.0000   1.0000   1.0000
     1.0000   1.0000   1.0000   1.0000   1.0000   1.0000   1.0000   1.0000
     1.0000   1.0000   1.0000   1.0000   1.0000   1.0000   1.0000   1.0000
     1.0000   1.0000   1.0000   1.0000   1.0000   1.0000   1.0000   1.0000
     1.0000   1.0000   1.0000   1.0000   1.0000   1.0000   1.0000   1.0000
     1.0000   1.0000   1.0000   1.0000   1.0000   1.0000   1.0000   1.0000
     1.0000   1.0000   1.0000   1.0000   1.0000   1.0000   1.0000   1.0000

          k = 0.0191 0.0115-0.0482 ( 96038 PWs)   bands (ev):

   -23.8306 -23.8194 -23.8033 -23.7941 -23.5117 -23.5084 -23.4927 -23.4913
   -19.0522 -19.0511 -19.0408 -19.0404 -18.7290 -18.7286 -18.7108 -18.7090
   -18.1505 -18.1233 -17.1177 -17.0671 -16.9721 -16.9713 -15.9586 -15.9419
   -12.0190 -11.9853 -11.9731 -11.8969 -11.8000 -11.7316 -11.6714 -11.6631
    -8.7907  -8.7034  -8.1456  -8.1411  -7.4697  -7.4526  -7.3269  -7.2067
    -6.8335  -6.7164  -6.5013  -6.4629  -6.4183  -6.3910  -6.3015  -6.2683
    -6.1239  -6.0909  -5.8610  -5.8289  -5.7394  -5.7009  -5.6866  -5.6698
    -5.6110  -5.5389  -5.3848  -5.3261  -5.0593  -4.9816  -4.8266  -4.7929
    -4.3517  -4.2764  -4.2451  -4.1799  -4.0792  -4.0498  -3.9124  -3.8501
    -3.5767  -3.5258  -3.3991  -3.3118  -3.1107  -3.0819  -2.9198  -2.9039
    -0.6104  -0.5510  -0.2409  -0.2301  -0.2084  -0.1716  -0.0922  -0.0756
    -0.0099  -0.0030   0.1248   0.2124   0.3335   0.3749   0.3798   0.4302
     0.6614   0.7462   0.7720   0.7856   0.8349   0.9268   0.9281   0.9536
     1.0634   1.1174   1.1884   1.2454   1.3028   1.3342   1.4307   1.4537

     occupation numbers 
     1.0000   1.0000   1.0000   1.0000   1.0000   1.0000   1.0000   1.0000
     1.0000   1.0000   1.0000   1.0000   1.0000   1.0000   1.0000   1.0000
     1.0000   1.0000   1.0000   1.0000   1.0000   1.0000   1.0000   1.0000
     1.0000   1.0000   1.0000   1.0000   1.0000   1.0000   1.0000   1.0000
     1.0000   1.0000   1.0000   1.0000   1.0000   1.0000   1.0000   1.0000
     1.0000   1.0000   1.0000   1.0000   1.0000   1.0000   1.0000   1.0000
     1.0000   1.0000   1.0000   1.0000   1.0000   1.0000   1.0000   1.0000
     1.0000   1.0000   1.0000   1.0000   1.0000   1.0000   1.0000   1.0000
     1.0000   1.0000   1.0000   1.0000   1.0000   1.0000   1.0000   1.0000
     1.0000   1.0000   1.0000   1.0000   1.0000   1.0000   1.0000   1.0000
     1.0000   1.0000   1.0000   1.0000   1.0000   1.0000   1.0000   1.0000
     1.0000   1.0000   1.0000   1.0000   1.0000   1.0000   1.0000   1.0000
     1.0000   1.0000   1.0000   1.0000   1.0000   1.0000   1.0000   1.0000
     1.0000   1.0000   1.0000   1.0000   1.0000   1.0000   1.0000   1.0000

          k = 0.0191 0.0115-0.0133 ( 96033 PWs)   bands (ev):

   -23.8383 -23.8145 -23.8043 -23.7915 -23.5119 -23.5027 -23.4948 -23.4935
   -19.0552 -19.0496 -19.0442 -19.0338 -18.7248 -18.7247 -18.7137 -18.7135
   -18.1553 -18.1158 -17.1300 -17.0556 -16.9773 -16.9751 -15.9598 -15.9386
   -12.0325 -11.9906 -11.9722 -11.8749 -11.8196 -11.7288 -11.6617 -11.6434
    -8.8124  -8.7177  -8.1692  -8.1412  -7.4693  -7.4430  -7.3711  -7.2832
    -6.7392  -6.7252  -6.5150  -6.4135  -6.4086  -6.3658  -6.2715  -6.1995
    -6.0944  -6.0443  -5.9052  -5.8534  -5.7694  -5.7260  -5.6369  -5.6061
    -5.5701  -5.5222  -5.4305  -5.4225  -5.0261  -4.9789  -4.8345  -4.8082
    -4.3608  -4.3457  -4.3143  -4.2900  -4.1412  -4.0252  -3.7986  -3.7367
    -3.6272  -3.4789  -3.4185  -3.3590  -3.0837  -3.0282  -2.9336  -2.9317
    -0.6665  -0.6445  -0.2273  -0.2210  -0.1335  -0.1028  -0.0326  -0.0125
     0.0029   0.0422   0.1460   0.2129   0.2655   0.3492   0.3973   0.4691
     0.6320   0.6722   0.7083   0.7893   0.8477   0.9076   0.9683   0.9858
     1.0173   1.0899   1.1666   1.2296   1.2717   1.4031   1.4253   1.4547

     occupation numbers 
     1.0000   1.0000   1.0000   1.0000   1.0000   1.0000   1.0000   1.0000
     1.0000   1.0000   1.0000   1.0000   1.0000   1.0000   1.0000   1.0000
     1.0000   1.0000   1.0000   1.0000   1.0000   1.0000   1.0000   1.0000
     1.0000   1.0000   1.0000   1.0000   1.0000   1.0000   1.0000   1.0000
     1.0000   1.0000   1.0000   1.0000   1.0000   1.0000   1.0000   1.0000
     1.0000   1.0000   1.0000   1.0000   1.0000   1.0000   1.0000   1.0000
     1.0000   1.0000   1.0000   1.0000   1.0000   1.0000   1.0000   1.0000
     1.0000   1.0000   1.0000   1.0000   1.0000   1.0000   1.0000   1.0000
     1.0000   1.0000   1.0000   1.0000   1.0000   1.0000   1.0000   1.0000
     1.0000   1.0000   1.0000   1.0000   1.0000   1.0000   1.0000   1.0000
     1.0000   1.0000   1.0000   1.0000   1.0000   1.0000   1.0000   1.0000
     1.0000   1.0000   1.0000   1.0000   1.0000   1.0000   1.0000   1.0000
     1.0000   1.0000   1.0000   1.0000   1.0000   1.0000   1.0000   1.0000
     1.0000   1.0000   1.0000   1.0000   1.0000   1.0000   1.0000   1.0000

          k = 0.0191 0.0344 0.0217 ( 96066 PWs)   bands (ev):

   -23.8322 -23.8232 -23.7984 -23.7950 -23.5060 -23.5011 -23.4980 -23.4975
   -19.0563 -19.0546 -19.0382 -19.0335 -18.7216 -18.7213 -18.7173 -18.7167
   -18.1425 -18.1308 -17.1044 -17.0820 -16.9734 -16.9719 -15.9554 -15.9499
   -11.9955 -11.9877 -11.9654 -11.9299 -11.7806 -11.7534 -11.6561 -11.6472
    -8.7904  -8.7735  -8.1659  -8.1497  -7.4543  -7.4346  -7.3292  -7.3271
    -6.7481  -6.7008  -6.4645  -6.4182  -6.4128  -6.3719  -6.2437  -6.2146
    -6.0562  -6.0348  -5.9014  -5.8640  -5.8063  -5.7608  -5.6693  -5.6524
    -5.5192  -5.5041  -5.4373  -5.4136  -5.0118  -4.9407  -4.8956  -4.8670
    -4.3727  -4.3624  -4.2845  -4.2644  -4.1045  -4.0518  -3.7823  -3.7743
    -3.5640  -3.5042  -3.3941  -3.3734  -3.0673  -3.0513  -2.9329  -2.9256
    -0.7118  -0.7099  -0.2298  -0.2200  -0.1478  -0.1140  -0.0398  -0.0331
     0.0998   0.1082   0.2756   0.2860   0.3215   0.3295   0.4697   0.4819
     0.4883   0.5263   0.7181   0.7494   0.8369   0.8598   0.9760   0.9979
     1.0333   1.0807   1.1696   1.1924   1.3209   1.3804   1.4487   1.4558

     occupation numbers 
     1.0000   1.0000   1.0000   1.0000   1.0000   1.0000   1.0000   1.0000
     1.0000   1.0000   1.0000   1.0000   1.0000   1.0000   1.0000   1.0000
     1.0000   1.0000   1.0000   1.0000   1.0000   1.0000   1.0000   1.0000
     1.0000   1.0000   1.0000   1.0000   1.0000   1.0000   1.0000   1.0000
     1.0000   1.0000   1.0000   1.0000   1.0000   1.0000   1.0000   1.0000
     1.0000   1.0000   1.0000   1.0000   1.0000   1.0000   1.0000   1.0000
     1.0000   1.0000   1.0000   1.0000   1.0000   1.0000   1.0000   1.0000
     1.0000   1.0000   1.0000   1.0000   1.0000   1.0000   1.0000   1.0000
     1.0000   1.0000   1.0000   1.0000   1.0000   1.0000   1.0000   1.0000
     1.0000   1.0000   1.0000   1.0000   1.0000   1.0000   1.0000   1.0000
     1.0000   1.0000   1.0000   1.0000   1.0000   1.0000   1.0000   1.0000
     1.0000   1.0000   1.0000   1.0000   1.0000   1.0000   1.0000   1.0000
     1.0000   1.0000   1.0000   1.0000   1.0000   1.0000   1.0000   1.0000
     1.0000   1.0000   1.0000   1.0000   1.0000   1.0000   1.0000   1.0000

          k = 0.0191 0.0344 0.0566 ( 96105 PWs)   bands (ev):

   -23.8264 -23.8224 -23.7997 -23.7991 -23.5085 -23.5070 -23.4951 -23.4934
   -19.0549 -19.0535 -19.0398 -19.0361 -18.7276 -18.7272 -18.7118 -18.7109
   -18.1378 -18.1375 -17.0937 -17.0926 -16.9685 -16.9673 -15.9544 -15.9534
   -11.9909 -11.9866 -11.9503 -11.9396 -11.7692 -11.7623 -11.6694 -11.6646
    -8.7710  -8.7553  -8.1516  -8.1403  -7.4578  -7.4357  -7.2920  -7.2576
    -6.8003  -6.7536  -6.4858  -6.4714  -6.4036  -6.3559  -6.3020  -6.2797
    -6.0556  -6.0211  -5.8833  -5.8267  -5.7769  -5.7421  -5.7086  -5.6892
    -5.6006  -5.5626  -5.3885  -5.3639  -4.9960  -4.9430  -4.8914  -4.8506
    -4.2935  -4.2764  -4.2505  -4.2157  -4.0489  -4.0351  -3.9018  -3.8999
    -3.5545  -3.5286  -3.3434  -3.3380  -3.0966  -3.0922  -2.9238  -2.9109
    -0.6694  -0.6569  -0.2435  -0.2333  -0.1560  -0.1285  -0.0687  -0.0524
     0.0297   0.0462   0.2078   0.2284   0.3217   0.3495   0.4150   0.4288
     0.6395   0.6656   0.7469   0.7656   0.8663   0.8821   0.9167   0.9541
     1.0666   1.0909   1.1943   1.2026   1.3222   1.3538   1.4482   1.4588

     occupation numbers 
     1.0000   1.0000   1.0000   1.0000   1.0000   1.0000   1.0000   1.0000
     1.0000   1.0000   1.0000   1.0000   1.0000   1.0000   1.0000   1.0000
     1.0000   1.0000   1.0000   1.0000   1.0000   1.0000   1.0000   1.0000
     1.0000   1.0000   1.0000   1.0000   1.0000   1.0000   1.0000   1.0000
     1.0000   1.0000   1.0000   1.0000   1.0000   1.0000   1.0000   1.0000
     1.0000   1.0000   1.0000   1.0000   1.0000   1.0000   1.0000   1.0000
     1.0000   1.0000   1.0000   1.0000   1.0000   1.0000   1.0000   1.0000
     1.0000   1.0000   1.0000   1.0000   1.0000   1.0000   1.0000   1.0000
     1.0000   1.0000   1.0000   1.0000   1.0000   1.0000   1.0000   1.0000
     1.0000   1.0000   1.0000   1.0000   1.0000   1.0000   1.0000   1.0000
     1.0000   1.0000   1.0000   1.0000   1.0000   1.0000   1.0000   1.0000
     1.0000   1.0000   1.0000   1.0000   1.0000   1.0000   1.0000   1.0000
     1.0000   1.0000   1.0000   1.0000   1.0000   1.0000   1.0000   1.0000
     1.0000   1.0000   1.0000   1.0000   1.0000   1.0000   1.0000   1.0000

          k = 0.0191 0.0344-0.0482 ( 96082 PWs)   bands (ev):

   -23.8274 -23.8228 -23.8005 -23.7967 -23.5103 -23.5088 -23.4927 -23.4921
   -19.0529 -19.0525 -19.0396 -19.0394 -18.7289 -18.7287 -18.7103 -18.7095
   -18.1428 -18.1315 -17.1030 -17.0821 -16.9716 -16.9713 -15.9536 -15.9467
   -12.0094 -11.9965 -11.9561 -11.9279 -11.7707 -11.7446 -11.6694 -11.6656
    -8.7662  -8.7301  -8.1459  -8.1436  -7.4607  -7.4548  -7.2952  -7.2442
    -6.7974  -6.7479  -6.5085  -6.4778  -6.4008  -6.3839  -6.3343  -6.3147
    -6.0330  -6.0149  -5.8995  -5.8678  -5.7316  -5.7123  -5.6874  -5.6626
    -5.6018  -5.5627  -5.3765  -5.3452  -5.0294  -4.9754  -4.8518  -4.8174
    -4.3373  -4.3054  -4.2017  -4.1762  -4.0801  -4.0680  -3.8947  -3.8693
    -3.5536  -3.5324  -3.3738  -3.3375  -3.0959  -3.0827  -2.9253  -2.9192
    -0.5938  -0.5695  -0.2416  -0.2356  -0.1767  -0.1575  -0.1181  -0.0966
    -0.0257  -0.0140   0.1782   0.2127   0.3377   0.3560   0.3912   0.4198
     0.6848   0.7196   0.7925   0.8068   0.8295   0.8764   0.9421   0.9535
     1.0758   1.0923   1.2152   1.2358   1.3096   1.3236   1.4364   1.4465

     occupation numbers 
     1.0000   1.0000   1.0000   1.0000   1.0000   1.0000   1.0000   1.0000
     1.0000   1.0000   1.0000   1.0000   1.0000   1.0000   1.0000   1.0000
     1.0000   1.0000   1.0000   1.0000   1.0000   1.0000   1.0000   1.0000
     1.0000   1.0000   1.0000   1.0000   1.0000   1.0000   1.0000   1.0000
     1.0000   1.0000   1.0000   1.0000   1.0000   1.0000   1.0000   1.0000
     1.0000   1.0000   1.0000   1.0000   1.0000   1.0000   1.0000   1.0000
     1.0000   1.0000   1.0000   1.0000   1.0000   1.0000   1.0000   1.0000
     1.0000   1.0000   1.0000   1.0000   1.0000   1.0000   1.0000   1.0000
     1.0000   1.0000   1.0000   1.0000   1.0000   1.0000   1.0000   1.0000
     1.0000   1.0000   1.0000   1.0000   1.0000   1.0000   1.0000   1.0000
     1.0000   1.0000   1.0000   1.0000   1.0000   1.0000   1.0000   1.0000
     1.0000   1.0000   1.0000   1.0000   1.0000   1.0000   1.0000   1.0000
     1.0000   1.0000   1.0000   1.0000   1.0000   1.0000   1.0000   1.0000
     1.0000   1.0000   1.0000   1.0000   1.0000   1.0000   1.0000   1.0000

          k = 0.0191 0.0344-0.0133 ( 96033 PWs)   bands (ev):

   -23.8329 -23.8239 -23.7982 -23.7938 -23.5087 -23.5048 -23.4948 -23.4943
   -19.0550 -19.0534 -19.0390 -19.0354 -18.7248 -18.7247 -18.7136 -18.7135
   -18.1443 -18.1279 -17.1079 -17.0771 -16.9767 -16.9758 -15.9533 -15.9446
   -12.0164 -11.9994 -11.9590 -11.9257 -11.7750 -11.7442 -11.6556 -11.6481
    -8.7865  -8.7474  -8.1627  -8.1511  -7.4626  -7.4504  -7.3416  -7.3067
    -6.7135  -6.6966  -6.5073  -6.4511  -6.4055  -6.3822  -6.2963  -6.2614
    -6.0313  -6.0071  -5.9128  -5.8842  -5.7614  -5.7379  -5.6438  -5.6428
    -5.5195  -5.5053  -5.4206  -5.4109  -5.0219  -4.9881  -4.8508  -4.8297
    -4.3768  -4.3720  -4.2862  -4.2631  -4.1178  -4.0616  -3.7782  -3.7527
    -3.5727  -3.5100  -3.4045  -3.3789  -3.0707  -3.0480  -2.9324  -2.9317
    -0.6564  -0.6472  -0.2204  -0.2097  -0.1488  -0.1161  -0.0435  -0.0338
     0.0024   0.0242   0.1806   0.2110   0.2926   0.3304   0.4361   0.4673
     0.6466   0.6776   0.7082   0.7656   0.8228   0.8619   0.9891   0.9935
     1.0450   1.0734   1.1967   1.2213   1.3035   1.3608   1.4356   1.4438

     occupation numbers 
     1.0000   1.0000   1.0000   1.0000   1.0000   1.0000   1.0000   1.0000
     1.0000   1.0000   1.0000   1.0000   1.0000   1.0000   1.0000   1.0000
     1.0000   1.0000   1.0000   1.0000   1.0000   1.0000   1.0000   1.0000
     1.0000   1.0000   1.0000   1.0000   1.0000   1.0000   1.0000   1.0000
     1.0000   1.0000   1.0000   1.0000   1.0000   1.0000   1.0000   1.0000
     1.0000   1.0000   1.0000   1.0000   1.0000   1.0000   1.0000   1.0000
     1.0000   1.0000   1.0000   1.0000   1.0000   1.0000   1.0000   1.0000
     1.0000   1.0000   1.0000   1.0000   1.0000   1.0000   1.0000   1.0000
     1.0000   1.0000   1.0000   1.0000   1.0000   1.0000   1.0000   1.0000
     1.0000   1.0000   1.0000   1.0000   1.0000   1.0000   1.0000   1.0000
     1.0000   1.0000   1.0000   1.0000   1.0000   1.0000   1.0000   1.0000
     1.0000   1.0000   1.0000   1.0000   1.0000   1.0000   1.0000   1.0000
     1.0000   1.0000   1.0000   1.0000   1.0000   1.0000   1.0000   1.0000
     1.0000   1.0000   1.0000   1.0000   1.0000   1.0000   1.0000   1.0000

          k = 0.0574 0.0115 0.0300 ( 96070 PWs)   bands (ev):

   -23.8270 -23.8170 -23.8001 -23.7994 -23.5078 -23.5039 -23.4996 -23.4956
   -19.0546 -19.0503 -19.0455 -19.0353 -18.7256 -18.7245 -18.7152 -18.7133
   -18.1432 -18.1426 -17.0933 -17.0913 -16.9730 -16.9709 -15.9557 -15.9530
   -11.9806 -11.9767 -11.9202 -11.9009 -11.7488 -11.7258 -11.6757 -11.6563
    -8.8020  -8.7673  -8.1763  -8.1521  -7.4614  -7.4278  -7.4046  -7.3472
    -6.8931  -6.8230  -6.5933  -6.4630  -6.3691  -6.3272  -6.1701  -6.1351
    -6.1123  -6.0608  -5.9193  -5.8538  -5.7979  -5.7520  -5.6632  -5.6385
    -5.5497  -5.5099  -5.4569  -5.4364  -5.0686  -4.9524  -4.8303  -4.8265
    -4.3477  -4.3254  -4.2792  -4.2298  -3.9355  -3.8798  -3.7299  -3.6822
    -3.6426  -3.5147  -3.4755  -3.4668  -3.0706  -3.0675  -2.9441  -2.9107
    -0.6674  -0.6591  -0.2188  -0.2132  -0.1272  -0.1065  -0.0415  -0.0135
     0.0191   0.0476   0.1921   0.2132   0.2805   0.2973   0.4394   0.4601
     0.6546   0.6656   0.7388   0.7863   0.8617   0.8671   0.9592   0.9743
     1.0276   1.0753   1.1002   1.1456   1.3567   1.3922   1.4155   1.4562

     occupation numbers 
     1.0000   1.0000   1.0000   1.0000   1.0000   1.0000   1.0000   1.0000
     1.0000   1.0000   1.0000   1.0000   1.0000   1.0000   1.0000   1.0000
     1.0000   1.0000   1.0000   1.0000   1.0000   1.0000   1.0000   1.0000
     1.0000   1.0000   1.0000   1.0000   1.0000   1.0000   1.0000   1.0000
     1.0000   1.0000   1.0000   1.0000   1.0000   1.0000   1.0000   1.0000
     1.0000   1.0000   1.0000   1.0000   1.0000   1.0000   1.0000   1.0000
     1.0000   1.0000   1.0000   1.0000   1.0000   1.0000   1.0000   1.0000
     1.0000   1.0000   1.0000   1.0000   1.0000   1.0000   1.0000   1.0000
     1.0000   1.0000   1.0000   1.0000   1.0000   1.0000   1.0000   1.0000
     1.0000   1.0000   1.0000   1.0000   1.0000   1.0000   1.0000   1.0000
     1.0000   1.0000   1.0000   1.0000   1.0000   1.0000   1.0000   1.0000
     1.0000   1.0000   1.0000   1.0000   1.0000   1.0000   1.0000   1.0000
     1.0000   1.0000   1.0000   1.0000   1.0000   1.0000   1.0000   1.0000
     1.0000   1.0000   1.0000   1.0000   1.0000   1.0000   1.0000   1.0000

          k = 0.0574 0.0115 0.0650 ( 96090 PWs)   bands (ev):

   -23.8227 -23.8200 -23.8041 -23.7956 -23.5056 -23.5055 -23.5031 -23.4938
   -19.0555 -19.0523 -19.0457 -19.0336 -18.7359 -18.7336 -18.7073 -18.7030
   -18.1593 -18.1330 -17.1147 -17.0667 -16.9628 -16.9595 -15.9724 -15.9518
   -11.9986 -11.9828 -11.9487 -11.8728 -11.7416 -11.7049 -11.6799 -11.6582
    -8.8494  -8.7222  -8.1729  -8.1319  -7.4569  -7.4375  -7.3589  -7.2239
    -6.9996  -6.7695  -6.5980  -6.4072  -6.3917  -6.3527  -6.3321  -6.2251
    -6.1693  -6.0799  -5.9032  -5.8645  -5.8223  -5.7527  -5.6893  -5.6283
    -5.5252  -5.4788  -5.4169  -5.3334  -5.0825  -4.9171  -4.9032  -4.8316
    -4.2912  -4.2773  -4.2110  -4.1720  -3.8917  -3.8740  -3.8213  -3.7939
    -3.6566  -3.5432  -3.4803  -3.3782  -3.1219  -3.0856  -2.9424  -2.8768
    -0.7437  -0.7096  -0.2276  -0.1884  -0.1264  -0.0953  -0.0334   0.0049
     0.0565   0.0958   0.2511   0.2809   0.3094   0.3256   0.4032   0.5038
     0.5720   0.5837   0.6369   0.7412   0.8647   0.8919   0.9444   0.9655
     1.0610   1.0992   1.1083   1.1382   1.3690   1.4114   1.4228   1.4709

     occupation numbers 
     1.0000   1.0000   1.0000   1.0000   1.0000   1.0000   1.0000   1.0000
     1.0000   1.0000   1.0000   1.0000   1.0000   1.0000   1.0000   1.0000
     1.0000   1.0000   1.0000   1.0000   1.0000   1.0000   1.0000   1.0000
     1.0000   1.0000   1.0000   1.0000   1.0000   1.0000   1.0000   1.0000
     1.0000   1.0000   1.0000   1.0000   1.0000   1.0000   1.0000   1.0000
     1.0000   1.0000   1.0000   1.0000   1.0000   1.0000   1.0000   1.0000
     1.0000   1.0000   1.0000   1.0000   1.0000   1.0000   1.0000   1.0000
     1.0000   1.0000   1.0000   1.0000   1.0000   1.0000   1.0000   1.0000
     1.0000   1.0000   1.0000   1.0000   1.0000   1.0000   1.0000   1.0000
     1.0000   1.0000   1.0000   1.0000   1.0000   1.0000   1.0000   1.0000
     1.0000   1.0000   1.0000   1.0000   1.0000   1.0000   1.0000   1.0000
     1.0000   1.0000   1.0000   1.0000   1.0000   1.0000   1.0000   1.0000
     1.0000   1.0000   1.0000   1.0000   1.0000   1.0000   1.0000   1.0000
     1.0000   1.0000   1.0000   1.0000   1.0000   1.0000   1.0000   1.0000

          k = 0.0574 0.0115-0.0398 ( 96062 PWs)   bands (ev):

   -23.8247 -23.8186 -23.8057 -23.7934 -23.5091 -23.5081 -23.4984 -23.4923
   -19.0535 -19.0510 -19.0463 -19.0365 -18.7366 -18.7345 -18.7063 -18.7021
   -18.1643 -18.1265 -17.1253 -17.0553 -16.9659 -16.9634 -15.9717 -15.9452
   -12.0086 -11.9882 -11.9655 -11.8505 -11.7577 -11.6863 -11.6750 -11.6634
    -8.8438  -8.6964  -8.1666  -8.1331  -7.4582  -7.4389  -7.3836  -7.2114
    -7.0206  -6.7699  -6.5856  -6.4393  -6.3948  -6.3796  -6.3208  -6.2542
    -6.1732  -6.0966  -5.8881  -5.8357  -5.7729  -5.7607  -5.6904  -5.6452
    -5.5015  -5.4746  -5.4233  -5.3330  -5.0733  -4.9402  -4.8759  -4.8183
    -4.2949  -4.2517  -4.2128  -4.1851  -3.9296  -3.9204  -3.7711  -3.7575
    -3.6084  -3.5762  -3.5328  -3.3810  -3.1267  -3.0820  -2.9386  -2.8824
    -0.6996  -0.6425  -0.2195  -0.1621  -0.1417  -0.1176  -0.0409  -0.0187
    -0.0061   0.0362   0.1877   0.2802   0.3010   0.3520   0.3639   0.3899
     0.6161   0.6839   0.7225   0.7444   0.8641   0.8909   0.9620   0.9779
     1.0526   1.0818   1.1243   1.1920   1.3831   1.4011   1.4076   1.4360

     occupation numbers 
     1.0000   1.0000   1.0000   1.0000   1.0000   1.0000   1.0000   1.0000
     1.0000   1.0000   1.0000   1.0000   1.0000   1.0000   1.0000   1.0000
     1.0000   1.0000   1.0000   1.0000   1.0000   1.0000   1.0000   1.0000
     1.0000   1.0000   1.0000   1.0000   1.0000   1.0000   1.0000   1.0000
     1.0000   1.0000   1.0000   1.0000   1.0000   1.0000   1.0000   1.0000
     1.0000   1.0000   1.0000   1.0000   1.0000   1.0000   1.0000   1.0000
     1.0000   1.0000   1.0000   1.0000   1.0000   1.0000   1.0000   1.0000
     1.0000   1.0000   1.0000   1.0000   1.0000   1.0000   1.0000   1.0000
     1.0000   1.0000   1.0000   1.0000   1.0000   1.0000   1.0000   1.0000
     1.0000   1.0000   1.0000   1.0000   1.0000   1.0000   1.0000   1.0000
     1.0000   1.0000   1.0000   1.0000   1.0000   1.0000   1.0000   1.0000
     1.0000   1.0000   1.0000   1.0000   1.0000   1.0000   1.0000   1.0000
     1.0000   1.0000   1.0000   1.0000   1.0000   1.0000   1.0000   1.0000
     1.0000   1.0000   1.0000   1.0000   1.0000   1.0000   1.0000   1.0000

          k = 0.0574 0.0115-0.0049 ( 96035 PWs)   bands (ev):

   -23.8279 -23.8166 -23.8040 -23.7949 -23.5102 -23.5066 -23.4959 -23.4942
   -19.0519 -19.0507 -19.0418 -19.0415 -18.7274 -18.7268 -18.7130 -18.7113
   -18.1559 -18.1285 -17.1174 -17.0664 -16.9755 -16.9754 -15.9592 -15.9423
   -11.9938 -11.9771 -11.9567 -11.8606 -11.7690 -11.7019 -11.6702 -11.6635
    -8.8114  -8.7258  -8.1637  -8.1602  -7.4541  -7.4466  -7.4353  -7.3231
    -6.9126  -6.8169  -6.5494  -6.5236  -6.3625  -6.3570  -6.2096  -6.1795
    -6.0927  -6.0839  -5.8580  -5.8167  -5.7655  -5.7375  -5.6763  -5.6681
    -5.5298  -5.5117  -5.4504  -5.4389  -5.0275  -5.0051  -4.8086  -4.8051
    -4.3487  -4.3214  -4.2742  -4.2382  -3.9503  -3.9051  -3.6903  -3.6790
    -3.5974  -3.5656  -3.5189  -3.4555  -3.0897  -3.0516  -2.9383  -2.9171
    -0.6109  -0.5637  -0.2241  -0.2116  -0.1384  -0.1296  -0.1004  -0.0987
     0.0053   0.0355   0.1504   0.2209   0.2599   0.3053   0.4089   0.4486
     0.6344   0.7055   0.8032   0.8256   0.8605   0.8928   0.9746   0.9970
     1.0282   1.0421   1.1090   1.1940   1.3744   1.3821   1.3962   1.4163

     occupation numbers 
     1.0000   1.0000   1.0000   1.0000   1.0000   1.0000   1.0000   1.0000
     1.0000   1.0000   1.0000   1.0000   1.0000   1.0000   1.0000   1.0000
     1.0000   1.0000   1.0000   1.0000   1.0000   1.0000   1.0000   1.0000
     1.0000   1.0000   1.0000   1.0000   1.0000   1.0000   1.0000   1.0000
     1.0000   1.0000   1.0000   1.0000   1.0000   1.0000   1.0000   1.0000
     1.0000   1.0000   1.0000   1.0000   1.0000   1.0000   1.0000   1.0000
     1.0000   1.0000   1.0000   1.0000   1.0000   1.0000   1.0000   1.0000
     1.0000   1.0000   1.0000   1.0000   1.0000   1.0000   1.0000   1.0000
     1.0000   1.0000   1.0000   1.0000   1.0000   1.0000   1.0000   1.0000
     1.0000   1.0000   1.0000   1.0000   1.0000   1.0000   1.0000   1.0000
     1.0000   1.0000   1.0000   1.0000   1.0000   1.0000   1.0000   1.0000
     1.0000   1.0000   1.0000   1.0000   1.0000   1.0000   1.0000   1.0000
     1.0000   1.0000   1.0000   1.0000   1.0000   1.0000   1.0000   1.0000
     1.0000   1.0000   1.0000   1.0000   1.0000   1.0000   1.0000   1.0000

          k = 0.0574 0.0344 0.0300 ( 96070 PWs)   bands (ev):

   -23.8238 -23.8195 -23.8004 -23.7999 -23.5057 -23.5041 -23.4993 -23.4976
   -19.0546 -19.0534 -19.0406 -19.0370 -18.7253 -18.7248 -18.7147 -18.7139
   -18.1431 -18.1428 -17.0929 -17.0921 -16.9722 -16.9713 -15.9549 -15.9538
   -11.9798 -11.9781 -11.9129 -11.9047 -11.7441 -11.7344 -11.6699 -11.6618
    -8.7918  -8.7774  -8.1656  -8.1553  -7.4504  -7.4372  -7.3927  -7.3682
    -6.8974  -6.8742  -6.5133  -6.4664  -6.3497  -6.3241  -6.2015  -6.1677
    -6.0988  -6.0697  -5.8904  -5.8635  -5.7884  -5.7647  -5.6664  -5.6412
    -5.5307  -5.5209  -5.4486  -5.4383  -5.0377  -4.9895  -4.8362  -4.8332
    -4.3395  -4.3255  -4.2695  -4.2501  -3.9104  -3.8862  -3.7167  -3.6955
    -3.6070  -3.5545  -3.4737  -3.4667  -3.0695  -3.0666  -2.9392  -2.9245
    -0.6608  -0.6573  -0.2103  -0.2032  -0.1641  -0.1437  -0.0198   0.0035
     0.0254   0.0407   0.2015   0.2225   0.2900   0.3055   0.4376   0.4482
     0.6851   0.6875   0.7148   0.7483   0.8565   0.8645   0.9643   0.9862
     1.0359   1.0686   1.1048   1.1258   1.3679   1.3818   1.4290   1.4450

     occupation numbers 
     1.0000   1.0000   1.0000   1.0000   1.0000   1.0000   1.0000   1.0000
     1.0000   1.0000   1.0000   1.0000   1.0000   1.0000   1.0000   1.0000
     1.0000   1.0000   1.0000   1.0000   1.0000   1.0000   1.0000   1.0000
     1.0000   1.0000   1.0000   1.0000   1.0000   1.0000   1.0000   1.0000
     1.0000   1.0000   1.0000   1.0000   1.0000   1.0000   1.0000   1.0000
     1.0000   1.0000   1.0000   1.0000   1.0000   1.0000   1.0000   1.0000
     1.0000   1.0000   1.0000   1.0000   1.0000   1.0000   1.0000   1.0000
     1.0000   1.0000   1.0000   1.0000   1.0000   1.0000   1.0000   1.0000
     1.0000   1.0000   1.0000   1.0000   1.0000   1.0000   1.0000   1.0000
     1.0000   1.0000   1.0000   1.0000   1.0000   1.0000   1.0000   1.0000
     1.0000   1.0000   1.0000   1.0000   1.0000   1.0000   1.0000   1.0000
     1.0000   1.0000   1.0000   1.0000   1.0000   1.0000   1.0000   1.0000
     1.0000   1.0000   1.0000   1.0000   1.0000   1.0000   1.0000   1.0000
     1.0000   1.0000   1.0000   1.0000   1.0000   1.0000   1.0000   1.0000

          k = 0.0574 0.0344 0.0650 ( 96102 PWs)   bands (ev):

   -23.8215 -23.8204 -23.8021 -23.7986 -23.5054 -23.5052 -23.5006 -23.4966
   -19.0559 -19.0550 -19.0404 -19.0359 -18.7352 -18.7342 -18.7060 -18.7042
   -18.1518 -18.1409 -17.1007 -17.0808 -16.9617 -16.9604 -15.9662 -15.9577
   -11.9985 -11.9936 -11.9203 -11.8909 -11.7308 -11.7156 -11.6736 -11.6647
    -8.8134  -8.7609  -8.1592  -8.1421  -7.4311  -7.4213  -7.3523  -7.2904
    -6.9567  -6.8765  -6.4987  -6.4389  -6.3784  -6.3647  -6.2867  -6.2281
    -6.1528  -6.0980  -5.8816  -5.8595  -5.8084  -5.7792  -5.7068  -5.6669
    -5.5198  -5.5012  -5.3816  -5.3480  -5.0428  -4.9717  -4.8826  -4.8513
    -4.2751  -4.2541  -4.2112  -4.1750  -3.8811  -3.8739  -3.8191  -3.8072
    -3.6324  -3.5919  -3.4415  -3.4031  -3.1126  -3.0978  -2.9235  -2.8962
    -0.7298  -0.7160  -0.2147  -0.1967  -0.1553  -0.1445  -0.0076   0.0052
     0.0866   0.1015   0.2685   0.2781   0.3242   0.3370   0.4256   0.4737
     0.5540   0.5628   0.6917   0.7485   0.8336   0.8685   0.9552   0.9681
     1.0468   1.0703   1.1338   1.1478   1.3807   1.3976   1.4371   1.4564

     occupation numbers 
     1.0000   1.0000   1.0000   1.0000   1.0000   1.0000   1.0000   1.0000
     1.0000   1.0000   1.0000   1.0000   1.0000   1.0000   1.0000   1.0000
     1.0000   1.0000   1.0000   1.0000   1.0000   1.0000   1.0000   1.0000
     1.0000   1.0000   1.0000   1.0000   1.0000   1.0000   1.0000   1.0000
     1.0000   1.0000   1.0000   1.0000   1.0000   1.0000   1.0000   1.0000
     1.0000   1.0000   1.0000   1.0000   1.0000   1.0000   1.0000   1.0000
     1.0000   1.0000   1.0000   1.0000   1.0000   1.0000   1.0000   1.0000
     1.0000   1.0000   1.0000   1.0000   1.0000   1.0000   1.0000   1.0000
     1.0000   1.0000   1.0000   1.0000   1.0000   1.0000   1.0000   1.0000
     1.0000   1.0000   1.0000   1.0000   1.0000   1.0000   1.0000   1.0000
     1.0000   1.0000   1.0000   1.0000   1.0000   1.0000   1.0000   1.0000
     1.0000   1.0000   1.0000   1.0000   1.0000   1.0000   1.0000   1.0000
     1.0000   1.0000   1.0000   1.0000   1.0000   1.0000   1.0000   1.0000
     1.0000   1.0000   1.0000   1.0000   1.0000   1.0000   1.0000   1.0000

          k = 0.0574 0.0344-0.0398 ( 96055 PWs)   bands (ev):

   -23.8230 -23.8206 -23.8020 -23.7969 -23.5086 -23.5081 -23.4969 -23.4943
   -19.0542 -19.0538 -19.0414 -19.0379 -18.7360 -18.7351 -18.7051 -18.7034
   -18.1537 -18.1381 -17.1046 -17.0756 -16.9652 -16.9642 -15.9637 -15.9527
   -12.0073 -12.0008 -11.9302 -11.8874 -11.7302 -11.7034 -11.6703 -11.6661
    -8.8027  -8.7418  -8.1565  -8.1425  -7.4370  -7.4179  -7.3683  -7.2849
    -6.9641  -6.8746  -6.4973  -6.4533  -6.3955  -6.3738  -6.3355  -6.2784
    -6.1163  -6.0714  -5.8781  -5.8455  -5.7871  -5.7805  -5.6996  -5.6677
    -5.5015  -5.4899  -5.3804  -5.3435  -5.0585  -5.0032  -4.8479  -4.8234
    -4.2951  -4.2776  -4.1795  -4.1618  -3.9232  -3.9195  -3.7694  -3.7642
    -3.6133  -3.6009  -3.4784  -3.4195  -3.1113  -3.0919  -2.9266  -2.9025
    -0.6796  -0.6556  -0.2108  -0.1891  -0.1636  -0.1466  -0.0209  -0.0115
     0.0210   0.0471   0.2195   0.2555   0.3078   0.3285   0.3716   0.3965
     0.6401   0.6697   0.7526   0.7583   0.8518   0.8640   0.9505   0.9552
     1.0582   1.0794   1.1533   1.1782   1.3868   1.3960   1.4130   1.4264

     occupation numbers 
     1.0000   1.0000   1.0000   1.0000   1.0000   1.0000   1.0000   1.0000
     1.0000   1.0000   1.0000   1.0000   1.0000   1.0000   1.0000   1.0000
     1.0000   1.0000   1.0000   1.0000   1.0000   1.0000   1.0000   1.0000
     1.0000   1.0000   1.0000   1.0000   1.0000   1.0000   1.0000   1.0000
     1.0000   1.0000   1.0000   1.0000   1.0000   1.0000   1.0000   1.0000
     1.0000   1.0000   1.0000   1.0000   1.0000   1.0000   1.0000   1.0000
     1.0000   1.0000   1.0000   1.0000   1.0000   1.0000   1.0000   1.0000
     1.0000   1.0000   1.0000   1.0000   1.0000   1.0000   1.0000   1.0000
     1.0000   1.0000   1.0000   1.0000   1.0000   1.0000   1.0000   1.0000
     1.0000   1.0000   1.0000   1.0000   1.0000   1.0000   1.0000   1.0000
     1.0000   1.0000   1.0000   1.0000   1.0000   1.0000   1.0000   1.0000
     1.0000   1.0000   1.0000   1.0000   1.0000   1.0000   1.0000   1.0000
     1.0000   1.0000   1.0000   1.0000   1.0000   1.0000   1.0000   1.0000
     1.0000   1.0000   1.0000   1.0000   1.0000   1.0000   1.0000   1.0000

          k = 0.0574 0.0344-0.0049 ( 96052 PWs)   bands (ev):

   -23.8248 -23.8202 -23.8011 -23.7975 -23.5087 -23.5071 -23.4958 -23.4951
   -19.0526 -19.0521 -19.0406 -19.0405 -18.7272 -18.7270 -18.7125 -18.7118
   -18.1481 -18.1368 -17.1024 -17.0812 -16.9754 -16.9754 -15.9542 -15.9472
   -11.9910 -11.9856 -11.9295 -11.8929 -11.7441 -11.7183 -11.6675 -11.6644
    -8.7869  -8.7516  -8.1613  -8.1580  -7.4508  -7.4483  -7.4070  -7.3603
    -6.9003  -6.8623  -6.5047  -6.4933  -6.3533  -6.3431  -6.2667  -6.2555
    -6.0429  -6.0361  -5.8670  -5.8445  -5.7614  -5.7499  -5.6553  -5.6500
    -5.5326  -5.5159  -5.4467  -5.4422  -5.0328  -5.0203  -4.8067  -4.8057
    -4.3498  -4.3325  -4.2689  -4.2437  -3.9232  -3.9042  -3.6918  -3.6880
    -3.5732  -3.5487  -3.5231  -3.4842  -3.0762  -3.0593  -2.9398  -2.9318
    -0.5950  -0.5753  -0.2123  -0.2024  -0.1536  -0.1318  -0.1192  -0.1005
     0.0064   0.0280   0.1719   0.2015   0.2851   0.3075   0.4200   0.4420
     0.6661   0.7041   0.7853   0.8103   0.8494   0.8800   0.9823   0.9877
     1.0465   1.0562   1.1241   1.1636   1.3769   1.3788   1.4019   1.4107

     occupation numbers 
     1.0000   1.0000   1.0000   1.0000   1.0000   1.0000   1.0000   1.0000
     1.0000   1.0000   1.0000   1.0000   1.0000   1.0000   1.0000   1.0000
     1.0000   1.0000   1.0000   1.0000   1.0000   1.0000   1.0000   1.0000
     1.0000   1.0000   1.0000   1.0000   1.0000   1.0000   1.0000   1.0000
     1.0000   1.0000   1.0000   1.0000   1.0000   1.0000   1.0000   1.0000
     1.0000   1.0000   1.0000   1.0000   1.0000   1.0000   1.0000   1.0000
     1.0000   1.0000   1.0000   1.0000   1.0000   1.0000   1.0000   1.0000
     1.0000   1.0000   1.0000   1.0000   1.0000   1.0000   1.0000   1.0000
     1.0000   1.0000   1.0000   1.0000   1.0000   1.0000   1.0000   1.0000
     1.0000   1.0000   1.0000   1.0000   1.0000   1.0000   1.0000   1.0000
     1.0000   1.0000   1.0000   1.0000   1.0000   1.0000   1.0000   1.0000
     1.0000   1.0000   1.0000   1.0000   1.0000   1.0000   1.0000   1.0000
     1.0000   1.0000   1.0000   1.0000   1.0000   1.0000   1.0000   1.0000
     1.0000   1.0000   1.0000   1.0000   1.0000   1.0000   1.0000   1.0000

     highest occupied level (ev):     1.4709

!    total energy              =   -1282.04803455 Ry
     Harris-Foulkes estimate   =   -1282.04803526 Ry
     estimated scf accuracy    <       0.00000080 Ry

     total all-electron energy =     -4786.491782 Ry

     The total energy is the sum of the following terms:

     one-electron contribution =    -629.45441401 Ry
     hartree contribution      =     413.70307314 Ry
     xc contribution           =    -260.13793596 Ry
     ewald contribution        =    -475.76697818 Ry
     one-center paw contrib.   =    -330.39177952 Ry

     convergence has been achieved in  14 iterations

     Forces acting on atoms (Ry/au):

     atom    1 type  1   force =    -0.01447125   -0.00695858   -0.01245723
     atom    2 type  4   force =     0.02954305    0.00602720   -0.02155446
     atom    3 type  1   force =    -0.00395927   -0.00731976   -0.00832023
     atom    4 type  1   force =     0.00679946    0.00335056   -0.00206925
     atom    5 type  4   force =     0.00269565   -0.02671299    0.02939569
     atom    6 type  1   force =     0.01256867    0.00207394   -0.00471899
     atom    7 type  4   force =    -0.01026606    0.01899460    0.03955740
     atom    8 type  2   force =     0.16219016   -0.10204038    0.04995999
     atom    9 type  3   force =    -0.11966814   -0.05545748   -0.12396903
     atom   10 type  3   force =    -0.04064860    0.16084944    0.07174779
     atom   11 type  4   force =    -0.03232429    0.02014895   -0.01516740
     atom   12 type  2   force =     0.12484099   -0.05233441    0.21045647
     atom   13 type  3   force =    -0.19693082   -0.10082591   -0.06146331
     atom   14 type  3   force =     0.06588652    0.15312864   -0.15288346
     atom   15 type  3   force =     0.06588652   -0.15312864   -0.15288346
     atom   16 type  3   force =    -0.19693082    0.10082591   -0.06146331
     atom   17 type  2   force =     0.12484099    0.05233441    0.21045647
     atom   18 type  4   force =    -0.03232429   -0.02014895   -0.01516740
     atom   19 type  3   force =    -0.04064860   -0.16084944    0.07174779
     atom   20 type  3   force =    -0.11966814    0.05545748   -0.12396903
     atom   21 type  2   force =     0.16219016    0.10204038    0.04995999
     atom   22 type  4   force =    -0.01026606   -0.01899460    0.03955740
     atom   23 type  1   force =     0.01256867   -0.00207394   -0.00471899
     atom   24 type  4   force =     0.00269565    0.02671299    0.02939569
     atom   25 type  1   force =     0.00679946   -0.00335056   -0.00206925
     atom   26 type  1   force =    -0.00395927    0.00731976   -0.00832023
     atom   27 type  4   force =     0.02954305   -0.00602720   -0.02155446
     atom   28 type  1   force =    -0.01447125    0.00695858   -0.01245723
     atom   29 type  3   force =    -0.06588652   -0.15312864    0.15288346
     atom   30 type  3   force =     0.19693082    0.10082591    0.06146331
     atom   31 type  2   force =    -0.12484099    0.05233441   -0.21045647
     atom   32 type  4   force =     0.03232429   -0.02014895    0.01516740
     atom   33 type  3   force =     0.04064860   -0.16084944   -0.07174779
     atom   34 type  3   force =     0.11966814    0.05545748    0.12396903
     atom   35 type  2   force =    -0.16219016    0.10204038   -0.04995999
     atom   36 type  4   force =     0.01026606   -0.01899460   -0.03955740
     atom   37 type  1   force =    -0.01256867   -0.00207394    0.00471899
     atom   38 type  4   force =    -0.00269565    0.02671299   -0.02939569
     atom   39 type  1   force =    -0.00679946   -0.00335056    0.00206925
     atom   40 type  1   force =     0.00395927    0.00731976    0.00832023
     atom   41 type  4   force =    -0.02954305   -0.00602720    0.02155446
     atom   42 type  1   force =     0.01447125    0.00695858    0.01245723
     atom   43 type  3   force =    -0.06588652    0.15312864    0.15288346
     atom   44 type  3   force =     0.19693082   -0.10082591    0.06146331
     atom   45 type  2   force =    -0.12484099   -0.05233441   -0.21045647
     atom   46 type  4   force =     0.03232429    0.02014895    0.01516740
     atom   47 type  3   force =     0.04064860    0.16084944   -0.07174779
     atom   48 type  3   force =     0.11966814   -0.05545748    0.12396903
     atom   49 type  2   force =    -0.16219016   -0.10204038   -0.04995999
     atom   50 type  4   force =     0.01026606    0.01899460   -0.03955740
     atom   51 type  1   force =    -0.01256867    0.00207394    0.00471899
     atom   52 type  4   force =    -0.00269565   -0.02671299   -0.02939569
     atom   53 type  1   force =    -0.00679946    0.00335056    0.00206925
     atom   54 type  1   force =     0.00395927   -0.00731976    0.00832023
     atom   55 type  4   force =    -0.02954305    0.00602720    0.02155446
     atom   56 type  1   force =     0.01447125   -0.00695858    0.01245723
     The non-local contrib.  to forces
     atom    1 type  1   force =     0.17581263    0.38356521    0.11473994
     atom    2 type  4   force =    -2.40941880   -0.47321415    1.52938260
     atom    3 type  1   force =     0.04370812   -0.03279284    0.05179047
     atom    4 type  1   force =    -0.57734520   -0.42459797   -0.12875738
     atom    5 type  4   force =     0.15267894    1.85540439   -2.23063104
     atom    6 type  1   force =    -0.00433583    0.06438116    0.05516741
     atom    7 type  4   force =     0.52774968   -1.16604873   -2.61900961
     atom    8 type  2   force =     0.63139898   -0.42753040    0.17903610
     atom    9 type  3   force =     0.07732136    0.02722885    0.06769169
     atom   10 type  3   force =     0.02830228   -0.09666246   -0.03773502
     atom   11 type  4   force =     2.27282993   -1.47239523    0.84018969
     atom   12 type  2   force =     0.39208813   -0.18581701    0.69742758
     atom   13 type  3   force =     0.09518516    0.04760321    0.03762790
     atom   14 type  3   force =    -0.02904979   -0.07455958    0.08037117
     atom   15 type  3   force =    -0.02904979    0.07455958    0.08037117
     atom   16 type  3   force =     0.09518516   -0.04760321    0.03762790
     atom   17 type  2   force =     0.39208813    0.18581701    0.69742758
     atom   18 type  4   force =     2.27282993    1.47239523    0.84018969
     atom   19 type  3   force =     0.02830228    0.09666246   -0.03773502
     atom   20 type  3   force =     0.07732136   -0.02722885    0.06769169
     atom   21 type  2   force =     0.63139898    0.42753040    0.17903610
     atom   22 type  4   force =     0.52774968    1.16604873   -2.61900961
     atom   23 type  1   force =    -0.00433583   -0.06438116    0.05516741
     atom   24 type  4   force =     0.15267894   -1.85540439   -2.23063104
     atom   25 type  1   force =    -0.57734520    0.42459797   -0.12875738
     atom   26 type  1   force =     0.04370812    0.03279284    0.05179047
     atom   27 type  4   force =    -2.40941880    0.47321415    1.52938260
     atom   28 type  1   force =     0.17581263   -0.38356521    0.11473994
     atom   29 type  3   force =     0.02904979    0.07455958   -0.08037117
     atom   30 type  3   force =    -0.09518516   -0.04760321   -0.03762790
     atom   31 type  2   force =    -0.39208813    0.18581701   -0.69742758
     atom   32 type  4   force =    -2.27282993    1.47239523   -0.84018969
     atom   33 type  3   force =    -0.02830228    0.09666246    0.03773502
     atom   34 type  3   force =    -0.07732136   -0.02722885   -0.06769169
     atom   35 type  2   force =    -0.63139898    0.42753040   -0.17903610
     atom   36 type  4   force =    -0.52774968    1.16604873    2.61900961
     atom   37 type  1   force =     0.00433583   -0.06438116   -0.05516741
     atom   38 type  4   force =    -0.15267894   -1.85540439    2.23063104
     atom   39 type  1   force =     0.57734520    0.42459797    0.12875738
     atom   40 type  1   force =    -0.04370812    0.03279284   -0.05179047
     atom   41 type  4   force =     2.40941880    0.47321415   -1.52938260
     atom   42 type  1   force =    -0.17581263   -0.38356521   -0.11473994
     atom   43 type  3   force =     0.02904979   -0.07455958   -0.08037117
     atom   44 type  3   force =    -0.09518516    0.04760321   -0.03762790
     atom   45 type  2   force =    -0.39208813   -0.18581701   -0.69742758
     atom   46 type  4   force =    -2.27282993   -1.47239523   -0.84018969
     atom   47 type  3   force =    -0.02830228   -0.09666246    0.03773502
     atom   48 type  3   force =    -0.07732136    0.02722885   -0.06769169
     atom   49 type  2   force =    -0.63139898   -0.42753040   -0.17903610
     atom   50 type  4   force =    -0.52774968   -1.16604873    2.61900961
     atom   51 type  1   force =     0.00433583    0.06438116   -0.05516741
     atom   52 type  4   force =    -0.15267894    1.85540439    2.23063104
     atom   53 type  1   force =     0.57734520   -0.42459797    0.12875738
     atom   54 type  1   force =    -0.04370812   -0.03279284   -0.05179047
     atom   55 type  4   force =     2.40941880   -0.47321415   -1.52938260
     atom   56 type  1   force =    -0.17581263    0.38356521   -0.11473994
     The ionic contribution  to forces
     atom    1 type  1   force =    -3.04749591    0.21766414   -1.99240599
     atom    2 type  4   force =    12.22001344    4.20543766   -5.95129811
     atom    3 type  1   force =    -0.25343708    1.58648813    0.02568761
     atom    4 type  1   force =     2.78945071    2.83954108    2.01969096
     atom    5 type  4   force =    -1.25508253   -8.51663178   11.31585330
     atom    6 type  1   force =    -0.34741973    0.05591994    1.04189888
     atom    7 type  4   force =    -2.03687615    6.22892756   12.41631523
     atom    8 type  2   force =    -4.05962555    3.21951030   -1.21500043
     atom    9 type  3   force =    -2.20696654   -0.15642891   -1.95434125
     atom   10 type  3   force =    -1.22024029    2.73807927    0.68218894
     atom   11 type  4   force =   -11.08544922    6.11400670   -2.37954406
     atom   12 type  2   force =    -2.84331302    0.93991762   -4.69320934
     atom   13 type  3   force =    -2.61600476   -1.06554071   -1.55056573
     atom   14 type  3   force =     0.25824027    2.03089505   -2.52496382
     atom   15 type  3   force =     0.25824027   -2.03089505   -2.52496382
     atom   16 type  3   force =    -2.61600476    1.06554071   -1.55056573
     atom   17 type  2   force =    -2.84331302   -0.93991762   -4.69320934
     atom   18 type  4   force =   -11.08544922   -6.11400670   -2.37954406
     atom   19 type  3   force =    -1.22024029   -2.73807927    0.68218894
     atom   20 type  3   force =    -2.20696654    0.15642891   -1.95434125
     atom   21 type  2   force =    -4.05962555   -3.21951030   -1.21500043
     atom   22 type  4   force =    -2.03687615   -6.22892756   12.41631523
     atom   23 type  1   force =    -0.34741973   -0.05591994    1.04189888
     atom   24 type  4   force =    -1.25508253    8.51663178   11.31585330
     atom   25 type  1   force =     2.78945071   -2.83954108    2.01969096
     atom   26 type  1   force =    -0.25343708   -1.58648813    0.02568761
     atom   27 type  4   force =    12.22001344   -4.20543766   -5.95129811
     atom   28 type  1   force =    -3.04749591   -0.21766414   -1.99240599
     atom   29 type  3   force =    -0.25824027   -2.03089505    2.52496382
     atom   30 type  3   force =     2.61600476    1.06554071    1.55056573
     atom   31 type  2   force =     2.84331302   -0.93991762    4.69320934
     atom   32 type  4   force =    11.08544922   -6.11400670    2.37954406
     atom   33 type  3   force =     1.22024029   -2.73807927   -0.68218894
     atom   34 type  3   force =     2.20696654    0.15642891    1.95434125
     atom   35 type  2   force =     4.05962555   -3.21951030    1.21500043
     atom   36 type  4   force =     2.03687615   -6.22892756  -12.41631523
     atom   37 type  1   force =     0.34741973   -0.05591994   -1.04189888
     atom   38 type  4   force =     1.25508253    8.51663178  -11.31585330
     atom   39 type  1   force =    -2.78945071   -2.83954108   -2.01969096
     atom   40 type  1   force =     0.25343708   -1.58648813   -0.02568761
     atom   41 type  4   force =   -12.22001344   -4.20543766    5.95129811
     atom   42 type  1   force =     3.04749591   -0.21766414    1.99240599
     atom   43 type  3   force =    -0.25824027    2.03089505    2.52496382
     atom   44 type  3   force =     2.61600476   -1.06554071    1.55056573
     atom   45 type  2   force =     2.84331302    0.93991762    4.69320934
     atom   46 type  4   force =    11.08544922    6.11400670    2.37954406
     atom   47 type  3   force =     1.22024029    2.73807927   -0.68218894
     atom   48 type  3   force =     2.20696654   -0.15642891    1.95434125
     atom   49 type  2   force =     4.05962555    3.21951030    1.21500043
     atom   50 type  4   force =     2.03687615    6.22892756  -12.41631523
     atom   51 type  1   force =     0.34741973    0.05591994   -1.04189888
     atom   52 type  4   force =     1.25508253   -8.51663178  -11.31585330
     atom   53 type  1   force =    -2.78945071    2.83954108   -2.01969096
     atom   54 type  1   force =     0.25343708    1.58648813   -0.02568761
     atom   55 type  4   force =   -12.22001344    4.20543766    5.95129811
     atom   56 type  1   force =     3.04749591    0.21766414    1.99240599
     The local contribution  to forces
     atom    1 type  1   force =     2.86018746   -0.60174117    1.86713484
     atom    2 type  4   force =    -9.79982185   -3.72980320    4.41236161
     atom    3 type  1   force =     0.20521965   -1.56248403   -0.08525601
     atom    4 type  1   force =    -2.21461274   -2.41793757   -1.89473410
     atom    5 type  4   force =     1.10629470    6.64891067   -9.07336806
     atom    6 type  1   force =     0.36546968   -0.11640969   -1.10183124
     atom    7 type  4   force =     1.50288383   -5.05271865   -9.77776452
     atom    8 type  2   force =     3.60384086   -2.90361625    1.09074730
     atom    9 type  3   force =     2.00997459    0.07374552    1.76267793
     atom   10 type  3   force =     1.15130363   -2.48058175   -0.57270676
     atom   11 type  4   force =     8.79800160   -4.63299402    1.53075918
     atom   12 type  2   force =     2.58505107   -0.81038322    4.22194425
     atom   13 type  3   force =     2.32388197    0.91711069    1.45148203
     atom   14 type  3   force =    -0.16332259   -1.80320563    2.29171268
     atom   15 type  3   force =    -0.16332259    1.80320563    2.29171268
     atom   16 type  3   force =     2.32388197   -0.91711069    1.45148203
     atom   17 type  2   force =     2.58505107    0.81038322    4.22194425
     atom   18 type  4   force =     8.79800160    4.63299402    1.53075918
     atom   19 type  3   force =     1.15130363    2.48058175   -0.57270676
     atom   20 type  3   force =     2.00997459   -0.07374552    1.76267793
     atom   21 type  2   force =     3.60384086    2.90361625    1.09074730
     atom   22 type  4   force =     1.50288383    5.05271865   -9.77776452
     atom   23 type  1   force =     0.36546968    0.11640969   -1.10183124
     atom   24 type  4   force =     1.10629470   -6.64891067   -9.07336806
     atom   25 type  1   force =    -2.21461274    2.41793757   -1.89473410
     atom   26 type  1   force =     0.20521965    1.56248403   -0.08525601
     atom   27 type  4   force =    -9.79982185    3.72980320    4.41236161
     atom   28 type  1   force =     2.86018746    0.60174117    1.86713484
     atom   29 type  3   force =     0.16332259    1.80320563   -2.29171268
     atom   30 type  3   force =    -2.32388197   -0.91711069   -1.45148203
     atom   31 type  2   force =    -2.58505107    0.81038322   -4.22194425
     atom   32 type  4   force =    -8.79800160    4.63299402   -1.53075918
     atom   33 type  3   force =    -1.15130363    2.48058175    0.57270676
     atom   34 type  3   force =    -2.00997459   -0.07374552   -1.76267793
     atom   35 type  2   force =    -3.60384086    2.90361625   -1.09074730
     atom   36 type  4   force =    -1.50288383    5.05271865    9.77776452
     atom   37 type  1   force =    -0.36546968    0.11640969    1.10183124
     atom   38 type  4   force =    -1.10629470   -6.64891067    9.07336806
     atom   39 type  1   force =     2.21461274    2.41793757    1.89473410
     atom   40 type  1   force =    -0.20521965    1.56248403    0.08525601
     atom   41 type  4   force =     9.79982185    3.72980320   -4.41236161
     atom   42 type  1   force =    -2.86018746    0.60174117   -1.86713484
     atom   43 type  3   force =     0.16332259   -1.80320563   -2.29171268
     atom   44 type  3   force =    -2.32388197    0.91711069   -1.45148203
     atom   45 type  2   force =    -2.58505107   -0.81038322   -4.22194425
     atom   46 type  4   force =    -8.79800160   -4.63299402   -1.53075918
     atom   47 type  3   force =    -1.15130363   -2.48058175    0.57270676
     atom   48 type  3   force =    -2.00997459    0.07374552   -1.76267793
     atom   49 type  2   force =    -3.60384086   -2.90361625   -1.09074730
     atom   50 type  4   force =    -1.50288383   -5.05271865    9.77776452
     atom   51 type  1   force =    -0.36546968   -0.11640969    1.10183124
     atom   52 type  4   force =    -1.10629470    6.64891067    9.07336806
     atom   53 type  1   force =     2.21461274   -2.41793757    1.89473410
     atom   54 type  1   force =    -0.20521965   -1.56248403    0.08525601
     atom   55 type  4   force =     9.79982185   -3.72980320   -4.41236161
     atom   56 type  1   force =    -2.86018746   -0.60174117   -1.86713484
     The core correction contribution to forces
     atom    1 type  1   force =    -0.00304760   -0.00642024   -0.00186040
     atom    2 type  4   force =     0.01876077    0.00362063   -0.01190965
     atom    3 type  1   force =     0.00037417    0.00164935   -0.00001577
     atom    4 type  1   force =     0.00929952    0.00643868    0.00170850
     atom    5 type  4   force =    -0.00123627   -0.01431831    0.01741938
     atom    6 type  1   force =    -0.00112959   -0.00159269   -0.00023576
     atom    7 type  4   force =    -0.00406579    0.00890563    0.02025792
     atom    8 type  2   force =    -0.01345869    0.00958452   -0.00476434
     atom    9 type  3   force =     0.00000000    0.00000000    0.00000000
     atom   10 type  3   force =     0.00000000    0.00000000    0.00000000
     atom   11 type  4   force =    -0.01770683    0.01153595   -0.00664460
     atom   12 type  2   force =    -0.00898824    0.00388232   -0.01572505
     atom   13 type  3   force =     0.00000000    0.00000000    0.00000000
     atom   14 type  3   force =     0.00000000    0.00000000    0.00000000
     atom   15 type  3   force =     0.00000000    0.00000000    0.00000000
     atom   16 type  3   force =     0.00000000    0.00000000    0.00000000
     atom   17 type  2   force =    -0.00898824   -0.00388232   -0.01572505
     atom   18 type  4   force =    -0.01770683   -0.01153595   -0.00664460
     atom   19 type  3   force =     0.00000000    0.00000000    0.00000000
     atom   20 type  3   force =     0.00000000    0.00000000    0.00000000
     atom   21 type  2   force =    -0.01345869   -0.00958452   -0.00476434
     atom   22 type  4   force =    -0.00406579   -0.00890563    0.02025792
     atom   23 type  1   force =    -0.00112959    0.00159269   -0.00023576
     atom   24 type  4   force =    -0.00123627    0.01431831    0.01741938
     atom   25 type  1   force =     0.00929952   -0.00643868    0.00170850
     atom   26 type  1   force =     0.00037417   -0.00164935   -0.00001577
     atom   27 type  4   force =     0.01876077   -0.00362063   -0.01190965
     atom   28 type  1   force =    -0.00304760    0.00642024   -0.00186040
     atom   29 type  3   force =     0.00000000    0.00000000    0.00000000
     atom   30 type  3   force =     0.00000000    0.00000000    0.00000000
     atom   31 type  2   force =     0.00898824   -0.00388232    0.01572505
     atom   32 type  4   force =     0.01770683   -0.01153595    0.00664460
     atom   33 type  3   force =     0.00000000    0.00000000    0.00000000
     atom   34 type  3   force =     0.00000000    0.00000000    0.00000000
     atom   35 type  2   force =     0.01345869   -0.00958452    0.00476434
     atom   36 type  4   force =     0.00406579   -0.00890563   -0.02025792
     atom   37 type  1   force =     0.00112959    0.00159269    0.00023576
     atom   38 type  4   force =     0.00123627    0.01431831   -0.01741938
     atom   39 type  1   force =    -0.00929952   -0.00643868   -0.00170850
     atom   40 type  1   force =    -0.00037417   -0.00164935    0.00001577
     atom   41 type  4   force =    -0.01876077   -0.00362063    0.01190965
     atom   42 type  1   force =     0.00304760    0.00642024    0.00186040
     atom   43 type  3   force =     0.00000000    0.00000000    0.00000000
     atom   44 type  3   force =     0.00000000    0.00000000    0.00000000
     atom   45 type  2   force =     0.00898824    0.00388232    0.01572505
     atom   46 type  4   force =     0.01770683    0.01153595    0.00664460
     atom   47 type  3   force =     0.00000000    0.00000000    0.00000000
     atom   48 type  3   force =     0.00000000    0.00000000    0.00000000
     atom   49 type  2   force =     0.01345869    0.00958452    0.00476434
     atom   50 type  4   force =     0.00406579    0.00890563   -0.02025792
     atom   51 type  1   force =     0.00112959   -0.00159269    0.00023576
     atom   52 type  4   force =     0.00123627   -0.01431831   -0.01741938
     atom   53 type  1   force =    -0.00929952    0.00643868   -0.00170850
     atom   54 type  1   force =    -0.00037417    0.00164935    0.00001577
     atom   55 type  4   force =    -0.01876077    0.00362063    0.01190965
     atom   56 type  1   force =     0.00304760   -0.00642024    0.00186040
     The Hubbard contrib.    to forces
     atom    1 type  1   force =     0.00000000    0.00000000    0.00000000
     atom    2 type  4   force =     0.00000000    0.00000000    0.00000000
     atom    3 type  1   force =     0.00000000    0.00000000    0.00000000
     atom    4 type  1   force =     0.00000000    0.00000000    0.00000000
     atom    5 type  4   force =     0.00000000    0.00000000    0.00000000
     atom    6 type  1   force =     0.00000000    0.00000000    0.00000000
     atom    7 type  4   force =     0.00000000    0.00000000    0.00000000
     atom    8 type  2   force =     0.00000000    0.00000000    0.00000000
     atom    9 type  3   force =     0.00000000    0.00000000    0.00000000
     atom   10 type  3   force =     0.00000000    0.00000000    0.00000000
     atom   11 type  4   force =     0.00000000    0.00000000    0.00000000
     atom   12 type  2   force =     0.00000000    0.00000000    0.00000000
     atom   13 type  3   force =     0.00000000    0.00000000    0.00000000
     atom   14 type  3   force =     0.00000000    0.00000000    0.00000000
     atom   15 type  3   force =     0.00000000    0.00000000    0.00000000
     atom   16 type  3   force =     0.00000000    0.00000000    0.00000000
     atom   17 type  2   force =     0.00000000    0.00000000    0.00000000
     atom   18 type  4   force =     0.00000000    0.00000000    0.00000000
     atom   19 type  3   force =     0.00000000    0.00000000    0.00000000
     atom   20 type  3   force =     0.00000000    0.00000000    0.00000000
     atom   21 type  2   force =     0.00000000    0.00000000    0.00000000
     atom   22 type  4   force =     0.00000000    0.00000000    0.00000000
     atom   23 type  1   force =     0.00000000    0.00000000    0.00000000
     atom   24 type  4   force =     0.00000000    0.00000000    0.00000000
     atom   25 type  1   force =     0.00000000    0.00000000    0.00000000
     atom   26 type  1   force =     0.00000000    0.00000000    0.00000000
     atom   27 type  4   force =     0.00000000    0.00000000    0.00000000
     atom   28 type  1   force =     0.00000000    0.00000000    0.00000000
     atom   29 type  3   force =     0.00000000    0.00000000    0.00000000
     atom   30 type  3   force =     0.00000000    0.00000000    0.00000000
     atom   31 type  2   force =     0.00000000    0.00000000    0.00000000
     atom   32 type  4   force =     0.00000000    0.00000000    0.00000000
     atom   33 type  3   force =     0.00000000    0.00000000    0.00000000
     atom   34 type  3   force =     0.00000000    0.00000000    0.00000000
     atom   35 type  2   force =     0.00000000    0.00000000    0.00000000
     atom   36 type  4   force =     0.00000000    0.00000000    0.00000000
     atom   37 type  1   force =     0.00000000    0.00000000    0.00000000
     atom   38 type  4   force =     0.00000000    0.00000000    0.00000000
     atom   39 type  1   force =     0.00000000    0.00000000    0.00000000
     atom   40 type  1   force =     0.00000000    0.00000000    0.00000000
     atom   41 type  4   force =     0.00000000    0.00000000    0.00000000
     atom   42 type  1   force =     0.00000000    0.00000000    0.00000000
     atom   43 type  3   force =     0.00000000    0.00000000    0.00000000
     atom   44 type  3   force =     0.00000000    0.00000000    0.00000000
     atom   45 type  2   force =     0.00000000    0.00000000    0.00000000
     atom   46 type  4   force =     0.00000000    0.00000000    0.00000000
     atom   47 type  3   force =     0.00000000    0.00000000    0.00000000
     atom   48 type  3   force =     0.00000000    0.00000000    0.00000000
     atom   49 type  2   force =     0.00000000    0.00000000    0.00000000
     atom   50 type  4   force =     0.00000000    0.00000000    0.00000000
     atom   51 type  1   force =     0.00000000    0.00000000    0.00000000
     atom   52 type  4   force =     0.00000000    0.00000000    0.00000000
     atom   53 type  1   force =     0.00000000    0.00000000    0.00000000
     atom   54 type  1   force =     0.00000000    0.00000000    0.00000000
     atom   55 type  4   force =     0.00000000    0.00000000    0.00000000
     atom   56 type  1   force =     0.00000000    0.00000000    0.00000000
     The SCF correction term to forces
     atom    1 type  1   force =     0.00007216   -0.00002652   -0.00006563
     atom    2 type  4   force =     0.00000949   -0.00001374   -0.00009091
     atom    3 type  1   force =     0.00017587   -0.00018038   -0.00052653
     atom    4 type  1   force =     0.00000717   -0.00009366    0.00002276
     atom    5 type  4   force =     0.00004080   -0.00007796    0.00012211
     atom    6 type  1   force =    -0.00001587   -0.00022479    0.00028172
     atom    7 type  4   force =     0.00004237   -0.00007121   -0.00024162
     atom    8 type  2   force =     0.00003456    0.00001145   -0.00005865
     atom    9 type  3   force =     0.00000244   -0.00000293    0.00000260
     atom   10 type  3   force =    -0.00001422    0.00001439    0.00000063
     atom   11 type  4   force =     0.00000022   -0.00000444    0.00007239
     atom   12 type  2   force =     0.00000306    0.00006587    0.00001905
     atom   13 type  3   force =     0.00000681    0.00000090   -0.00000751
     atom   14 type  3   force =     0.00001864   -0.00000119   -0.00000349
     atom   15 type  3   force =     0.00001864    0.00000119   -0.00000349
     atom   16 type  3   force =     0.00000681   -0.00000090   -0.00000751
     atom   17 type  2   force =     0.00000306   -0.00006587    0.00001905
     atom   18 type  4   force =     0.00000022    0.00000444    0.00007239
     atom   19 type  3   force =    -0.00001422   -0.00001439    0.00000063
     atom   20 type  3   force =     0.00000244    0.00000293    0.00000260
     atom   21 type  2   force =     0.00003456   -0.00001145   -0.00005865
     atom   22 type  4   force =     0.00004237    0.00007121   -0.00024162
     atom   23 type  1   force =    -0.00001587    0.00022479    0.00028172
     atom   24 type  4   force =     0.00004080    0.00007796    0.00012211
     atom   25 type  1   force =     0.00000717    0.00009366    0.00002276
     atom   26 type  1   force =     0.00017587    0.00018038   -0.00052653
     atom   27 type  4   force =     0.00000949    0.00001374   -0.00009091
     atom   28 type  1   force =     0.00007216    0.00002652   -0.00006563
     atom   29 type  3   force =    -0.00001864    0.00000119    0.00000349
     atom   30 type  3   force =    -0.00000681   -0.00000090    0.00000751
     atom   31 type  2   force =    -0.00000306   -0.00006587   -0.00001905
     atom   32 type  4   force =    -0.00000022    0.00000444   -0.00007239
     atom   33 type  3   force =     0.00001422   -0.00001439   -0.00000063
     atom   34 type  3   force =    -0.00000244    0.00000293   -0.00000260
     atom   35 type  2   force =    -0.00003456   -0.00001145    0.00005865
     atom   36 type  4   force =    -0.00004237    0.00007121    0.00024162
     atom   37 type  1   force =     0.00001587    0.00022479   -0.00028172
     atom   38 type  4   force =    -0.00004080    0.00007796   -0.00012211
     atom   39 type  1   force =    -0.00000717    0.00009366   -0.00002276
     atom   40 type  1   force =    -0.00017587    0.00018038    0.00052653
     atom   41 type  4   force =    -0.00000949    0.00001374    0.00009091
     atom   42 type  1   force =    -0.00007216    0.00002652    0.00006563
     atom   43 type  3   force =    -0.00001864   -0.00000119    0.00000349
     atom   44 type  3   force =    -0.00000681    0.00000090    0.00000751
     atom   45 type  2   force =    -0.00000306    0.00006587   -0.00001905
     atom   46 type  4   force =    -0.00000022   -0.00000444   -0.00007239
     atom   47 type  3   force =     0.00001422    0.00001439   -0.00000063
     atom   48 type  3   force =    -0.00000244   -0.00000293   -0.00000260
     atom   49 type  2   force =    -0.00003456    0.00001145    0.00005865
     atom   50 type  4   force =    -0.00004237   -0.00007121    0.00024162
     atom   51 type  1   force =     0.00001587   -0.00022479   -0.00028172
     atom   52 type  4   force =    -0.00004080   -0.00007796   -0.00012211
     atom   53 type  1   force =    -0.00000717   -0.00009366   -0.00002276
     atom   54 type  1   force =    -0.00017587   -0.00018038    0.00052653
     atom   55 type  4   force =    -0.00000949   -0.00001374    0.00009091
     atom   56 type  1   force =    -0.00007216   -0.00002652    0.00006563

     Total force =     1.055696     Total SCF correction =     0.001552


     entering subroutine stress ...

          total   stress  (Ry/bohr**3)                   (kbar)     P=  134.51
   0.00094138   0.00000000   0.00010743        138.48      0.00     15.80
   0.00000000   0.00092894   0.00000000          0.00    136.65      0.00
   0.00010743   0.00000000   0.00087285         15.80      0.00    128.40

     kinetic stress (kbar)  15321.58      0.00    327.70
                                0.00  15755.07      0.00
                              327.70      0.00  15293.22

     local   stress (kbar) -15730.98     -0.00   7849.60
                               -0.00  -8727.25     -0.00
                             7849.60     -0.00 -11840.58

     nonloc. stress (kbar)   1040.08      0.00     10.99
                                0.00   1050.26      0.00
                               10.99      0.00   1010.16

     hartree stress (kbar)   7076.32      0.00  -2867.68
                                0.00   5037.20      0.00
                            -2867.68      0.00   5606.96

     exc-cor stress (kbar)  -2211.05      0.00    -10.86
                                0.00  -2231.88     -0.00
                              -10.86     -0.00  -2217.11

     corecor stress (kbar)  -1149.31     -0.00     -2.74
                               -0.00  -1151.32      0.00
                               -2.74      0.00  -1148.92

     ewald   stress (kbar)  -4208.15      0.00  -5291.19
                                0.00  -9595.42      0.00
                            -5291.19      0.00  -6575.33

     hubbard stress (kbar)      0.00      0.00      0.00
                                0.00      0.00      0.00
                                0.00      0.00      0.00

     london  stress (kbar)      0.00      0.00      0.00
                                0.00      0.00      0.00
                                0.00      0.00      0.00

     XDM     stress (kbar)      0.00      0.00      0.00
                                0.00      0.00      0.00
                                0.00      0.00      0.00

     dft-nl  stress (kbar)      0.00      0.00      0.00
                                0.00      0.00      0.00
                                0.00      0.00      0.00

     TS-vdW  stress (kbar)      0.00      0.00      0.00
                                0.00      0.00      0.00
                                0.00      0.00      0.00



     Writing output data file scf.pbe.ec-140.kp-444.HMX-792934.np-8.default-conv-thr.save

     init_run     :    664.64s CPU    707.24s WALL (       1 calls)
     electrons    :  18256.55s CPU  19946.94s WALL (       1 calls)
     forces       :    298.19s CPU    321.77s WALL (       1 calls)
     stress       :   1021.10s CPU   1046.71s WALL (       1 calls)

     Called by init_run:
     wfcinit      :    477.73s CPU    510.07s WALL (       1 calls)
     potinit      :     62.13s CPU     64.42s WALL (       1 calls)

     Called by electrons:
     c_bands      :  15423.30s CPU  16732.01s WALL (      14 calls)
     sum_band     :   2556.82s CPU   2888.76s WALL (      14 calls)
     v_of_rho     :     70.21s CPU     75.35s WALL (      15 calls)
     v_h          :      7.48s CPU      8.11s WALL (      15 calls)
     v_xc         :     70.81s CPU     76.04s WALL (      17 calls)
     newd         :    188.92s CPU    231.28s WALL (      15 calls)
     PAW_pot      :     10.04s CPU     10.40s WALL (      15 calls)
     mix_rho      :     15.62s CPU     16.24s WALL (      14 calls)

     Called by c_bands:
     init_us_2    :    100.09s CPU    102.44s WALL (     496 calls)
     cegterg      :  15298.76s CPU  16592.36s WALL (     224 calls)

     Called by sum_band:
     sum_band:bec :      0.22s CPU      0.22s WALL (     224 calls)
     addusdens    :    342.77s CPU    561.65s WALL (      14 calls)

     Called by *egterg:
     h_psi        :   9953.99s CPU  10666.35s WALL (    1259 calls)
     s_psi        :   1512.64s CPU   1611.52s WALL (    1259 calls)
     g_psi        :     12.02s CPU     16.10s WALL (    1019 calls)
     cdiaghg      :    317.38s CPU    329.71s WALL (    1243 calls)
     cegterg:over :   1559.56s CPU   1735.59s WALL (    1019 calls)
     cegterg:upda :   1029.64s CPU   1075.92s WALL (    1019 calls)
     cegterg:last :    458.85s CPU    501.09s WALL (     224 calls)

     Called by h_psi:
     h_psi:vloc   :   6955.53s CPU   7422.70s WALL (    1259 calls)
     h_psi:vnl    :   2948.88s CPU   3192.22s WALL (    1259 calls)
     add_vuspsi   :   1516.37s CPU   1638.07s WALL (    1259 calls)

     General routines
     calbec       :   2029.38s CPU   2193.66s WALL (    1563 calls)
     fft          :     87.62s CPU    107.42s WALL (     261 calls)
     ffts         :      1.62s CPU      1.76s WALL (      29 calls)
     fftw         :   3910.35s CPU   4420.71s WALL (  182680 calls)
     interpolate  :     13.25s CPU     14.03s WALL (      29 calls)
     davcio       :      1.23s CPU     36.81s WALL (      16 calls)

     Parallel routines
     fft_scatter  :   1708.07s CPU   2217.92s WALL (  182970 calls)

     PAW routines
     PAW_pot      :     10.04s CPU     10.40s WALL (      15 calls)
     PAW_symme    :      0.04s CPU      0.03s WALL (      29 calls)

     PWSCF        :     5h37m CPU        6h 7m WALL


   This run was terminated on:  11:38:39  26May2016            

=------------------------------------------------------------------------------=
   JOB DONE.
=------------------------------------------------------------------------------=
