
     Program PWSCF v.5.3.0 (svn rev. 11974) starts on 26May2016 at 23:28:29 

     This program is part of the open-source Quantum ESPRESSO suite
     for quantum simulation of materials; please cite
         "P. Giannozzi et al., J. Phys.:Condens. Matter 21 395502 (2009);
          URL http://www.quantum-espresso.org", 
     in publications or presentations arising from this work. More details at
     http://www.quantum-espresso.org/quote

     Parallel version (MPI), running on     8 processors
     R & G space division:  proc/nbgrp/npool/nimage =       8
     Waiting for input...
     Reading input from standard input
Warning: card    &IONS ignored
Warning: card TRUST_RADIUS_MAX=0.2 ignored
Warning: card / ignored
Warning: card     &CELL ignored
Warning: card CELL_DYNAMICS='BFGS' ignored
Warning: card / ignored

     Current dimensions of program PWSCF are:
     Max number of different atomic species (ntypx) = 10
     Max number of k-points (npk) =  40000
     Max angular momentum in pseudopotentials (lmaxx) =  3
               file N.pbe-n-kjpaw_psl.1.0.0.UPF: wavefunction(s)  2S renormalized
               file C.pbe-n-kjpaw_psl.1.0.0.UPF: wavefunction(s)  2S 2P renormalized
               file H.pbe-kjpaw_psl.1.0.0.UPF: wavefunction(s)  1S renormalized
               file O.pbe-n-kjpaw_psl.1.0.0.UPF: wavefunction(s)  2S 2P renormalized

     Subspace diagonalization in iterative solution of the eigenvalue problem:
     a serial algorithm will be used


     Parallelization info
     --------------------
     sticks:   dense  smooth     PW     G-vecs:    dense   smooth      PW
     Min        5554    2222    578               748055   189229   25172
     Max        5555    2223    579               748056   189278   25175
     Sum       44435   17779   4629              5984445  1513993  201387


     Title: 
     HMX-scf--kp-444-ec-220-default-conv-thr                                    


     bravais-lattice index     =            0
     lattice parameter (alat)  =       1.8897  a.u.
     unit-cell volume          =    3434.3216 (a.u.)^3
     number of atoms/cell      =           56
     number of atomic types    =            4
     number of electrons       =       224.00
     number of Kohn-Sham states=          112
     kinetic-energy cutoff     =     220.0000  Ry
     charge density cutoff     =    2200.0000  Ry
     convergence threshold     =      1.0E-06
     mixing beta               =       0.7000
     number of iterations used =            8  plain     mixing
     Exchange-correlation      =  SLA  PW   PBX  PBC ( 1  4  3  4 0 0)

     celldm(1)=   1.889726  celldm(2)=   0.000000  celldm(3)=   0.000000
     celldm(4)=   0.000000  celldm(5)=   0.000000  celldm(6)=   0.000000

     crystal axes: (cart. coord. in units of alat)
               a(1) = (   6.528800   0.000000   0.000000 )  
               a(2) = (   0.000000  10.886200   0.000000 )  
               a(3) = (  -1.569722   0.000000   7.160359 )  

     reciprocal axes: (cart. coord. in units 2 pi/alat)
               b(1) = (  0.153168 -0.000000  0.033578 )  
               b(2) = (  0.000000  0.091859 -0.000000 )  
               b(3) = (  0.000000  0.000000  0.139658 )  


     PseudoPot. # 1 for  N read from file:
     /users/majewski/.data/PSEUDOPOTENTIALS/N.pbe-n-kjpaw_psl.1.0.0.UPF
     MD5 check sum: c21df8f53e59d08c3548513d559cdda6
     Pseudo is Projector augmented-wave + core cor, Zval =  5.0
     Generated using "atomic" code by A. Dal Corso  v.5.3.0 svn rev. 11974
     Shape of augmentation charge: PSQ
     Using radial grid of 1085 points,  4 beta functions with: 
                l(1) =   0
                l(2) =   0
                l(3) =   1
                l(4) =   1
     Q(r) pseudized with 0 coefficients 


     PseudoPot. # 2 for  C read from file:
     /users/majewski/.data/PSEUDOPOTENTIALS/C.pbe-n-kjpaw_psl.1.0.0.UPF
     MD5 check sum: 2ba8448e293caca687844dde9a1b88a8
     Pseudo is Projector augmented-wave + core cor, Zval =  4.0
     Generated using "atomic" code by A. Dal Corso  v.5.3.0 svn rev. 11974
     Shape of augmentation charge: PSQ
     Using radial grid of 1073 points,  4 beta functions with: 
                l(1) =   0
                l(2) =   0
                l(3) =   1
                l(4) =   1
     Q(r) pseudized with 0 coefficients 


     PseudoPot. # 3 for  H read from file:
     /users/majewski/.data/PSEUDOPOTENTIALS/H.pbe-kjpaw_psl.1.0.0.UPF
     MD5 check sum: bc0feb48a24907a0b97fa6ee2d589a29
     Pseudo is Projector augmented-wave, Zval =  1.0
     Generated using "atomic" code by A. Dal Corso  v.5.3.0 svn rev. 11974
     Shape of augmentation charge: PSQ
     Using radial grid of  929 points,  2 beta functions with: 
                l(1) =   0
                l(2) =   0
     Q(r) pseudized with 0 coefficients 


     PseudoPot. # 4 for  O read from file:
     /users/majewski/.data/PSEUDOPOTENTIALS/O.pbe-n-kjpaw_psl.1.0.0.UPF
     MD5 check sum: 9c0ade6c043cf4a781bde3908a3a8206
     Pseudo is Projector augmented-wave + core cor, Zval =  6.0
     Generated using "atomic" code by A. Dal Corso  v.5.3.0 svn rev. 11974
     Shape of augmentation charge: PSQ
     Using radial grid of 1095 points,  4 beta functions with: 
                l(1) =   0
                l(2) =   0
                l(3) =   1
                l(4) =   1
     Q(r) pseudized with 0 coefficients 


     atomic species   valence    mass     pseudopotential
        N              5.00    14.00670      N( 1.00)
        C              4.00    12.01100      C( 1.00)
        H              1.00     1.00790      H( 1.00)
        O              6.00    15.99940      O( 1.00)

      4 Sym. Ops., with inversion, found ( 2 have fractional translation)


                                    s                        frac. trans.

      isym =  1     identity                                     

 cryst.   s( 1) = (     1          0          0      )
                  (     0          1          0      )
                  (     0          0          1      )

 cart.    s( 1) = (  1.0000000  0.0000000 -0.0000000 )
                  (  0.0000000  1.0000000  0.0000000 )
                  (  0.0000000  0.0000000  1.0000000 )


      isym =  2     180 deg rotation - cart. axis [0,1,0]        

 cryst.   s( 2) = (    -1          0          0      )    f =( -0.5000000 )
                  (     0          1          0      )       (  0.5000000 )
                  (     0          0         -1      )       (  0.5000000 )

 cart.    s( 2) = ( -1.0000000  0.0000000  0.0000000 )    f =( -4.0492611 )
                  (  0.0000000  1.0000000  0.0000000 )       (  5.4431000 )
                  (  0.0000000  0.0000000 -1.0000000 )       (  3.5801793 )


      isym =  3     inversion                                    

 cryst.   s( 3) = (    -1          0          0      )
                  (     0         -1          0      )
                  (     0          0         -1      )

 cart.    s( 3) = ( -1.0000000  0.0000000  0.0000000 )
                  (  0.0000000 -1.0000000  0.0000000 )
                  (  0.0000000  0.0000000 -1.0000000 )


      isym =  4     inv. 180 deg rotation - cart. axis [0,1,0]   

 cryst.   s( 4) = (     1          0          0      )    f =(  0.5000000 )
                  (     0         -1          0      )       (  0.5000000 )
                  (     0          0          1      )       (  0.5000000 )

 cart.    s( 4) = (  1.0000000  0.0000000 -0.0000000 )    f =(  2.4795389 )
                  (  0.0000000 -1.0000000  0.0000000 )       (  5.4431000 )
                  (  0.0000000  0.0000000  1.0000000 )       (  3.5801793 )


   Cartesian axes

     site n.     atom                  positions (alat units)
         1           N   tau(   1) = (  -0.8426245   6.7855862   3.2921181  )
         2           O   tau(   2) = (   1.0977498   7.8431805   3.1142548  )
         3           N   tau(   3) = (   0.0878624   7.6610544   3.7918395  )
         4           N   tau(   4) = (  -2.0432575   5.7306045   5.0613711  )
         5           O   tau(   5) = (  -3.2412146   4.6709418   6.6135221  )
         6           N   tau(   6) = (  -3.2299512   5.4696623   5.6821026  )
         7           O   tau(   7) = (  -0.1459332   8.1504979   4.8880905  )
         8           C   tau(   8) = (  -2.1183376   6.7096005   3.9540933  )
         9           H   tau(   9) = (  -2.8150805   6.4315670   3.3080857  )
        10           H   tau(  10) = (  -2.3643338   7.5996562   4.3105359  )
        11           O   tau(  11) = (  -4.2038894   6.1117304   5.2775424  )
        12           C   tau(  12) = (  -0.5824458   6.1523359   2.0058313  )
        13           H   tau(  13) = (  -1.4089366   5.7337615   1.7184861  )
        14           H   tau(  14) = (  -0.3166458   6.7940774   1.3282465  )
        15           H   tau(  15) = (   3.7326153  -1.3509774  -2.2519328  )
        16           H   tau(  16) = (   2.6403245  -0.2906615  -1.8616933  )
        17           C   tau(  17) = (   3.4668152  -0.7092359  -1.5743481  )
        18           O   tau(  18) = (  -0.1546283  -0.6686304   1.6973630  )
        19           H   tau(  19) = (   1.6849272  -2.1565562   0.7303566  )
        20           H   tau(  20) = (   1.2341806  -0.9884670  -0.2720936  )
        21           C   tau(  21) = (   1.9309234  -1.2665005   0.3739139  )
        22           O   tau(  22) = (   3.9033278  -2.7073979   1.3079111  )
        23           N   tau(  23) = (   0.8193099  -0.0265623   2.1019233  )
        24           O   tau(  24) = (   0.8080465   0.7721582   3.0333428  )
        25           N   tau(  25) = (   2.0060036  -0.2875045   1.4811918  )
        26           N   tau(  26) = (   4.1371235  -2.2179544   0.2116602  )
        27           O   tau(  27) = (   5.1470109  -2.4000805  -0.4659245  )
        28           N   tau(  28) = (   3.2066365  -1.3424862  -0.2880612  )
        29           H   tau(  29) = (  -1.2530763   4.0921226   5.8321122  )
        30           H   tau(  30) = (  -0.1607855   5.1524385   5.4418726  )
        31           C   tau(  31) = (  -0.9872763   4.7338641   5.1545274  )
        32           O   tau(  32) = (   2.6341672   4.7744696   1.8828163  )
        33           H   tau(  33) = (   0.7946117   3.2865438   2.8498228  )
        34           H   tau(  34) = (   1.2453584   4.4546330   3.8522730  )
        35           C   tau(  35) = (   0.5486155   4.1765995   3.2062654  )
        36           O   tau(  36) = (  -1.4237889   2.7357021   2.2722682  )
        37           N   tau(  37) = (   1.6602291   5.4165377   1.4782561  )
        38           O   tau(  38) = (   1.6714925   6.2152582   0.5468366  )
        39           N   tau(  39) = (   0.4735353   5.1555955   2.0989875  )
        40           N   tau(  40) = (  -1.6575845   3.2251456   3.3685191  )
        41           O   tau(  41) = (  -2.6674719   3.0430195   4.0461039  )
        42           N   tau(  42) = (  -0.7270976   4.1006138   3.8682406  )
        43           H   tau(  43) = (   2.7961847   1.3509774   2.2519328  )
        44           H   tau(  44) = (   3.8884755   0.2906615   1.8616933  )
        45           C   tau(  45) = (   3.0619848   0.7092359   1.5743481  )
        46           O   tau(  46) = (   6.6834283   0.6686304  -1.6973630  )
        47           H   tau(  47) = (   4.8438728   2.1565562  -0.7303566  )
        48           H   tau(  48) = (   5.2946194   0.9884670   0.2720936  )
        49           C   tau(  49) = (   4.5978766   1.2665005  -0.3739139  )
        50           O   tau(  50) = (   2.6254722   2.7073979  -1.3079111  )
        51           N   tau(  51) = (   5.7094901   0.0265623  -2.1019233  )
        52           O   tau(  52) = (   5.7207535  -0.7721582  -3.0333428  )
        53           N   tau(  53) = (   4.5227964   0.2875045  -1.4811918  )
        54           N   tau(  54) = (   2.3916765   2.2179544  -0.2116602  )
        55           O   tau(  55) = (   1.3817891   2.4000805   0.4659245  )
        56           N   tau(  56) = (   3.3221635   1.3424862   0.2880612  )

   Crystallographic axes

     site n.     atom                  positions (cryst. coord.)
         1           N   tau(   1) = ( -0.0185200  0.6233200  0.4597700  )
         2           O   tau(   2) = (  0.2727100  0.7204700  0.4349300  )
         3           N   tau(   3) = (  0.1407800  0.7037400  0.5295600  )
         4           N   tau(   4) = ( -0.1430100  0.5264100  0.7068600  )
         5           O   tau(   5) = ( -0.2743800  0.4290700  0.9236300  )
         6           N   tau(   6) = ( -0.3039300  0.5024400  0.7935500  )
         7           O   tau(   7) = (  0.1417800  0.7487000  0.6826600  )
         8           C   tau(   8) = ( -0.1916900  0.6163400  0.5522200  )
         9           H   tau(   9) = ( -0.3201000  0.5908000  0.4620000  )
        10           H   tau(  10) = ( -0.2174000  0.6981000  0.6020000  )
        11           O   tau(  11) = ( -0.4666900  0.5614200  0.7370500  )
        12           C   tau(  12) = ( -0.0218600  0.5651500  0.2801300  )
        13           H   tau(  13) = ( -0.1581000  0.5267000  0.2400000  )
        14           H   tau(  14) = ( -0.0039000  0.6241000  0.1855000  )
        15           H   tau(  15) = (  0.4961000 -0.1241000 -0.3145000  )
        16           H   tau(  16) = (  0.3419000 -0.0267000 -0.2600000  )
        17           C   tau(  17) = (  0.4781400 -0.0651500 -0.2198700  )
        18           O   tau(  18) = (  0.0333100 -0.0614200  0.2370500  )
        19           H   tau(  19) = (  0.2826000 -0.1981000  0.1020000  )
        20           H   tau(  20) = (  0.1799000 -0.0908000 -0.0380000  )
        21           C   tau(  21) = (  0.3083100 -0.1163400  0.0522200  )
        22           O   tau(  22) = (  0.6417800 -0.2487000  0.1826600  )
        23           N   tau(  23) = (  0.1960700 -0.0024400  0.2935500  )
        24           O   tau(  24) = (  0.2256200  0.0709300  0.4236300  )
        25           N   tau(  25) = (  0.3569900 -0.0264100  0.2068600  )
        26           N   tau(  26) = (  0.6407800 -0.2037400  0.0295600  )
        27           O   tau(  27) = (  0.7727100 -0.2204700 -0.0650700  )
        28           N   tau(  28) = (  0.4814800 -0.1233200 -0.0402300  )
        29           H   tau(  29) = (  0.0039000  0.3759000  0.8145000  )
        30           H   tau(  30) = (  0.1581000  0.4733000  0.7600000  )
        31           C   tau(  31) = (  0.0218600  0.4348500  0.7198700  )
        32           O   tau(  32) = (  0.4666900  0.4385800  0.2629500  )
        33           H   tau(  33) = (  0.2174000  0.3019000  0.3980000  )
        34           H   tau(  34) = (  0.3201000  0.4092000  0.5380000  )
        35           C   tau(  35) = (  0.1916900  0.3836600  0.4477800  )
        36           O   tau(  36) = ( -0.1417800  0.2513000  0.3173400  )
        37           N   tau(  37) = (  0.3039300  0.4975600  0.2064500  )
        38           O   tau(  38) = (  0.2743800  0.5709300  0.0763700  )
        39           N   tau(  39) = (  0.1430100  0.4735900  0.2931400  )
        40           N   tau(  40) = ( -0.1407800  0.2962600  0.4704400  )
        41           O   tau(  41) = ( -0.2727100  0.2795300  0.5650700  )
        42           N   tau(  42) = (  0.0185200  0.3766800  0.5402300  )
        43           H   tau(  43) = (  0.5039000  0.1241000  0.3145000  )
        44           H   tau(  44) = (  0.6581000  0.0267000  0.2600000  )
        45           C   tau(  45) = (  0.5218600  0.0651500  0.2198700  )
        46           O   tau(  46) = (  0.9666900  0.0614200 -0.2370500  )
        47           H   tau(  47) = (  0.7174000  0.1981000 -0.1020000  )
        48           H   tau(  48) = (  0.8201000  0.0908000  0.0380000  )
        49           C   tau(  49) = (  0.6916900  0.1163400 -0.0522200  )
        50           O   tau(  50) = (  0.3582200  0.2487000 -0.1826600  )
        51           N   tau(  51) = (  0.8039300  0.0024400 -0.2935500  )
        52           O   tau(  52) = (  0.7743800 -0.0709300 -0.4236300  )
        53           N   tau(  53) = (  0.6430100  0.0264100 -0.2068600  )
        54           N   tau(  54) = (  0.3592200  0.2037400 -0.0295600  )
        55           O   tau(  55) = (  0.2272900  0.2204700  0.0650700  )
        56           N   tau(  56) = (  0.5185200  0.1233200  0.0402300  )

     number of k points=    16
                       cart. coord. in units 2pi/alat
        k(    1) = (   0.0191459   0.0114824   0.0216545), wk =   0.1250000
        k(    2) = (   0.0191459   0.0114824   0.0565689), wk =   0.1250000
        k(    3) = (   0.0191459   0.0114824  -0.0481744), wk =   0.1250000
        k(    4) = (   0.0191459   0.0114824  -0.0132600), wk =   0.1250000
        k(    5) = (   0.0191459   0.0344473   0.0216545), wk =   0.1250000
        k(    6) = (   0.0191459   0.0344473   0.0565689), wk =   0.1250000
        k(    7) = (   0.0191459   0.0344473  -0.0481744), wk =   0.1250000
        k(    8) = (   0.0191459   0.0344473  -0.0132600), wk =   0.1250000
        k(    9) = (   0.0574378   0.0114824   0.0300490), wk =   0.1250000
        k(   10) = (   0.0574378   0.0114824   0.0649634), wk =   0.1250000
        k(   11) = (   0.0574378   0.0114824  -0.0397799), wk =   0.1250000
        k(   12) = (   0.0574378   0.0114824  -0.0048655), wk =   0.1250000
        k(   13) = (   0.0574378   0.0344473   0.0300490), wk =   0.1250000
        k(   14) = (   0.0574378   0.0344473   0.0649634), wk =   0.1250000
        k(   15) = (   0.0574378   0.0344473  -0.0397799), wk =   0.1250000
        k(   16) = (   0.0574378   0.0344473  -0.0048655), wk =   0.1250000

                       cryst. coord.
        k(    1) = (   0.1250000   0.1250000   0.1250000), wk =   0.1250000
        k(    2) = (   0.1250000   0.1250000   0.3750000), wk =   0.1250000
        k(    3) = (   0.1250000   0.1250000  -0.3750000), wk =   0.1250000
        k(    4) = (   0.1250000   0.1250000  -0.1250000), wk =   0.1250000
        k(    5) = (   0.1250000   0.3750000   0.1250000), wk =   0.1250000
        k(    6) = (   0.1250000   0.3750000   0.3750000), wk =   0.1250000
        k(    7) = (   0.1250000   0.3750000  -0.3750000), wk =   0.1250000
        k(    8) = (   0.1250000   0.3750000  -0.1250000), wk =   0.1250000
        k(    9) = (   0.3750000   0.1250000   0.1250000), wk =   0.1250000
        k(   10) = (   0.3750000   0.1250000   0.3750000), wk =   0.1250000
        k(   11) = (   0.3750000   0.1250000  -0.3750000), wk =   0.1250000
        k(   12) = (   0.3750000   0.1250000  -0.1250000), wk =   0.1250000
        k(   13) = (   0.3750000   0.3750000   0.1250000), wk =   0.1250000
        k(   14) = (   0.3750000   0.3750000   0.3750000), wk =   0.1250000
        k(   15) = (   0.3750000   0.3750000  -0.3750000), wk =   0.1250000
        k(   16) = (   0.3750000   0.3750000  -0.1250000), wk =   0.1250000

     Dense  grid:  5984445 G-vectors     FFT dimensions: ( 192, 320, 216)

     Smooth grid:  1513993 G-vectors     FFT dimensions: ( 120, 200, 135)

     Largest allocated arrays     est. size (Mb)     dimensions
        Kohn-Sham Wavefunctions        40.47 Mb     (   23680,  112)
        NL pseudopotentials           127.19 Mb     (   23680,  352)
        Each V/rho on FFT grid         25.31 Mb     ( 1658880)
        Each G-vector array             5.71 Mb     (  748056)
        G-vector shells                 5.24 Mb     (  686414)
     Largest temporary arrays     est. size (Mb)     dimensions
        Auxiliary wavefunctions       161.88 Mb     (   23680,  448)
        Each subspace H/S matrix        3.06 Mb     (     448,  448)
        Each <psi_i|beta_j> matrix      0.60 Mb     (     352,  112)
        Arrays for rho mixing         202.50 Mb     ( 1658880,    8)

     Initial potential from superposition of free atoms

     starting charge  223.99937, renormalised to  224.00000
     Starting wfc are  176 randomized atomic wfcs
     Checking if some PAW data can be deallocated... 
       node    0, deallocated PAW data for type:  2
       node    0, deallocated PAW data for type:  3
       node    1, deallocated PAW data for type:  1
       node    2, deallocated PAW data for type:  1
       node    3, deallocated PAW data for type:  2
       node    3, deallocated PAW data for type:  3
       node    4, deallocated PAW data for type:  1
       node    5, deallocated PAW data for type:  2
       node    5, deallocated PAW data for type:  3
       node    6, deallocated PAW data for type:  1
       node    7, deallocated PAW data for type:  2
       node    7, deallocated PAW data for type:  3

     total cpu time spent up to now is     1649.9 secs

     per-process dynamical memory:  1199.7 Mb

     Self-consistent Calculation

     iteration #  1     ecut=   220.00 Ry     beta=0.70
     Davidson diagonalization with overlap
     ethr =  1.00E-02,  avg # of iterations =  3.0

     total cpu time spent up to now is     7618.1 secs

     total energy              =   -1279.68514662 Ry
     Harris-Foulkes estimate   =   -1283.98216454 Ry
     estimated scf accuracy    <       6.62084863 Ry

     iteration #  2     ecut=   220.00 Ry     beta=0.70
     Davidson diagonalization with overlap
     ethr =  2.96E-03,  avg # of iterations =  4.0

     total cpu time spent up to now is    13992.8 secs

     total energy              =   -1280.32976860 Ry
     Harris-Foulkes estimate   =   -1283.85315040 Ry
     estimated scf accuracy    <       7.14212185 Ry

     iteration #  3     ecut=   220.00 Ry     beta=0.70
     Davidson diagonalization with overlap
     ethr =  2.96E-03,  avg # of iterations =  4.6

     total cpu time spent up to now is    19961.0 secs

     total energy              =   -1281.85232151 Ry
     Harris-Foulkes estimate   =   -1282.09224872 Ry
     estimated scf accuracy    <       0.44547811 Ry

     iteration #  4     ecut=   220.00 Ry     beta=0.70
     Davidson diagonalization with overlap
     ethr =  1.99E-04,  avg # of iterations =  4.9

     total cpu time spent up to now is    26726.8 secs

     total energy              =   -1282.00044745 Ry
     Harris-Foulkes estimate   =   -1282.09550528 Ry
     estimated scf accuracy    <       0.21347346 Ry

     iteration #  5     ecut=   220.00 Ry     beta=0.70
     Davidson diagonalization with overlap
     ethr =  9.53E-05,  avg # of iterations =  4.1

     total cpu time spent up to now is    33054.3 secs

     total energy              =   -1282.04318259 Ry
     Harris-Foulkes estimate   =   -1282.05256436 Ry
     estimated scf accuracy    <       0.02303362 Ry

     iteration #  6     ecut=   220.00 Ry     beta=0.70
     Davidson diagonalization with overlap
     ethr =  1.03E-05,  avg # of iterations =  6.9

     total cpu time spent up to now is    38764.6 secs

     total energy              =   -1282.04645271 Ry
     Harris-Foulkes estimate   =   -1282.04802763 Ry
     estimated scf accuracy    <       0.00366101 Ry

     iteration #  7     ecut=   220.00 Ry     beta=0.70
     Davidson diagonalization with overlap
     ethr =  1.63E-06,  avg # of iterations =  4.6

     total cpu time spent up to now is    45494.7 secs

     total energy              =   -1282.04838436 Ry
     Harris-Foulkes estimate   =   -1282.04896303 Ry
     estimated scf accuracy    <       0.00151161 Ry

     iteration #  8     ecut=   220.00 Ry     beta=0.70
     Davidson diagonalization with overlap
     ethr =  6.75E-07,  avg # of iterations =  2.3

     total cpu time spent up to now is    50006.2 secs

     total energy              =   -1282.04821308 Ry
     Harris-Foulkes estimate   =   -1282.04846120 Ry
     estimated scf accuracy    <       0.00049494 Ry

     iteration #  9     ecut=   220.00 Ry     beta=0.70
     Davidson diagonalization with overlap
     ethr =  2.21E-07,  avg # of iterations =  5.0

     total cpu time spent up to now is    57181.6 secs

     total energy              =   -1282.04877446 Ry
     Harris-Foulkes estimate   =   -1282.04908084 Ry
     estimated scf accuracy    <       0.00206867 Ry

     iteration # 10     ecut=   220.00 Ry     beta=0.70
     Davidson diagonalization with overlap
     ethr =  2.21E-07,  avg # of iterations =  1.0

     total cpu time spent up to now is    62156.3 secs

     total energy              =   -1282.04806816 Ry
     Harris-Foulkes estimate   =   -1282.04878135 Ry
     estimated scf accuracy    <       0.00157433 Ry

     iteration # 11     ecut=   220.00 Ry     beta=0.70
     Davidson diagonalization with overlap
     ethr =  2.21E-07,  avg # of iterations =  5.0

     total cpu time spent up to now is    69669.6 secs

     total energy              =   -1282.04865515 Ry
     Harris-Foulkes estimate   =   -1282.04883138 Ry
     estimated scf accuracy    <       0.00077502 Ry

     iteration # 12     ecut=   220.00 Ry     beta=0.70
     Davidson diagonalization with overlap
     ethr =  2.21E-07,  avg # of iterations =  1.0

     total cpu time spent up to now is    74528.5 secs

     total energy              =   -1282.04846608 Ry
     Harris-Foulkes estimate   =   -1282.04866145 Ry
     estimated scf accuracy    <       0.00049353 Ry

     iteration # 13     ecut=   220.00 Ry     beta=0.70
     Davidson diagonalization with overlap
     ethr =  2.20E-07,  avg # of iterations =  5.0

     total cpu time spent up to now is    80264.4 secs

     total energy              =   -1282.04867919 Ry
     Harris-Foulkes estimate   =   -1282.04873206 Ry
     estimated scf accuracy    <       0.00025913 Ry

     iteration # 14     ecut=   220.00 Ry     beta=0.70
     Davidson diagonalization with overlap
     ethr =  1.16E-07,  avg # of iterations =  1.0

     total cpu time spent up to now is    84515.5 secs

     total energy              =   -1282.04865128 Ry
     Harris-Foulkes estimate   =   -1282.04868134 Ry
     estimated scf accuracy    <       0.00017454 Ry

     iteration # 15     ecut=   220.00 Ry     beta=0.70
     Davidson diagonalization with overlap
     ethr =  7.79E-08,  avg # of iterations =  4.8

     total cpu time spent up to now is    89585.5 secs

     total energy              =   -1282.04867824 Ry
     Harris-Foulkes estimate   =   -1282.04868055 Ry
     estimated scf accuracy    <       0.00000361 Ry

     iteration # 16     ecut=   220.00 Ry     beta=0.70
     Davidson diagonalization with overlap
     ethr =  1.61E-09,  avg # of iterations =  5.0

     total cpu time spent up to now is    96080.8 secs

     total energy              =   -1282.04868222 Ry
     Harris-Foulkes estimate   =   -1282.04868437 Ry
     estimated scf accuracy    <       0.00000876 Ry

     iteration # 17     ecut=   220.00 Ry     beta=0.70
     Davidson diagonalization with overlap
     ethr =  1.61E-09,  avg # of iterations =  1.0

     total cpu time spent up to now is   100542.1 secs

     total energy              =   -1282.04868110 Ry
     Harris-Foulkes estimate   =   -1282.04868231 Ry
     estimated scf accuracy    <       0.00000530 Ry

     iteration # 18     ecut=   220.00 Ry     beta=0.70
     Davidson diagonalization with overlap
     ethr =  1.61E-09,  avg # of iterations =  5.0

     total cpu time spent up to now is   105790.8 secs

     End of self-consistent calculation

          k = 0.0191 0.0115 0.0217 (189235 PWs)   bands (ev):

   -23.8376 -23.8141 -23.8030 -23.7932 -23.5100 -23.4992 -23.4983 -23.4962
   -19.0563 -19.0508 -19.0438 -19.0308 -18.7221 -18.7214 -18.7182 -18.7167
   -18.1504 -18.1221 -17.1203 -17.0660 -16.9744 -16.9709 -15.9593 -15.9460
   -12.0091 -11.9852 -11.9762 -11.8822 -11.8190 -11.7405 -11.6625 -11.6411
    -8.8012  -8.7605  -8.1764  -8.1376  -7.4637  -7.4169  -7.3389  -7.3338
    -6.7701  -6.6647  -6.5212  -6.4221  -6.4030  -6.3235  -6.2699  -6.1791
    -6.0419  -6.0075  -5.9850  -5.8500  -5.8056  -5.7259  -5.6539  -5.6149
    -5.5579  -5.5348  -5.4602  -5.4139  -5.0599  -4.9425  -4.8443  -4.8326
    -4.3597  -4.3490  -4.3206  -4.2740  -4.1286  -4.0186  -3.7880  -3.7756
    -3.6047  -3.4670  -3.4061  -3.3623  -3.0749  -3.0351  -2.9421  -2.9225
    -0.7164  -0.7135  -0.2388  -0.2325  -0.1304  -0.0834  -0.0197   0.0056
     0.0650   0.0926   0.2457   0.2820   0.2993   0.3315   0.4559   0.4687
     0.5101   0.5371   0.7089   0.7688   0.8534   0.9044   0.9575   0.9720
     1.0129   1.1121   1.1418   1.2035   1.2777   1.4226   1.4398   1.4639

     occupation numbers 
     1.0000   1.0000   1.0000   1.0000   1.0000   1.0000   1.0000   1.0000
     1.0000   1.0000   1.0000   1.0000   1.0000   1.0000   1.0000   1.0000
     1.0000   1.0000   1.0000   1.0000   1.0000   1.0000   1.0000   1.0000
     1.0000   1.0000   1.0000   1.0000   1.0000   1.0000   1.0000   1.0000
     1.0000   1.0000   1.0000   1.0000   1.0000   1.0000   1.0000   1.0000
     1.0000   1.0000   1.0000   1.0000   1.0000   1.0000   1.0000   1.0000
     1.0000   1.0000   1.0000   1.0000   1.0000   1.0000   1.0000   1.0000
     1.0000   1.0000   1.0000   1.0000   1.0000   1.0000   1.0000   1.0000
     1.0000   1.0000   1.0000   1.0000   1.0000   1.0000   1.0000   1.0000
     1.0000   1.0000   1.0000   1.0000   1.0000   1.0000   1.0000   1.0000
     1.0000   1.0000   1.0000   1.0000   1.0000   1.0000   1.0000   1.0000
     1.0000   1.0000   1.0000   1.0000   1.0000   1.0000   1.0000   1.0000
     1.0000   1.0000   1.0000   1.0000   1.0000   1.0000   1.0000   1.0000
     1.0000   1.0000   1.0000   1.0000   1.0000   1.0000   1.0000   1.0000

          k = 0.0191 0.0115 0.0566 (189227 PWs)   bands (ev):

   -23.8293 -23.8199 -23.7993 -23.7981 -23.5104 -23.5067 -23.4960 -23.4919
   -19.0548 -19.0497 -19.0446 -19.0342 -18.7282 -18.7274 -18.7129 -18.7106
   -18.1379 -18.1373 -17.0939 -17.0914 -16.9697 -16.9667 -15.9549 -15.9526
   -11.9941 -11.9859 -11.9531 -11.9297 -11.7768 -11.7611 -11.6716 -11.6602
    -8.7817  -8.7439  -8.1588  -8.1319  -7.4750  -7.4203  -7.3179  -7.2321
    -6.8197  -6.6923  -6.5059  -6.4603  -6.4517  -6.3427  -6.2936  -6.2554
    -6.0968  -6.0690  -5.8634  -5.8125  -5.7896  -5.7369  -5.7071  -5.6626
    -5.6126  -5.5551  -5.3797  -5.3303  -5.0635  -4.9834  -4.8392  -4.8011
    -4.3205  -4.3119  -4.2534  -4.1831  -4.0523  -4.0190  -3.9017  -3.8995
    -3.5789  -3.5170  -3.3453  -3.3332  -3.1013  -3.0973  -2.9234  -2.8972
    -0.6796  -0.6495  -0.2523  -0.2397  -0.1414  -0.1094  -0.0543  -0.0290
     0.0027   0.0419   0.1563   0.2185   0.3153   0.3717   0.4244   0.4379
     0.6206   0.6817   0.7352   0.7746   0.8612   0.8766   0.9162   0.9724
     1.0648   1.1105   1.1829   1.2045   1.2936   1.3727   1.4419   1.4679

     occupation numbers 
     1.0000   1.0000   1.0000   1.0000   1.0000   1.0000   1.0000   1.0000
     1.0000   1.0000   1.0000   1.0000   1.0000   1.0000   1.0000   1.0000
     1.0000   1.0000   1.0000   1.0000   1.0000   1.0000   1.0000   1.0000
     1.0000   1.0000   1.0000   1.0000   1.0000   1.0000   1.0000   1.0000
     1.0000   1.0000   1.0000   1.0000   1.0000   1.0000   1.0000   1.0000
     1.0000   1.0000   1.0000   1.0000   1.0000   1.0000   1.0000   1.0000
     1.0000   1.0000   1.0000   1.0000   1.0000   1.0000   1.0000   1.0000
     1.0000   1.0000   1.0000   1.0000   1.0000   1.0000   1.0000   1.0000
     1.0000   1.0000   1.0000   1.0000   1.0000   1.0000   1.0000   1.0000
     1.0000   1.0000   1.0000   1.0000   1.0000   1.0000   1.0000   1.0000
     1.0000   1.0000   1.0000   1.0000   1.0000   1.0000   1.0000   1.0000
     1.0000   1.0000   1.0000   1.0000   1.0000   1.0000   1.0000   1.0000
     1.0000   1.0000   1.0000   1.0000   1.0000   1.0000   1.0000   1.0000
     1.0000   1.0000   1.0000   1.0000   1.0000   1.0000   1.0000   1.0000

          k = 0.0191 0.0115-0.0482 (189195 PWs)   bands (ev):

   -23.8304 -23.8192 -23.8031 -23.7939 -23.5119 -23.5086 -23.4929 -23.4915
   -19.0520 -19.0508 -19.0406 -19.0402 -18.7294 -18.7290 -18.7112 -18.7093
   -18.1504 -18.1232 -17.1177 -17.0670 -16.9720 -16.9712 -15.9585 -15.9418
   -12.0190 -11.9852 -11.9731 -11.8968 -11.8000 -11.7315 -11.6714 -11.6630
    -8.7906  -8.7033  -8.1455  -8.1410  -7.4697  -7.4526  -7.3268  -7.2067
    -6.8333  -6.7163  -6.5012  -6.4629  -6.4182  -6.3909  -6.3016  -6.2684
    -6.1239  -6.0909  -5.8610  -5.8290  -5.7396  -5.7010  -5.6866  -5.6698
    -5.6109  -5.5389  -5.3848  -5.3260  -5.0594  -4.9817  -4.8267  -4.7931
    -4.3516  -4.2763  -4.2451  -4.1798  -4.0792  -4.0498  -3.9125  -3.8502
    -3.5768  -3.5258  -3.3991  -3.3118  -3.1107  -3.0819  -2.9198  -2.9038
    -0.6104  -0.5511  -0.2408  -0.2299  -0.2085  -0.1716  -0.0921  -0.0756
    -0.0097  -0.0029   0.1249   0.2124   0.3332   0.3745   0.3794   0.4299
     0.6613   0.7460   0.7718   0.7855   0.8350   0.9269   0.9281   0.9537
     1.0635   1.1175   1.1883   1.2451   1.3025   1.3340   1.4306   1.4536

     occupation numbers 
     1.0000   1.0000   1.0000   1.0000   1.0000   1.0000   1.0000   1.0000
     1.0000   1.0000   1.0000   1.0000   1.0000   1.0000   1.0000   1.0000
     1.0000   1.0000   1.0000   1.0000   1.0000   1.0000   1.0000   1.0000
     1.0000   1.0000   1.0000   1.0000   1.0000   1.0000   1.0000   1.0000
     1.0000   1.0000   1.0000   1.0000   1.0000   1.0000   1.0000   1.0000
     1.0000   1.0000   1.0000   1.0000   1.0000   1.0000   1.0000   1.0000
     1.0000   1.0000   1.0000   1.0000   1.0000   1.0000   1.0000   1.0000
     1.0000   1.0000   1.0000   1.0000   1.0000   1.0000   1.0000   1.0000
     1.0000   1.0000   1.0000   1.0000   1.0000   1.0000   1.0000   1.0000
     1.0000   1.0000   1.0000   1.0000   1.0000   1.0000   1.0000   1.0000
     1.0000   1.0000   1.0000   1.0000   1.0000   1.0000   1.0000   1.0000
     1.0000   1.0000   1.0000   1.0000   1.0000   1.0000   1.0000   1.0000
     1.0000   1.0000   1.0000   1.0000   1.0000   1.0000   1.0000   1.0000
     1.0000   1.0000   1.0000   1.0000   1.0000   1.0000   1.0000   1.0000

          k = 0.0191 0.0115-0.0133 (189266 PWs)   bands (ev):

   -23.8381 -23.8143 -23.8041 -23.7913 -23.5121 -23.5029 -23.4950 -23.4937
   -19.0550 -19.0494 -19.0440 -19.0335 -18.7252 -18.7251 -18.7141 -18.7139
   -18.1552 -18.1157 -17.1299 -17.0556 -16.9772 -16.9750 -15.9597 -15.9384
   -12.0325 -11.9905 -11.9722 -11.8748 -11.8195 -11.7287 -11.6617 -11.6433
    -8.8123  -8.7177  -8.1691  -8.1411  -7.4692  -7.4430  -7.3711  -7.2832
    -6.7391  -6.7250  -6.5149  -6.4135  -6.4085  -6.3658  -6.2716  -6.1996
    -6.0945  -6.0443  -5.9051  -5.8535  -5.7694  -5.7262  -5.6370  -5.6061
    -5.5701  -5.5221  -5.4305  -5.4225  -5.0262  -4.9790  -4.8347  -4.8084
    -4.3607  -4.3457  -4.3143  -4.2899  -4.1412  -4.0251  -3.7986  -3.7368
    -3.6272  -3.4789  -3.4185  -3.3590  -3.0837  -3.0281  -2.9336  -2.9316
    -0.6666  -0.6446  -0.2272  -0.2208  -0.1333  -0.1027  -0.0326  -0.0126
     0.0031   0.0423   0.1459   0.2128   0.2651   0.3488   0.3970   0.4689
     0.6319   0.6721   0.7081   0.7892   0.8478   0.9076   0.9684   0.9860
     1.0174   1.0899   1.1664   1.2292   1.2716   1.4030   1.4251   1.4546

     occupation numbers 
     1.0000   1.0000   1.0000   1.0000   1.0000   1.0000   1.0000   1.0000
     1.0000   1.0000   1.0000   1.0000   1.0000   1.0000   1.0000   1.0000
     1.0000   1.0000   1.0000   1.0000   1.0000   1.0000   1.0000   1.0000
     1.0000   1.0000   1.0000   1.0000   1.0000   1.0000   1.0000   1.0000
     1.0000   1.0000   1.0000   1.0000   1.0000   1.0000   1.0000   1.0000
     1.0000   1.0000   1.0000   1.0000   1.0000   1.0000   1.0000   1.0000
     1.0000   1.0000   1.0000   1.0000   1.0000   1.0000   1.0000   1.0000
     1.0000   1.0000   1.0000   1.0000   1.0000   1.0000   1.0000   1.0000
     1.0000   1.0000   1.0000   1.0000   1.0000   1.0000   1.0000   1.0000
     1.0000   1.0000   1.0000   1.0000   1.0000   1.0000   1.0000   1.0000
     1.0000   1.0000   1.0000   1.0000   1.0000   1.0000   1.0000   1.0000
     1.0000   1.0000   1.0000   1.0000   1.0000   1.0000   1.0000   1.0000
     1.0000   1.0000   1.0000   1.0000   1.0000   1.0000   1.0000   1.0000
     1.0000   1.0000   1.0000   1.0000   1.0000   1.0000   1.0000   1.0000

          k = 0.0191 0.0344 0.0217 (189193 PWs)   bands (ev):

   -23.8321 -23.8230 -23.7982 -23.7948 -23.5062 -23.5013 -23.4982 -23.4977
   -19.0560 -19.0544 -19.0380 -19.0333 -18.7219 -18.7217 -18.7177 -18.7171
   -18.1424 -18.1307 -17.1043 -17.0819 -16.9732 -16.9717 -15.9553 -15.9498
   -11.9954 -11.9877 -11.9653 -11.9298 -11.7805 -11.7533 -11.6560 -11.6472
    -8.7903  -8.7734  -8.1658  -8.1496  -7.4543  -7.4345  -7.3292  -7.3270
    -6.7479  -6.7007  -6.4644  -6.4182  -6.4128  -6.3717  -6.2438  -6.2147
    -6.0563  -6.0348  -5.9014  -5.8640  -5.8063  -5.7608  -5.6695  -5.6525
    -5.5192  -5.5041  -5.4373  -5.4135  -5.0119  -4.9409  -4.8957  -4.8672
    -4.3727  -4.3623  -4.2845  -4.2642  -4.1045  -4.0517  -3.7823  -3.7744
    -3.5640  -3.5042  -3.3941  -3.3734  -3.0673  -3.0513  -2.9328  -2.9255
    -0.7119  -0.7100  -0.2297  -0.2198  -0.1476  -0.1139  -0.0397  -0.0330
     0.1000   0.1084   0.2752   0.2856   0.3212   0.3291   0.4695   0.4817
     0.4882   0.5261   0.7182   0.7494   0.8369   0.8598   0.9761   0.9981
     1.0333   1.0807   1.1693   1.1920   1.3208   1.3804   1.4485   1.4556

     occupation numbers 
     1.0000   1.0000   1.0000   1.0000   1.0000   1.0000   1.0000   1.0000
     1.0000   1.0000   1.0000   1.0000   1.0000   1.0000   1.0000   1.0000
     1.0000   1.0000   1.0000   1.0000   1.0000   1.0000   1.0000   1.0000
     1.0000   1.0000   1.0000   1.0000   1.0000   1.0000   1.0000   1.0000
     1.0000   1.0000   1.0000   1.0000   1.0000   1.0000   1.0000   1.0000
     1.0000   1.0000   1.0000   1.0000   1.0000   1.0000   1.0000   1.0000
     1.0000   1.0000   1.0000   1.0000   1.0000   1.0000   1.0000   1.0000
     1.0000   1.0000   1.0000   1.0000   1.0000   1.0000   1.0000   1.0000
     1.0000   1.0000   1.0000   1.0000   1.0000   1.0000   1.0000   1.0000
     1.0000   1.0000   1.0000   1.0000   1.0000   1.0000   1.0000   1.0000
     1.0000   1.0000   1.0000   1.0000   1.0000   1.0000   1.0000   1.0000
     1.0000   1.0000   1.0000   1.0000   1.0000   1.0000   1.0000   1.0000
     1.0000   1.0000   1.0000   1.0000   1.0000   1.0000   1.0000   1.0000
     1.0000   1.0000   1.0000   1.0000   1.0000   1.0000   1.0000   1.0000

          k = 0.0191 0.0344 0.0566 (189227 PWs)   bands (ev):

   -23.8262 -23.8222 -23.7995 -23.7989 -23.5087 -23.5072 -23.4953 -23.4936
   -19.0547 -19.0532 -19.0395 -19.0359 -18.7279 -18.7276 -18.7122 -18.7113
   -18.1377 -18.1375 -17.0936 -17.0926 -16.9683 -16.9671 -15.9542 -15.9533
   -11.9908 -11.9865 -11.9502 -11.9395 -11.7691 -11.7622 -11.6694 -11.6645
    -8.7709  -8.7552  -8.1515  -8.1402  -7.4577  -7.4356  -7.2919  -7.2576
    -6.8001  -6.7535  -6.4858  -6.4715  -6.4035  -6.3558  -6.3021  -6.2797
    -6.0556  -6.0210  -5.8833  -5.8267  -5.7769  -5.7422  -5.7087  -5.6893
    -5.6006  -5.5625  -5.3885  -5.3639  -4.9961  -4.9431  -4.8916  -4.8508
    -4.2935  -4.2763  -4.2504  -4.2156  -4.0489  -4.0351  -3.9018  -3.8999
    -3.5545  -3.5286  -3.3434  -3.3380  -3.0966  -3.0921  -2.9237  -2.9108
    -0.6695  -0.6570  -0.2434  -0.2332  -0.1559  -0.1285  -0.0686  -0.0523
     0.0297   0.0462   0.2078   0.2283   0.3214   0.3492   0.4147   0.4286
     0.6393   0.6654   0.7470   0.7657   0.8664   0.8823   0.9167   0.9543
     1.0666   1.0909   1.1941   1.2024   1.3220   1.3536   1.4481   1.4587

     occupation numbers 
     1.0000   1.0000   1.0000   1.0000   1.0000   1.0000   1.0000   1.0000
     1.0000   1.0000   1.0000   1.0000   1.0000   1.0000   1.0000   1.0000
     1.0000   1.0000   1.0000   1.0000   1.0000   1.0000   1.0000   1.0000
     1.0000   1.0000   1.0000   1.0000   1.0000   1.0000   1.0000   1.0000
     1.0000   1.0000   1.0000   1.0000   1.0000   1.0000   1.0000   1.0000
     1.0000   1.0000   1.0000   1.0000   1.0000   1.0000   1.0000   1.0000
     1.0000   1.0000   1.0000   1.0000   1.0000   1.0000   1.0000   1.0000
     1.0000   1.0000   1.0000   1.0000   1.0000   1.0000   1.0000   1.0000
     1.0000   1.0000   1.0000   1.0000   1.0000   1.0000   1.0000   1.0000
     1.0000   1.0000   1.0000   1.0000   1.0000   1.0000   1.0000   1.0000
     1.0000   1.0000   1.0000   1.0000   1.0000   1.0000   1.0000   1.0000
     1.0000   1.0000   1.0000   1.0000   1.0000   1.0000   1.0000   1.0000
     1.0000   1.0000   1.0000   1.0000   1.0000   1.0000   1.0000   1.0000
     1.0000   1.0000   1.0000   1.0000   1.0000   1.0000   1.0000   1.0000

          k = 0.0191 0.0344-0.0482 (189247 PWs)   bands (ev):

   -23.8272 -23.8226 -23.8003 -23.7965 -23.5105 -23.5091 -23.4929 -23.4923
   -19.0527 -19.0523 -19.0394 -19.0392 -18.7292 -18.7291 -18.7107 -18.7099
   -18.1427 -18.1314 -17.1030 -17.0820 -16.9715 -16.9711 -15.9535 -15.9466
   -12.0094 -11.9965 -11.9561 -11.9278 -11.7706 -11.7445 -11.6693 -11.6655
    -8.7661  -8.7300  -8.1458  -8.1435  -7.4607  -7.4548  -7.2952  -7.2442
    -6.7973  -6.7478  -6.5085  -6.4778  -6.4007  -6.3839  -6.3344  -6.3148
    -6.0331  -6.0149  -5.8995  -5.8678  -5.7318  -5.7124  -5.6874  -5.6626
    -5.6018  -5.5627  -5.3765  -5.3452  -5.0295  -4.9755  -4.8520  -4.8175
    -4.3373  -4.3053  -4.2016  -4.1761  -4.0801  -4.0680  -3.8948  -3.8693
    -3.5536  -3.5324  -3.3738  -3.3375  -3.0958  -3.0827  -2.9253  -2.9192
    -0.5938  -0.5696  -0.2415  -0.2356  -0.1768  -0.1576  -0.1181  -0.0965
    -0.0256  -0.0139   0.1782   0.2128   0.3373   0.3556   0.3909   0.4195
     0.6847   0.7194   0.7923   0.8067   0.8296   0.8765   0.9422   0.9536
     1.0759   1.0924   1.2150   1.2356   1.3093   1.3234   1.4363   1.4464

     occupation numbers 
     1.0000   1.0000   1.0000   1.0000   1.0000   1.0000   1.0000   1.0000
     1.0000   1.0000   1.0000   1.0000   1.0000   1.0000   1.0000   1.0000
     1.0000   1.0000   1.0000   1.0000   1.0000   1.0000   1.0000   1.0000
     1.0000   1.0000   1.0000   1.0000   1.0000   1.0000   1.0000   1.0000
     1.0000   1.0000   1.0000   1.0000   1.0000   1.0000   1.0000   1.0000
     1.0000   1.0000   1.0000   1.0000   1.0000   1.0000   1.0000   1.0000
     1.0000   1.0000   1.0000   1.0000   1.0000   1.0000   1.0000   1.0000
     1.0000   1.0000   1.0000   1.0000   1.0000   1.0000   1.0000   1.0000
     1.0000   1.0000   1.0000   1.0000   1.0000   1.0000   1.0000   1.0000
     1.0000   1.0000   1.0000   1.0000   1.0000   1.0000   1.0000   1.0000
     1.0000   1.0000   1.0000   1.0000   1.0000   1.0000   1.0000   1.0000
     1.0000   1.0000   1.0000   1.0000   1.0000   1.0000   1.0000   1.0000
     1.0000   1.0000   1.0000   1.0000   1.0000   1.0000   1.0000   1.0000
     1.0000   1.0000   1.0000   1.0000   1.0000   1.0000   1.0000   1.0000

          k = 0.0191 0.0344-0.0133 (189203 PWs)   bands (ev):

   -23.8327 -23.8237 -23.7980 -23.7936 -23.5089 -23.5050 -23.4950 -23.4945
   -19.0548 -19.0532 -19.0388 -19.0351 -18.7252 -18.7251 -18.7140 -18.7139
   -18.1442 -18.1278 -17.1078 -17.0771 -16.9766 -16.9756 -15.9532 -15.9444
   -12.0163 -11.9993 -11.9589 -11.9256 -11.7750 -11.7441 -11.6556 -11.6480
    -8.7864  -8.7473  -8.1626  -8.1510  -7.4626  -7.4503  -7.3415  -7.3067
    -6.7134  -6.6965  -6.5072  -6.4510  -6.4054  -6.3821  -6.2964  -6.2615
    -6.0314  -6.0071  -5.9128  -5.8842  -5.7614  -5.7380  -5.6438  -5.6428
    -5.5195  -5.5053  -5.4206  -5.4109  -5.0220  -4.9882  -4.8510  -4.8299
    -4.3768  -4.3720  -4.2861  -4.2630  -4.1178  -4.0615  -3.7782  -3.7528
    -3.5727  -3.5100  -3.4046  -3.3789  -3.0707  -3.0479  -2.9324  -2.9317
    -0.6564  -0.6473  -0.2202  -0.2095  -0.1487  -0.1161  -0.0435  -0.0337
     0.0024   0.0242   0.1805   0.2109   0.2922   0.3301   0.4358   0.4670
     0.6465   0.6774   0.7082   0.7656   0.8228   0.8619   0.9893   0.9937
     1.0451   1.0734   1.1964   1.2209   1.3035   1.3608   1.4354   1.4437

     occupation numbers 
     1.0000   1.0000   1.0000   1.0000   1.0000   1.0000   1.0000   1.0000
     1.0000   1.0000   1.0000   1.0000   1.0000   1.0000   1.0000   1.0000
     1.0000   1.0000   1.0000   1.0000   1.0000   1.0000   1.0000   1.0000
     1.0000   1.0000   1.0000   1.0000   1.0000   1.0000   1.0000   1.0000
     1.0000   1.0000   1.0000   1.0000   1.0000   1.0000   1.0000   1.0000
     1.0000   1.0000   1.0000   1.0000   1.0000   1.0000   1.0000   1.0000
     1.0000   1.0000   1.0000   1.0000   1.0000   1.0000   1.0000   1.0000
     1.0000   1.0000   1.0000   1.0000   1.0000   1.0000   1.0000   1.0000
     1.0000   1.0000   1.0000   1.0000   1.0000   1.0000   1.0000   1.0000
     1.0000   1.0000   1.0000   1.0000   1.0000   1.0000   1.0000   1.0000
     1.0000   1.0000   1.0000   1.0000   1.0000   1.0000   1.0000   1.0000
     1.0000   1.0000   1.0000   1.0000   1.0000   1.0000   1.0000   1.0000
     1.0000   1.0000   1.0000   1.0000   1.0000   1.0000   1.0000   1.0000
     1.0000   1.0000   1.0000   1.0000   1.0000   1.0000   1.0000   1.0000

          k = 0.0574 0.0115 0.0300 (189283 PWs)   bands (ev):

   -23.8268 -23.8168 -23.7999 -23.7993 -23.5080 -23.5041 -23.4998 -23.4958
   -19.0543 -19.0500 -19.0453 -19.0350 -18.7260 -18.7249 -18.7156 -18.7137
   -18.1431 -18.1426 -17.0932 -17.0912 -16.9729 -16.9708 -15.9556 -15.9529
   -11.9806 -11.9766 -11.9202 -11.9008 -11.7488 -11.7258 -11.6757 -11.6563
    -8.8019  -8.7672  -8.1762  -8.1520  -7.4614  -7.4278  -7.4046  -7.3472
    -6.8930  -6.8229  -6.5932  -6.4629  -6.3690  -6.3272  -6.1702  -6.1351
    -6.1123  -6.0609  -5.9193  -5.8538  -5.7980  -5.7521  -5.6633  -5.6385
    -5.5496  -5.5099  -5.4569  -5.4364  -5.0687  -4.9525  -4.8304  -4.8266
    -4.3477  -4.3253  -4.2791  -4.2297  -3.9356  -3.8798  -3.7300  -3.6822
    -3.6426  -3.5147  -3.4754  -3.4668  -3.0705  -3.0675  -2.9440  -2.9107
    -0.6675  -0.6593  -0.2187  -0.2131  -0.1271  -0.1063  -0.0414  -0.0133
     0.0192   0.0478   0.1918   0.2131   0.2801   0.2969   0.4390   0.4598
     0.6545   0.6655   0.7387   0.7862   0.8617   0.8671   0.9593   0.9744
     1.0276   1.0753   1.1002   1.1454   1.3564   1.3921   1.4153   1.4560

     occupation numbers 
     1.0000   1.0000   1.0000   1.0000   1.0000   1.0000   1.0000   1.0000
     1.0000   1.0000   1.0000   1.0000   1.0000   1.0000   1.0000   1.0000
     1.0000   1.0000   1.0000   1.0000   1.0000   1.0000   1.0000   1.0000
     1.0000   1.0000   1.0000   1.0000   1.0000   1.0000   1.0000   1.0000
     1.0000   1.0000   1.0000   1.0000   1.0000   1.0000   1.0000   1.0000
     1.0000   1.0000   1.0000   1.0000   1.0000   1.0000   1.0000   1.0000
     1.0000   1.0000   1.0000   1.0000   1.0000   1.0000   1.0000   1.0000
     1.0000   1.0000   1.0000   1.0000   1.0000   1.0000   1.0000   1.0000
     1.0000   1.0000   1.0000   1.0000   1.0000   1.0000   1.0000   1.0000
     1.0000   1.0000   1.0000   1.0000   1.0000   1.0000   1.0000   1.0000
     1.0000   1.0000   1.0000   1.0000   1.0000   1.0000   1.0000   1.0000
     1.0000   1.0000   1.0000   1.0000   1.0000   1.0000   1.0000   1.0000
     1.0000   1.0000   1.0000   1.0000   1.0000   1.0000   1.0000   1.0000
     1.0000   1.0000   1.0000   1.0000   1.0000   1.0000   1.0000   1.0000

          k = 0.0574 0.0115 0.0650 (189269 PWs)   bands (ev):

   -23.8226 -23.8198 -23.8039 -23.7954 -23.5058 -23.5057 -23.5033 -23.4940
   -19.0553 -19.0521 -19.0455 -19.0334 -18.7363 -18.7340 -18.7076 -18.7033
   -18.1592 -18.1330 -17.1147 -17.0667 -16.9627 -16.9593 -15.9723 -15.9516
   -11.9986 -11.9827 -11.9487 -11.8727 -11.7415 -11.7048 -11.6798 -11.6581
    -8.8493  -8.7221  -8.1728  -8.1318  -7.4569  -7.4375  -7.3588  -7.2239
    -6.9995  -6.7695  -6.5979  -6.4072  -6.3917  -6.3527  -6.3322  -6.2252
    -6.1693  -6.0798  -5.9033  -5.8644  -5.8224  -5.7528  -5.6893  -5.6283
    -5.5251  -5.4788  -5.4169  -5.3333  -5.0826  -4.9173  -4.9033  -4.8316
    -4.2912  -4.2773  -4.2110  -4.1719  -3.8917  -3.8741  -3.8214  -3.7939
    -3.6566  -3.5432  -3.4803  -3.3782  -3.1219  -3.0856  -2.9424  -2.8767
    -0.7438  -0.7098  -0.2275  -0.1884  -0.1263  -0.0952  -0.0333   0.0050
     0.0566   0.0961   0.2508   0.2805   0.3090   0.3253   0.4028   0.5036
     0.5719   0.5835   0.6369   0.7411   0.8648   0.8919   0.9446   0.9656
     1.0609   1.0992   1.1083   1.1382   1.3688   1.4112   1.4225   1.4708

     occupation numbers 
     1.0000   1.0000   1.0000   1.0000   1.0000   1.0000   1.0000   1.0000
     1.0000   1.0000   1.0000   1.0000   1.0000   1.0000   1.0000   1.0000
     1.0000   1.0000   1.0000   1.0000   1.0000   1.0000   1.0000   1.0000
     1.0000   1.0000   1.0000   1.0000   1.0000   1.0000   1.0000   1.0000
     1.0000   1.0000   1.0000   1.0000   1.0000   1.0000   1.0000   1.0000
     1.0000   1.0000   1.0000   1.0000   1.0000   1.0000   1.0000   1.0000
     1.0000   1.0000   1.0000   1.0000   1.0000   1.0000   1.0000   1.0000
     1.0000   1.0000   1.0000   1.0000   1.0000   1.0000   1.0000   1.0000
     1.0000   1.0000   1.0000   1.0000   1.0000   1.0000   1.0000   1.0000
     1.0000   1.0000   1.0000   1.0000   1.0000   1.0000   1.0000   1.0000
     1.0000   1.0000   1.0000   1.0000   1.0000   1.0000   1.0000   1.0000
     1.0000   1.0000   1.0000   1.0000   1.0000   1.0000   1.0000   1.0000
     1.0000   1.0000   1.0000   1.0000   1.0000   1.0000   1.0000   1.0000
     1.0000   1.0000   1.0000   1.0000   1.0000   1.0000   1.0000   1.0000

          k = 0.0574 0.0115-0.0398 (189229 PWs)   bands (ev):

   -23.8245 -23.8184 -23.8055 -23.7932 -23.5094 -23.5083 -23.4986 -23.4925
   -19.0533 -19.0508 -19.0461 -19.0363 -18.7370 -18.7349 -18.7067 -18.7025
   -18.1642 -18.1265 -17.1253 -17.0552 -16.9658 -16.9633 -15.9716 -15.9451
   -12.0085 -11.9881 -11.9654 -11.8504 -11.7577 -11.6862 -11.6749 -11.6634
    -8.8437  -8.6963  -8.1665  -8.1330  -7.4581  -7.4388  -7.3836  -7.2114
    -7.0205  -6.7699  -6.5855  -6.4393  -6.3948  -6.3796  -6.3209  -6.2543
    -6.1732  -6.0964  -5.8882  -5.8357  -5.7729  -5.7607  -5.6904  -5.6451
    -5.5015  -5.4746  -5.4233  -5.3330  -5.0734  -4.9403  -4.8761  -4.8184
    -4.2949  -4.2516  -4.2127  -4.1850  -3.9297  -3.9204  -3.7711  -3.7576
    -3.6084  -3.5762  -3.5328  -3.3809  -3.1266  -3.0820  -2.9385  -2.8824
    -0.6996  -0.6426  -0.2194  -0.1620  -0.1416  -0.1175  -0.0408  -0.0186
    -0.0060   0.0363   0.1875   0.2800   0.3007   0.3516   0.3635   0.3897
     0.6161   0.6838   0.7223   0.7443   0.8643   0.8909   0.9621   0.9779
     1.0526   1.0819   1.1242   1.1919   1.3828   1.4009   1.4073   1.4358

     occupation numbers 
     1.0000   1.0000   1.0000   1.0000   1.0000   1.0000   1.0000   1.0000
     1.0000   1.0000   1.0000   1.0000   1.0000   1.0000   1.0000   1.0000
     1.0000   1.0000   1.0000   1.0000   1.0000   1.0000   1.0000   1.0000
     1.0000   1.0000   1.0000   1.0000   1.0000   1.0000   1.0000   1.0000
     1.0000   1.0000   1.0000   1.0000   1.0000   1.0000   1.0000   1.0000
     1.0000   1.0000   1.0000   1.0000   1.0000   1.0000   1.0000   1.0000
     1.0000   1.0000   1.0000   1.0000   1.0000   1.0000   1.0000   1.0000
     1.0000   1.0000   1.0000   1.0000   1.0000   1.0000   1.0000   1.0000
     1.0000   1.0000   1.0000   1.0000   1.0000   1.0000   1.0000   1.0000
     1.0000   1.0000   1.0000   1.0000   1.0000   1.0000   1.0000   1.0000
     1.0000   1.0000   1.0000   1.0000   1.0000   1.0000   1.0000   1.0000
     1.0000   1.0000   1.0000   1.0000   1.0000   1.0000   1.0000   1.0000
     1.0000   1.0000   1.0000   1.0000   1.0000   1.0000   1.0000   1.0000
     1.0000   1.0000   1.0000   1.0000   1.0000   1.0000   1.0000   1.0000

          k = 0.0574 0.0115-0.0049 (189259 PWs)   bands (ev):

   -23.8277 -23.8164 -23.8038 -23.7948 -23.5104 -23.5068 -23.4961 -23.4944
   -19.0517 -19.0505 -19.0415 -19.0413 -18.7278 -18.7272 -18.7133 -18.7117
   -18.1558 -18.1284 -17.1173 -17.0663 -16.9754 -16.9752 -15.9591 -15.9422
   -11.9937 -11.9771 -11.9567 -11.8605 -11.7690 -11.7018 -11.6702 -11.6635
    -8.8113  -8.7257  -8.1636  -8.1601  -7.4541  -7.4466  -7.4353  -7.3231
    -6.9125  -6.8169  -6.5493  -6.5235  -6.3625  -6.3569  -6.2096  -6.1796
    -6.0928  -6.0839  -5.8579  -5.8168  -5.7656  -5.7377  -5.6763  -5.6681
    -5.5298  -5.5117  -5.4504  -5.4388  -5.0276  -5.0052  -4.8088  -4.8053
    -4.3486  -4.3213  -4.2741  -4.2381  -3.9504  -3.9051  -3.6903  -3.6791
    -3.5974  -3.5655  -3.5189  -3.4555  -3.0896  -3.0515  -2.9383  -2.9170
    -0.6110  -0.5638  -0.2241  -0.2116  -0.1383  -0.1295  -0.1004  -0.0987
     0.0054   0.0357   0.1503   0.2209   0.2594   0.3049   0.4086   0.4484
     0.6344   0.7056   0.8031   0.8254   0.8605   0.8927   0.9748   0.9971
     1.0283   1.0421   1.1089   1.1937   1.3741   1.3820   1.3960   1.4161

     occupation numbers 
     1.0000   1.0000   1.0000   1.0000   1.0000   1.0000   1.0000   1.0000
     1.0000   1.0000   1.0000   1.0000   1.0000   1.0000   1.0000   1.0000
     1.0000   1.0000   1.0000   1.0000   1.0000   1.0000   1.0000   1.0000
     1.0000   1.0000   1.0000   1.0000   1.0000   1.0000   1.0000   1.0000
     1.0000   1.0000   1.0000   1.0000   1.0000   1.0000   1.0000   1.0000
     1.0000   1.0000   1.0000   1.0000   1.0000   1.0000   1.0000   1.0000
     1.0000   1.0000   1.0000   1.0000   1.0000   1.0000   1.0000   1.0000
     1.0000   1.0000   1.0000   1.0000   1.0000   1.0000   1.0000   1.0000
     1.0000   1.0000   1.0000   1.0000   1.0000   1.0000   1.0000   1.0000
     1.0000   1.0000   1.0000   1.0000   1.0000   1.0000   1.0000   1.0000
     1.0000   1.0000   1.0000   1.0000   1.0000   1.0000   1.0000   1.0000
     1.0000   1.0000   1.0000   1.0000   1.0000   1.0000   1.0000   1.0000
     1.0000   1.0000   1.0000   1.0000   1.0000   1.0000   1.0000   1.0000
     1.0000   1.0000   1.0000   1.0000   1.0000   1.0000   1.0000   1.0000

          k = 0.0574 0.0344 0.0300 (189259 PWs)   bands (ev):

   -23.8236 -23.8194 -23.8002 -23.7998 -23.5059 -23.5043 -23.4995 -23.4978
   -19.0543 -19.0532 -19.0404 -19.0368 -18.7257 -18.7252 -18.7151 -18.7143
   -18.1430 -18.1427 -17.0928 -17.0920 -16.9720 -16.9712 -15.9548 -15.9537
   -11.9797 -11.9781 -11.9128 -11.9046 -11.7440 -11.7344 -11.6698 -11.6617
    -8.7917  -8.7773  -8.1655  -8.1552  -7.4503  -7.4371  -7.3927  -7.3681
    -6.8973  -6.8742  -6.5132  -6.4663  -6.3497  -6.3241  -6.2016  -6.1677
    -6.0989  -6.0697  -5.8904  -5.8635  -5.7885  -5.7648  -5.6665  -5.6413
    -5.5307  -5.5209  -5.4485  -5.4383  -5.0378  -4.9896  -4.8364  -4.8333
    -4.3394  -4.3254  -4.2694  -4.2500  -3.9105  -3.8862  -3.7168  -3.6955
    -3.6070  -3.5545  -3.4737  -3.4667  -3.0694  -3.0666  -2.9392  -2.9244
    -0.6609  -0.6574  -0.2102  -0.2030  -0.1640  -0.1436  -0.0198   0.0035
     0.0255   0.0408   0.2012   0.2223   0.2897   0.3052   0.4373   0.4479
     0.6850   0.6875   0.7148   0.7483   0.8565   0.8645   0.9644   0.9864
     1.0358   1.0687   1.1048   1.1256   1.3677   1.3817   1.4288   1.4448

     occupation numbers 
     1.0000   1.0000   1.0000   1.0000   1.0000   1.0000   1.0000   1.0000
     1.0000   1.0000   1.0000   1.0000   1.0000   1.0000   1.0000   1.0000
     1.0000   1.0000   1.0000   1.0000   1.0000   1.0000   1.0000   1.0000
     1.0000   1.0000   1.0000   1.0000   1.0000   1.0000   1.0000   1.0000
     1.0000   1.0000   1.0000   1.0000   1.0000   1.0000   1.0000   1.0000
     1.0000   1.0000   1.0000   1.0000   1.0000   1.0000   1.0000   1.0000
     1.0000   1.0000   1.0000   1.0000   1.0000   1.0000   1.0000   1.0000
     1.0000   1.0000   1.0000   1.0000   1.0000   1.0000   1.0000   1.0000
     1.0000   1.0000   1.0000   1.0000   1.0000   1.0000   1.0000   1.0000
     1.0000   1.0000   1.0000   1.0000   1.0000   1.0000   1.0000   1.0000
     1.0000   1.0000   1.0000   1.0000   1.0000   1.0000   1.0000   1.0000
     1.0000   1.0000   1.0000   1.0000   1.0000   1.0000   1.0000   1.0000
     1.0000   1.0000   1.0000   1.0000   1.0000   1.0000   1.0000   1.0000
     1.0000   1.0000   1.0000   1.0000   1.0000   1.0000   1.0000   1.0000

          k = 0.0574 0.0344 0.0650 (189251 PWs)   bands (ev):

   -23.8213 -23.8202 -23.8019 -23.7984 -23.5056 -23.5054 -23.5008 -23.4968
   -19.0557 -19.0548 -19.0401 -19.0357 -18.7356 -18.7346 -18.7064 -18.7046
   -18.1517 -18.1409 -17.1006 -17.0808 -16.9616 -16.9602 -15.9661 -15.9575
   -11.9985 -11.9936 -11.9203 -11.8909 -11.7307 -11.7156 -11.6736 -11.6646
    -8.8133  -8.7608  -8.1591  -8.1420  -7.4310  -7.4213  -7.3523  -7.2904
    -6.9567  -6.8764  -6.4987  -6.4389  -6.3784  -6.3647  -6.2868  -6.2282
    -6.1527  -6.0979  -5.8817  -5.8595  -5.8085  -5.7792  -5.7068  -5.6669
    -5.5198  -5.5012  -5.3816  -5.3480  -5.0429  -4.9718  -4.8828  -4.8515
    -4.2751  -4.2540  -4.2111  -4.1749  -3.8811  -3.8740  -3.8192  -3.8073
    -3.6324  -3.5919  -3.4415  -3.4031  -3.1126  -3.0978  -2.9234  -2.8962
    -0.7299  -0.7161  -0.2146  -0.1966  -0.1551  -0.1444  -0.0075   0.0053
     0.0868   0.1017   0.2681   0.2777   0.3239   0.3367   0.4253   0.4734
     0.5539   0.5626   0.6918   0.7485   0.8336   0.8685   0.9554   0.9683
     1.0467   1.0702   1.1338   1.1478   1.3805   1.3974   1.4369   1.4562

     occupation numbers 
     1.0000   1.0000   1.0000   1.0000   1.0000   1.0000   1.0000   1.0000
     1.0000   1.0000   1.0000   1.0000   1.0000   1.0000   1.0000   1.0000
     1.0000   1.0000   1.0000   1.0000   1.0000   1.0000   1.0000   1.0000
     1.0000   1.0000   1.0000   1.0000   1.0000   1.0000   1.0000   1.0000
     1.0000   1.0000   1.0000   1.0000   1.0000   1.0000   1.0000   1.0000
     1.0000   1.0000   1.0000   1.0000   1.0000   1.0000   1.0000   1.0000
     1.0000   1.0000   1.0000   1.0000   1.0000   1.0000   1.0000   1.0000
     1.0000   1.0000   1.0000   1.0000   1.0000   1.0000   1.0000   1.0000
     1.0000   1.0000   1.0000   1.0000   1.0000   1.0000   1.0000   1.0000
     1.0000   1.0000   1.0000   1.0000   1.0000   1.0000   1.0000   1.0000
     1.0000   1.0000   1.0000   1.0000   1.0000   1.0000   1.0000   1.0000
     1.0000   1.0000   1.0000   1.0000   1.0000   1.0000   1.0000   1.0000
     1.0000   1.0000   1.0000   1.0000   1.0000   1.0000   1.0000   1.0000
     1.0000   1.0000   1.0000   1.0000   1.0000   1.0000   1.0000   1.0000

          k = 0.0574 0.0344-0.0398 (189241 PWs)   bands (ev):

   -23.8229 -23.8204 -23.8018 -23.7967 -23.5088 -23.5083 -23.4971 -23.4944
   -19.0540 -19.0536 -19.0411 -19.0377 -18.7364 -18.7355 -18.7055 -18.7037
   -18.1536 -18.1380 -17.1046 -17.0756 -16.9651 -16.9641 -15.9636 -15.9526
   -12.0072 -12.0008 -11.9301 -11.8873 -11.7301 -11.7033 -11.6703 -11.6661
    -8.8026  -8.7417  -8.1564  -8.1424  -7.4369  -7.4179  -7.3683  -7.2848
    -6.9640  -6.8745  -6.4972  -6.4533  -6.3956  -6.3738  -6.3356  -6.2785
    -6.1163  -6.0713  -5.8782  -5.8456  -5.7871  -5.7805  -5.6996  -5.6677
    -5.5015  -5.4899  -5.3804  -5.3434  -5.0586  -5.0033  -4.8481  -4.8236
    -4.2950  -4.2776  -4.1793  -4.1617  -3.9232  -3.9196  -3.7695  -3.7643
    -3.6133  -3.6009  -3.4783  -3.4195  -3.1113  -3.0919  -2.9265  -2.9025
    -0.6797  -0.6557  -0.2107  -0.1890  -0.1636  -0.1465  -0.0207  -0.0113
     0.0210   0.0472   0.2193   0.2553   0.3074   0.3282   0.3713   0.3963
     0.6400   0.6695   0.7525   0.7582   0.8519   0.8640   0.9507   0.9554
     1.0582   1.0794   1.1532   1.1781   1.3866   1.3957   1.4128   1.4262

     occupation numbers 
     1.0000   1.0000   1.0000   1.0000   1.0000   1.0000   1.0000   1.0000
     1.0000   1.0000   1.0000   1.0000   1.0000   1.0000   1.0000   1.0000
     1.0000   1.0000   1.0000   1.0000   1.0000   1.0000   1.0000   1.0000
     1.0000   1.0000   1.0000   1.0000   1.0000   1.0000   1.0000   1.0000
     1.0000   1.0000   1.0000   1.0000   1.0000   1.0000   1.0000   1.0000
     1.0000   1.0000   1.0000   1.0000   1.0000   1.0000   1.0000   1.0000
     1.0000   1.0000   1.0000   1.0000   1.0000   1.0000   1.0000   1.0000
     1.0000   1.0000   1.0000   1.0000   1.0000   1.0000   1.0000   1.0000
     1.0000   1.0000   1.0000   1.0000   1.0000   1.0000   1.0000   1.0000
     1.0000   1.0000   1.0000   1.0000   1.0000   1.0000   1.0000   1.0000
     1.0000   1.0000   1.0000   1.0000   1.0000   1.0000   1.0000   1.0000
     1.0000   1.0000   1.0000   1.0000   1.0000   1.0000   1.0000   1.0000
     1.0000   1.0000   1.0000   1.0000   1.0000   1.0000   1.0000   1.0000
     1.0000   1.0000   1.0000   1.0000   1.0000   1.0000   1.0000   1.0000

          k = 0.0574 0.0344-0.0049 (189279 PWs)   bands (ev):

   -23.8246 -23.8200 -23.8009 -23.7973 -23.5089 -23.5073 -23.4960 -23.4953
   -19.0523 -19.0519 -19.0404 -19.0402 -18.7276 -18.7274 -18.7129 -18.7122
   -18.1480 -18.1367 -17.1023 -17.0812 -16.9753 -16.9752 -15.9541 -15.9471
   -11.9909 -11.9855 -11.9295 -11.8928 -11.7440 -11.7183 -11.6674 -11.6643
    -8.7868  -8.7515  -8.1612  -8.1579  -7.4507  -7.4483  -7.4070  -7.3603
    -6.9002  -6.8622  -6.5046  -6.4932  -6.3533  -6.3431  -6.2667  -6.2555
    -6.0429  -6.0361  -5.8670  -5.8445  -5.7615  -5.7501  -5.6553  -5.6500
    -5.5326  -5.5159  -5.4467  -5.4422  -5.0329  -5.0203  -4.8069  -4.8059
    -4.3498  -4.3325  -4.2688  -4.2436  -3.9232  -3.9042  -3.6918  -3.6881
    -3.5732  -3.5487  -3.5231  -3.4842  -3.0762  -3.0592  -2.9398  -2.9317
    -0.5950  -0.5753  -0.2123  -0.2023  -0.1536  -0.1318  -0.1193  -0.1005
     0.0066   0.0282   0.1718   0.2014   0.2848   0.3072   0.4197   0.4417
     0.6661   0.7041   0.7852   0.8102   0.8492   0.8799   0.9825   0.9879
     1.0466   1.0562   1.1240   1.1634   1.3767   1.3786   1.4017   1.4104

     occupation numbers 
     1.0000   1.0000   1.0000   1.0000   1.0000   1.0000   1.0000   1.0000
     1.0000   1.0000   1.0000   1.0000   1.0000   1.0000   1.0000   1.0000
     1.0000   1.0000   1.0000   1.0000   1.0000   1.0000   1.0000   1.0000
     1.0000   1.0000   1.0000   1.0000   1.0000   1.0000   1.0000   1.0000
     1.0000   1.0000   1.0000   1.0000   1.0000   1.0000   1.0000   1.0000
     1.0000   1.0000   1.0000   1.0000   1.0000   1.0000   1.0000   1.0000
     1.0000   1.0000   1.0000   1.0000   1.0000   1.0000   1.0000   1.0000
     1.0000   1.0000   1.0000   1.0000   1.0000   1.0000   1.0000   1.0000
     1.0000   1.0000   1.0000   1.0000   1.0000   1.0000   1.0000   1.0000
     1.0000   1.0000   1.0000   1.0000   1.0000   1.0000   1.0000   1.0000
     1.0000   1.0000   1.0000   1.0000   1.0000   1.0000   1.0000   1.0000
     1.0000   1.0000   1.0000   1.0000   1.0000   1.0000   1.0000   1.0000
     1.0000   1.0000   1.0000   1.0000   1.0000   1.0000   1.0000   1.0000
     1.0000   1.0000   1.0000   1.0000   1.0000   1.0000   1.0000   1.0000

     highest occupied level (ev):     1.4708

!    total energy              =   -1282.04868236 Ry
     Harris-Foulkes estimate   =   -1282.04868252 Ry
     estimated scf accuracy    <       0.00000018 Ry

     total all-electron energy =     -4786.492430 Ry

     The total energy is the sum of the following terms:

     one-electron contribution =    -629.45507826 Ry
     hartree contribution      =     413.70358033 Ry
     xc contribution           =    -260.13843223 Ry
     ewald contribution        =    -475.76697818 Ry
     one-center paw contrib.   =    -330.39177401 Ry

     convergence has been achieved in  18 iterations

     Forces acting on atoms (Ry/au):

     atom    1 type  1   force =    -0.01446509   -0.00698332   -0.01248794
     atom    2 type  4   force =     0.02961466    0.00604158   -0.02160892
     atom    3 type  1   force =    -0.00395964   -0.00731111   -0.00830947
     atom    4 type  1   force =     0.00675278    0.00332328   -0.00204720
     atom    5 type  4   force =     0.00267788   -0.02679894    0.02950512
     atom    6 type  1   force =     0.01262760    0.00205580   -0.00470890
     atom    7 type  4   force =    -0.01024368    0.01891158    0.03937273
     atom    8 type  2   force =     0.16220283   -0.10203537    0.04995514
     atom    9 type  3   force =    -0.11967069   -0.05545771   -0.12397259
     atom   10 type  3   force =    -0.04064978    0.16085587    0.07174959
     atom   11 type  4   force =    -0.03237850    0.02017642   -0.01517247
     atom   12 type  2   force =     0.12483774   -0.05231870    0.21045318
     atom   13 type  3   force =    -0.19693124   -0.10082594   -0.06146510
     atom   14 type  3   force =     0.06588546    0.15313071   -0.15288475
     atom   15 type  3   force =     0.06588546   -0.15313071   -0.15288475
     atom   16 type  3   force =    -0.19693124    0.10082594   -0.06146510
     atom   17 type  2   force =     0.12483774    0.05231870    0.21045318
     atom   18 type  4   force =    -0.03237850   -0.02017642   -0.01517247
     atom   19 type  3   force =    -0.04064978   -0.16085587    0.07174959
     atom   20 type  3   force =    -0.11967069    0.05545771   -0.12397259
     atom   21 type  2   force =     0.16220283    0.10203537    0.04995514
     atom   22 type  4   force =    -0.01024368   -0.01891158    0.03937273
     atom   23 type  1   force =     0.01262760   -0.00205580   -0.00470890
     atom   24 type  4   force =     0.00267788    0.02679894    0.02950512
     atom   25 type  1   force =     0.00675278   -0.00332328   -0.00204720
     atom   26 type  1   force =    -0.00395964    0.00731111   -0.00830947
     atom   27 type  4   force =     0.02961466   -0.00604158   -0.02160892
     atom   28 type  1   force =    -0.01446509    0.00698332   -0.01248794
     atom   29 type  3   force =    -0.06588546   -0.15313071    0.15288475
     atom   30 type  3   force =     0.19693124    0.10082594    0.06146510
     atom   31 type  2   force =    -0.12483774    0.05231870   -0.21045318
     atom   32 type  4   force =     0.03237850   -0.02017642    0.01517247
     atom   33 type  3   force =     0.04064978   -0.16085587   -0.07174959
     atom   34 type  3   force =     0.11967069    0.05545771    0.12397259
     atom   35 type  2   force =    -0.16220283    0.10203537   -0.04995514
     atom   36 type  4   force =     0.01024368   -0.01891158   -0.03937273
     atom   37 type  1   force =    -0.01262760   -0.00205580    0.00470890
     atom   38 type  4   force =    -0.00267788    0.02679894   -0.02950512
     atom   39 type  1   force =    -0.00675278   -0.00332328    0.00204720
     atom   40 type  1   force =     0.00395964    0.00731111    0.00830947
     atom   41 type  4   force =    -0.02961466   -0.00604158    0.02160892
     atom   42 type  1   force =     0.01446509    0.00698332    0.01248794
     atom   43 type  3   force =    -0.06588546    0.15313071    0.15288475
     atom   44 type  3   force =     0.19693124   -0.10082594    0.06146510
     atom   45 type  2   force =    -0.12483774   -0.05231870   -0.21045318
     atom   46 type  4   force =     0.03237850    0.02017642    0.01517247
     atom   47 type  3   force =     0.04064978    0.16085587   -0.07174959
     atom   48 type  3   force =     0.11967069   -0.05545771    0.12397259
     atom   49 type  2   force =    -0.16220283   -0.10203537   -0.04995514
     atom   50 type  4   force =     0.01024368    0.01891158   -0.03937273
     atom   51 type  1   force =    -0.01262760    0.00205580    0.00470890
     atom   52 type  4   force =    -0.00267788   -0.02679894   -0.02950512
     atom   53 type  1   force =    -0.00675278    0.00332328    0.00204720
     atom   54 type  1   force =     0.00395964   -0.00731111    0.00830947
     atom   55 type  4   force =    -0.02961466    0.00604158    0.02160892
     atom   56 type  1   force =     0.01446509   -0.00698332    0.01248794
     The non-local contrib.  to forces
     atom    1 type  1   force =     0.17578878    0.38352266    0.11469187
     atom    2 type  4   force =    -2.40934749   -0.47321674    1.52930063
     atom    3 type  1   force =     0.04376684   -0.03284568    0.05164059
     atom    4 type  1   force =    -0.57740960   -0.42458757   -0.12866524
     atom    5 type  4   force =     0.15262497    1.85533387   -2.23052783
     atom    6 type  1   force =    -0.00439242    0.06431815    0.05527548
     atom    7 type  4   force =     0.52778155   -1.16611206   -2.61917270
     atom    8 type  2   force =     0.63142355   -0.42753948    0.17904217
     atom    9 type  3   force =     0.07730835    0.02722443    0.06768048
     atom   10 type  3   force =     0.02829669   -0.09664570   -0.03772819
     atom   11 type  4   force =     2.27277005   -1.47238894    0.84021898
     atom   12 type  2   force =     0.39208693   -0.18581210    0.69742345
     atom   13 type  3   force =     0.09517025    0.04759584    0.03762174
     atom   14 type  3   force =    -0.02904537   -0.07454738    0.08035814
     atom   15 type  3   force =    -0.02904537    0.07454738    0.08035814
     atom   16 type  3   force =     0.09517025   -0.04759584    0.03762174
     atom   17 type  2   force =     0.39208693    0.18581210    0.69742345
     atom   18 type  4   force =     2.27277005    1.47238894    0.84021898
     atom   19 type  3   force =     0.02829669    0.09664570   -0.03772819
     atom   20 type  3   force =     0.07730835   -0.02722443    0.06768048
     atom   21 type  2   force =     0.63142355    0.42753948    0.17904217
     atom   22 type  4   force =     0.52778155    1.16611206   -2.61917270
     atom   23 type  1   force =    -0.00439242   -0.06431815    0.05527548
     atom   24 type  4   force =     0.15262497   -1.85533387   -2.23052783
     atom   25 type  1   force =    -0.57740960    0.42458757   -0.12866524
     atom   26 type  1   force =     0.04376684    0.03284568    0.05164059
     atom   27 type  4   force =    -2.40934749    0.47321674    1.52930063
     atom   28 type  1   force =     0.17578878   -0.38352266    0.11469187
     atom   29 type  3   force =     0.02904537    0.07454738   -0.08035814
     atom   30 type  3   force =    -0.09517025   -0.04759584   -0.03762174
     atom   31 type  2   force =    -0.39208693    0.18581210   -0.69742345
     atom   32 type  4   force =    -2.27277005    1.47238894   -0.84021898
     atom   33 type  3   force =    -0.02829669    0.09664570    0.03772819
     atom   34 type  3   force =    -0.07730835   -0.02722443   -0.06768048
     atom   35 type  2   force =    -0.63142355    0.42753948   -0.17904217
     atom   36 type  4   force =    -0.52778155    1.16611206    2.61917270
     atom   37 type  1   force =     0.00439242   -0.06431815   -0.05527548
     atom   38 type  4   force =    -0.15262497   -1.85533387    2.23052783
     atom   39 type  1   force =     0.57740960    0.42458757    0.12866524
     atom   40 type  1   force =    -0.04376684    0.03284568   -0.05164059
     atom   41 type  4   force =     2.40934749    0.47321674   -1.52930063
     atom   42 type  1   force =    -0.17578878   -0.38352266   -0.11469187
     atom   43 type  3   force =     0.02904537   -0.07454738   -0.08035814
     atom   44 type  3   force =    -0.09517025    0.04759584   -0.03762174
     atom   45 type  2   force =    -0.39208693   -0.18581210   -0.69742345
     atom   46 type  4   force =    -2.27277005   -1.47238894   -0.84021898
     atom   47 type  3   force =    -0.02829669   -0.09664570    0.03772819
     atom   48 type  3   force =    -0.07730835    0.02722443   -0.06768048
     atom   49 type  2   force =    -0.63142355   -0.42753948   -0.17904217
     atom   50 type  4   force =    -0.52778155   -1.16611206    2.61917270
     atom   51 type  1   force =     0.00439242    0.06431815   -0.05527548
     atom   52 type  4   force =    -0.15262497    1.85533387    2.23052783
     atom   53 type  1   force =     0.57740960   -0.42458757    0.12866524
     atom   54 type  1   force =    -0.04376684   -0.03284568   -0.05164059
     atom   55 type  4   force =     2.40934749   -0.47321674   -1.52930063
     atom   56 type  1   force =    -0.17578878    0.38352266   -0.11469187
     The ionic contribution  to forces
     atom    1 type  1   force =    -3.04749591    0.21766414   -1.99240599
     atom    2 type  4   force =    12.22001344    4.20543766   -5.95129811
     atom    3 type  1   force =    -0.25343708    1.58648813    0.02568761
     atom    4 type  1   force =     2.78945071    2.83954108    2.01969096
     atom    5 type  4   force =    -1.25508253   -8.51663178   11.31585330
     atom    6 type  1   force =    -0.34741973    0.05591994    1.04189888
     atom    7 type  4   force =    -2.03687615    6.22892756   12.41631523
     atom    8 type  2   force =    -4.05962555    3.21951030   -1.21500043
     atom    9 type  3   force =    -2.20696654   -0.15642891   -1.95434125
     atom   10 type  3   force =    -1.22024029    2.73807927    0.68218894
     atom   11 type  4   force =   -11.08544922    6.11400670   -2.37954406
     atom   12 type  2   force =    -2.84331302    0.93991762   -4.69320934
     atom   13 type  3   force =    -2.61600476   -1.06554071   -1.55056573
     atom   14 type  3   force =     0.25824027    2.03089505   -2.52496382
     atom   15 type  3   force =     0.25824027   -2.03089505   -2.52496382
     atom   16 type  3   force =    -2.61600476    1.06554071   -1.55056573
     atom   17 type  2   force =    -2.84331302   -0.93991762   -4.69320934
     atom   18 type  4   force =   -11.08544922   -6.11400670   -2.37954406
     atom   19 type  3   force =    -1.22024029   -2.73807927    0.68218894
     atom   20 type  3   force =    -2.20696654    0.15642891   -1.95434125
     atom   21 type  2   force =    -4.05962555   -3.21951030   -1.21500043
     atom   22 type  4   force =    -2.03687615   -6.22892756   12.41631523
     atom   23 type  1   force =    -0.34741973   -0.05591994    1.04189888
     atom   24 type  4   force =    -1.25508253    8.51663178   11.31585330
     atom   25 type  1   force =     2.78945071   -2.83954108    2.01969096
     atom   26 type  1   force =    -0.25343708   -1.58648813    0.02568761
     atom   27 type  4   force =    12.22001344   -4.20543766   -5.95129811
     atom   28 type  1   force =    -3.04749591   -0.21766414   -1.99240599
     atom   29 type  3   force =    -0.25824027   -2.03089505    2.52496382
     atom   30 type  3   force =     2.61600476    1.06554071    1.55056573
     atom   31 type  2   force =     2.84331302   -0.93991762    4.69320934
     atom   32 type  4   force =    11.08544922   -6.11400670    2.37954406
     atom   33 type  3   force =     1.22024029   -2.73807927   -0.68218894
     atom   34 type  3   force =     2.20696654    0.15642891    1.95434125
     atom   35 type  2   force =     4.05962555   -3.21951030    1.21500043
     atom   36 type  4   force =     2.03687615   -6.22892756  -12.41631523
     atom   37 type  1   force =     0.34741973   -0.05591994   -1.04189888
     atom   38 type  4   force =     1.25508253    8.51663178  -11.31585330
     atom   39 type  1   force =    -2.78945071   -2.83954108   -2.01969096
     atom   40 type  1   force =     0.25343708   -1.58648813   -0.02568761
     atom   41 type  4   force =   -12.22001344   -4.20543766    5.95129811
     atom   42 type  1   force =     3.04749591   -0.21766414    1.99240599
     atom   43 type  3   force =    -0.25824027    2.03089505    2.52496382
     atom   44 type  3   force =     2.61600476   -1.06554071    1.55056573
     atom   45 type  2   force =     2.84331302    0.93991762    4.69320934
     atom   46 type  4   force =    11.08544922    6.11400670    2.37954406
     atom   47 type  3   force =     1.22024029    2.73807927   -0.68218894
     atom   48 type  3   force =     2.20696654   -0.15642891    1.95434125
     atom   49 type  2   force =     4.05962555    3.21951030    1.21500043
     atom   50 type  4   force =     2.03687615    6.22892756  -12.41631523
     atom   51 type  1   force =     0.34741973    0.05591994   -1.04189888
     atom   52 type  4   force =     1.25508253   -8.51663178  -11.31585330
     atom   53 type  1   force =    -2.78945071    2.83954108   -2.01969096
     atom   54 type  1   force =     0.25343708    1.58648813   -0.02568761
     atom   55 type  4   force =   -12.22001344    4.20543766    5.95129811
     atom   56 type  1   force =     3.04749591    0.21766414    1.99240599
     The local contribution  to forces
     atom    1 type  1   force =     2.86029126   -0.60169116    1.86709169
     atom    2 type  4   force =    -9.79980401   -3.72978555    4.41236290
     atom    3 type  1   force =     0.20530877   -1.56252707   -0.08545656
     atom    4 type  1   force =    -2.21462187   -2.41804981   -1.89481161
     atom    5 type  4   force =     1.10626120    6.64878920   -9.07319770
     atom    6 type  1   force =     0.36531801   -0.11646287   -1.10174278
     atom    7 type  4   force =     1.50293949   -5.05279477   -9.77799365
     atom    8 type  2   force =     3.60378811   -2.90354363    1.09064648
     atom    9 type  3   force =     2.00997015    0.07374214    1.76267941
     atom   10 type  3   force =     1.15128858   -2.48057347   -0.57271280
     atom   11 type  4   force =     8.79782240   -4.63289699    1.53073537
     atom   12 type  2   force =     2.58499323   -0.81026664    4.22191675
     atom   13 type  3   force =     2.32388376    0.91711899    1.45147597
     atom   14 type  3   force =    -0.16331869   -1.80320480    2.29171915
     atom   15 type  3   force =    -0.16331869    1.80320480    2.29171915
     atom   16 type  3   force =     2.32388376   -0.91711899    1.45147597
     atom   17 type  2   force =     2.58499323    0.81026664    4.22191675
     atom   18 type  4   force =     8.79782240    4.63289699    1.53073537
     atom   19 type  3   force =     1.15128858    2.48057347   -0.57271280
     atom   20 type  3   force =     2.00997015   -0.07374214    1.76267941
     atom   21 type  2   force =     3.60378811    2.90354363    1.09064648
     atom   22 type  4   force =     1.50293949    5.05279477   -9.77799365
     atom   23 type  1   force =     0.36531801    0.11646287   -1.10174278
     atom   24 type  4   force =     1.10626120   -6.64878920   -9.07319770
     atom   25 type  1   force =    -2.21462187    2.41804981   -1.89481161
     atom   26 type  1   force =     0.20530877    1.56252707   -0.08545656
     atom   27 type  4   force =    -9.79980401    3.72978555    4.41236290
     atom   28 type  1   force =     2.86029126    0.60169116    1.86709169
     atom   29 type  3   force =     0.16331869    1.80320480   -2.29171915
     atom   30 type  3   force =    -2.32388376   -0.91711899   -1.45147597
     atom   31 type  2   force =    -2.58499323    0.81026664   -4.22191675
     atom   32 type  4   force =    -8.79782240    4.63289699   -1.53073537
     atom   33 type  3   force =    -1.15128858    2.48057347    0.57271280
     atom   34 type  3   force =    -2.00997015   -0.07374214   -1.76267941
     atom   35 type  2   force =    -3.60378811    2.90354363   -1.09064648
     atom   36 type  4   force =    -1.50293949    5.05279477    9.77799365
     atom   37 type  1   force =    -0.36531801    0.11646287    1.10174278
     atom   38 type  4   force =    -1.10626120   -6.64878920    9.07319770
     atom   39 type  1   force =     2.21462187    2.41804981    1.89481161
     atom   40 type  1   force =    -0.20530877    1.56252707    0.08545656
     atom   41 type  4   force =     9.79980401    3.72978555   -4.41236290
     atom   42 type  1   force =    -2.86029126    0.60169116   -1.86709169
     atom   43 type  3   force =     0.16331869   -1.80320480   -2.29171915
     atom   44 type  3   force =    -2.32388376    0.91711899   -1.45147597
     atom   45 type  2   force =    -2.58499323   -0.81026664   -4.22191675
     atom   46 type  4   force =    -8.79782240   -4.63289699   -1.53073537
     atom   47 type  3   force =    -1.15128858   -2.48057347    0.57271280
     atom   48 type  3   force =    -2.00997015    0.07374214   -1.76267941
     atom   49 type  2   force =    -3.60378811   -2.90354363   -1.09064648
     atom   50 type  4   force =    -1.50293949   -5.05279477    9.77799365
     atom   51 type  1   force =    -0.36531801   -0.11646287    1.10174278
     atom   52 type  4   force =    -1.10626120    6.64878920    9.07319770
     atom   53 type  1   force =     2.21462187   -2.41804981    1.89481161
     atom   54 type  1   force =    -0.20530877   -1.56252707    0.08545656
     atom   55 type  4   force =     9.79980401   -3.72978555   -4.41236290
     atom   56 type  1   force =    -2.86029126   -0.60169116   -1.86709169
     The core correction contribution to forces
     atom    1 type  1   force =    -0.00304752   -0.00641891   -0.00186015
     atom    2 type  4   force =     0.01875334    0.00361948   -0.01190447
     atom    3 type  1   force =     0.00037194    0.00165170   -0.00000912
     atom    4 type  1   force =     0.00930073    0.00643752    0.00170492
     atom    5 type  4   force =    -0.00123528   -0.01431245    0.01741193
     atom    6 type  1   force =    -0.00112857   -0.00159010   -0.00023898
     atom    7 type  4   force =    -0.00406450    0.00890293    0.02025182
     atom    8 type  2   force =    -0.01343965    0.00956921   -0.00475596
     atom    9 type  3   force =     0.00000000    0.00000000    0.00000000
     atom   10 type  3   force =     0.00000000    0.00000000    0.00000000
     atom   11 type  4   force =    -0.01770015    0.01153197   -0.00664275
     atom   12 type  2   force =    -0.00897329    0.00387622   -0.01569953
     atom   13 type  3   force =     0.00000000    0.00000000    0.00000000
     atom   14 type  3   force =     0.00000000    0.00000000    0.00000000
     atom   15 type  3   force =     0.00000000    0.00000000    0.00000000
     atom   16 type  3   force =     0.00000000    0.00000000    0.00000000
     atom   17 type  2   force =    -0.00897329   -0.00387622   -0.01569953
     atom   18 type  4   force =    -0.01770015   -0.01153197   -0.00664275
     atom   19 type  3   force =     0.00000000    0.00000000    0.00000000
     atom   20 type  3   force =     0.00000000    0.00000000    0.00000000
     atom   21 type  2   force =    -0.01343965   -0.00956921   -0.00475596
     atom   22 type  4   force =    -0.00406450   -0.00890293    0.02025182
     atom   23 type  1   force =    -0.00112857    0.00159010   -0.00023898
     atom   24 type  4   force =    -0.00123528    0.01431245    0.01741193
     atom   25 type  1   force =     0.00930073   -0.00643752    0.00170492
     atom   26 type  1   force =     0.00037194   -0.00165170   -0.00000912
     atom   27 type  4   force =     0.01875334   -0.00361948   -0.01190447
     atom   28 type  1   force =    -0.00304752    0.00641891   -0.00186015
     atom   29 type  3   force =     0.00000000    0.00000000    0.00000000
     atom   30 type  3   force =     0.00000000    0.00000000    0.00000000
     atom   31 type  2   force =     0.00897329   -0.00387622    0.01569953
     atom   32 type  4   force =     0.01770015   -0.01153197    0.00664275
     atom   33 type  3   force =     0.00000000    0.00000000    0.00000000
     atom   34 type  3   force =     0.00000000    0.00000000    0.00000000
     atom   35 type  2   force =     0.01343965   -0.00956921    0.00475596
     atom   36 type  4   force =     0.00406450   -0.00890293   -0.02025182
     atom   37 type  1   force =     0.00112857    0.00159010    0.00023898
     atom   38 type  4   force =     0.00123528    0.01431245   -0.01741193
     atom   39 type  1   force =    -0.00930073   -0.00643752   -0.00170492
     atom   40 type  1   force =    -0.00037194   -0.00165170    0.00000912
     atom   41 type  4   force =    -0.01875334   -0.00361948    0.01190447
     atom   42 type  1   force =     0.00304752    0.00641891    0.00186015
     atom   43 type  3   force =     0.00000000    0.00000000    0.00000000
     atom   44 type  3   force =     0.00000000    0.00000000    0.00000000
     atom   45 type  2   force =     0.00897329    0.00387622    0.01569953
     atom   46 type  4   force =     0.01770015    0.01153197    0.00664275
     atom   47 type  3   force =     0.00000000    0.00000000    0.00000000
     atom   48 type  3   force =     0.00000000    0.00000000    0.00000000
     atom   49 type  2   force =     0.01343965    0.00956921    0.00475596
     atom   50 type  4   force =     0.00406450    0.00890293   -0.02025182
     atom   51 type  1   force =     0.00112857   -0.00159010    0.00023898
     atom   52 type  4   force =     0.00123528   -0.01431245   -0.01741193
     atom   53 type  1   force =    -0.00930073    0.00643752   -0.00170492
     atom   54 type  1   force =    -0.00037194    0.00165170    0.00000912
     atom   55 type  4   force =    -0.01875334    0.00361948    0.01190447
     atom   56 type  1   force =     0.00304752   -0.00641891    0.00186015
     The Hubbard contrib.    to forces
     atom    1 type  1   force =     0.00000000    0.00000000    0.00000000
     atom    2 type  4   force =     0.00000000    0.00000000    0.00000000
     atom    3 type  1   force =     0.00000000    0.00000000    0.00000000
     atom    4 type  1   force =     0.00000000    0.00000000    0.00000000
     atom    5 type  4   force =     0.00000000    0.00000000    0.00000000
     atom    6 type  1   force =     0.00000000    0.00000000    0.00000000
     atom    7 type  4   force =     0.00000000    0.00000000    0.00000000
     atom    8 type  2   force =     0.00000000    0.00000000    0.00000000
     atom    9 type  3   force =     0.00000000    0.00000000    0.00000000
     atom   10 type  3   force =     0.00000000    0.00000000    0.00000000
     atom   11 type  4   force =     0.00000000    0.00000000    0.00000000
     atom   12 type  2   force =     0.00000000    0.00000000    0.00000000
     atom   13 type  3   force =     0.00000000    0.00000000    0.00000000
     atom   14 type  3   force =     0.00000000    0.00000000    0.00000000
     atom   15 type  3   force =     0.00000000    0.00000000    0.00000000
     atom   16 type  3   force =     0.00000000    0.00000000    0.00000000
     atom   17 type  2   force =     0.00000000    0.00000000    0.00000000
     atom   18 type  4   force =     0.00000000    0.00000000    0.00000000
     atom   19 type  3   force =     0.00000000    0.00000000    0.00000000
     atom   20 type  3   force =     0.00000000    0.00000000    0.00000000
     atom   21 type  2   force =     0.00000000    0.00000000    0.00000000
     atom   22 type  4   force =     0.00000000    0.00000000    0.00000000
     atom   23 type  1   force =     0.00000000    0.00000000    0.00000000
     atom   24 type  4   force =     0.00000000    0.00000000    0.00000000
     atom   25 type  1   force =     0.00000000    0.00000000    0.00000000
     atom   26 type  1   force =     0.00000000    0.00000000    0.00000000
     atom   27 type  4   force =     0.00000000    0.00000000    0.00000000
     atom   28 type  1   force =     0.00000000    0.00000000    0.00000000
     atom   29 type  3   force =     0.00000000    0.00000000    0.00000000
     atom   30 type  3   force =     0.00000000    0.00000000    0.00000000
     atom   31 type  2   force =     0.00000000    0.00000000    0.00000000
     atom   32 type  4   force =     0.00000000    0.00000000    0.00000000
     atom   33 type  3   force =     0.00000000    0.00000000    0.00000000
     atom   34 type  3   force =     0.00000000    0.00000000    0.00000000
     atom   35 type  2   force =     0.00000000    0.00000000    0.00000000
     atom   36 type  4   force =     0.00000000    0.00000000    0.00000000
     atom   37 type  1   force =     0.00000000    0.00000000    0.00000000
     atom   38 type  4   force =     0.00000000    0.00000000    0.00000000
     atom   39 type  1   force =     0.00000000    0.00000000    0.00000000
     atom   40 type  1   force =     0.00000000    0.00000000    0.00000000
     atom   41 type  4   force =     0.00000000    0.00000000    0.00000000
     atom   42 type  1   force =     0.00000000    0.00000000    0.00000000
     atom   43 type  3   force =     0.00000000    0.00000000    0.00000000
     atom   44 type  3   force =     0.00000000    0.00000000    0.00000000
     atom   45 type  2   force =     0.00000000    0.00000000    0.00000000
     atom   46 type  4   force =     0.00000000    0.00000000    0.00000000
     atom   47 type  3   force =     0.00000000    0.00000000    0.00000000
     atom   48 type  3   force =     0.00000000    0.00000000    0.00000000
     atom   49 type  2   force =     0.00000000    0.00000000    0.00000000
     atom   50 type  4   force =     0.00000000    0.00000000    0.00000000
     atom   51 type  1   force =     0.00000000    0.00000000    0.00000000
     atom   52 type  4   force =     0.00000000    0.00000000    0.00000000
     atom   53 type  1   force =     0.00000000    0.00000000    0.00000000
     atom   54 type  1   force =     0.00000000    0.00000000    0.00000000
     atom   55 type  4   force =     0.00000000    0.00000000    0.00000000
     atom   56 type  1   force =     0.00000000    0.00000000    0.00000000
     The SCF correction term to forces
     atom    1 type  1   force =    -0.00000171   -0.00006006   -0.00000536
     atom    2 type  4   force =    -0.00000063   -0.00001327   -0.00006985
     atom    3 type  1   force =     0.00002989   -0.00007818   -0.00017199
     atom    4 type  1   force =     0.00003281   -0.00001794    0.00003378
     atom    5 type  4   force =     0.00010952    0.00002222   -0.00003458
     atom    6 type  1   force =     0.00025031   -0.00012933    0.00009849
     atom    7 type  4   force =    -0.00002407   -0.00001208   -0.00002797
     atom    8 type  2   force =     0.00005637   -0.00003177    0.00002289
     atom    9 type  3   force =     0.00001735    0.00000464    0.00000877
     atom   10 type  3   force =     0.00000524   -0.00000423    0.00000164
     atom   11 type  4   force =     0.00017841   -0.00007632    0.00005999
     atom   12 type  2   force =     0.00004389   -0.00003381    0.00002185
     atom   13 type  3   force =     0.00001952   -0.00000006    0.00000291
     atom   14 type  3   force =     0.00000926   -0.00001216    0.00000178
     atom   15 type  3   force =     0.00000926    0.00001216    0.00000178
     atom   16 type  3   force =     0.00001952    0.00000006    0.00000291
     atom   17 type  2   force =     0.00004389    0.00003381    0.00002185
     atom   18 type  4   force =     0.00017841    0.00007632    0.00005999
     atom   19 type  3   force =     0.00000524    0.00000423    0.00000164
     atom   20 type  3   force =     0.00001735   -0.00000464    0.00000877
     atom   21 type  2   force =     0.00005637    0.00003177    0.00002289
     atom   22 type  4   force =    -0.00002407    0.00001208   -0.00002797
     atom   23 type  1   force =     0.00025031    0.00012933    0.00009849
     atom   24 type  4   force =     0.00010952   -0.00002222   -0.00003458
     atom   25 type  1   force =     0.00003281    0.00001794    0.00003378
     atom   26 type  1   force =     0.00002989    0.00007818   -0.00017199
     atom   27 type  4   force =    -0.00000063    0.00001327   -0.00006985
     atom   28 type  1   force =    -0.00000171    0.00006006   -0.00000536
     atom   29 type  3   force =    -0.00000926    0.00001216   -0.00000178
     atom   30 type  3   force =    -0.00001952    0.00000006   -0.00000291
     atom   31 type  2   force =    -0.00004389    0.00003381   -0.00002185
     atom   32 type  4   force =    -0.00017841    0.00007632   -0.00005999
     atom   33 type  3   force =    -0.00000524    0.00000423   -0.00000164
     atom   34 type  3   force =    -0.00001735   -0.00000464   -0.00000877
     atom   35 type  2   force =    -0.00005637    0.00003177   -0.00002289
     atom   36 type  4   force =     0.00002407    0.00001208    0.00002797
     atom   37 type  1   force =    -0.00025031    0.00012933   -0.00009849
     atom   38 type  4   force =    -0.00010952   -0.00002222    0.00003458
     atom   39 type  1   force =    -0.00003281    0.00001794   -0.00003378
     atom   40 type  1   force =    -0.00002989    0.00007818    0.00017199
     atom   41 type  4   force =     0.00000063    0.00001327    0.00006985
     atom   42 type  1   force =     0.00000171    0.00006006    0.00000536
     atom   43 type  3   force =    -0.00000926   -0.00001216   -0.00000178
     atom   44 type  3   force =    -0.00001952   -0.00000006   -0.00000291
     atom   45 type  2   force =    -0.00004389   -0.00003381   -0.00002185
     atom   46 type  4   force =    -0.00017841   -0.00007632   -0.00005999
     atom   47 type  3   force =    -0.00000524   -0.00000423   -0.00000164
     atom   48 type  3   force =    -0.00001735    0.00000464   -0.00000877
     atom   49 type  2   force =    -0.00005637   -0.00003177   -0.00002289
     atom   50 type  4   force =     0.00002407   -0.00001208    0.00002797
     atom   51 type  1   force =    -0.00025031   -0.00012933   -0.00009849
     atom   52 type  4   force =    -0.00010952    0.00002222    0.00003458
     atom   53 type  1   force =    -0.00003281   -0.00001794   -0.00003378
     atom   54 type  1   force =    -0.00002989   -0.00007818    0.00017199
     atom   55 type  4   force =     0.00000063   -0.00001327    0.00006985
     atom   56 type  1   force =     0.00000171   -0.00006006    0.00000536

     Total force =     1.055713     Total SCF correction =     0.000900


     entering subroutine stress ...

          total   stress  (Ry/bohr**3)                   (kbar)     P=  134.61
   0.00094194   0.00000000   0.00010734        138.56      0.00     15.79
   0.00000000   0.00092951   0.00000000          0.00    136.74      0.00
   0.00010734   0.00000000   0.00087366         15.79      0.00    128.52

     kinetic stress (kbar)  15321.63      0.00    327.68
                                0.00  15755.13      0.00
                              327.68      0.00  15293.28

     local   stress (kbar) -15730.90     -0.00   7849.59
                               -0.00  -8727.20     -0.00
                             7849.59     -0.00 -11840.50

     nonloc. stress (kbar)   1040.06      0.00     10.99
                                0.00   1050.25      0.00
                               10.99      0.00   1010.17

     hartree stress (kbar)   7076.32      0.00  -2867.67
                                0.00   5037.22     -0.00
                            -2867.67     -0.00   5606.96

     exc-cor stress (kbar)  -2211.05      0.00    -10.86
                                0.00  -2231.88      0.00
                              -10.86      0.00  -2217.10

     corecor stress (kbar)  -1149.35      0.00     -2.74
                                0.00  -1151.36     -0.00
                               -2.74     -0.00  -1148.96

     ewald   stress (kbar)  -4208.15     -0.00  -5291.19
                               -0.00  -9595.42      0.00
                            -5291.19      0.00  -6575.33

     hubbard stress (kbar)      0.00      0.00      0.00
                                0.00      0.00      0.00
                                0.00      0.00      0.00

     london  stress (kbar)      0.00      0.00      0.00
                                0.00      0.00      0.00
                                0.00      0.00      0.00

     XDM     stress (kbar)      0.00      0.00      0.00
                                0.00      0.00      0.00
                                0.00      0.00      0.00

     dft-nl  stress (kbar)      0.00      0.00      0.00
                                0.00      0.00      0.00
                                0.00      0.00      0.00

     TS-vdW  stress (kbar)      0.00      0.00      0.00
                                0.00      0.00      0.00
                                0.00      0.00      0.00



     Writing output data file scf.pbe.ec-220.kp-444.HMX-792934.np-8.default-conv-thr.save

     init_run     :   1479.91s CPU   1648.19s WALL (       1 calls)
     electrons    :  53796.45s CPU 104158.21s WALL (       1 calls)
     forces       :    738.97s CPU   1886.18s WALL (       1 calls)
     stress       :   2038.50s CPU   3382.12s WALL (       1 calls)

     Called by init_run:
     wfcinit      :   1091.73s CPU   1230.13s WALL (       1 calls)
     potinit      :    125.70s CPU    129.44s WALL (       1 calls)

     Called by electrons:
     c_bands      :  45663.69s CPU  75255.44s WALL (      18 calls)
     sum_band     :   7311.28s CPU  22197.76s WALL (      18 calls)
     v_of_rho     :    239.19s CPU    830.84s WALL (      19 calls)
     v_h          :     16.63s CPU     19.21s WALL (      19 calls)
     v_xc         :    240.44s CPU    867.59s WALL (      21 calls)
     newd         :    465.82s CPU   2233.49s WALL (      19 calls)
     PAW_pot      :     19.18s CPU    136.83s WALL (      19 calls)
     mix_rho      :     91.79s CPU   2586.73s WALL (      18 calls)

     Called by c_bands:
     init_us_2    :    205.96s CPU   4035.30s WALL (     624 calls)
     cegterg      :  44401.77s CPU  56040.12s WALL (     288 calls)

     Called by sum_band:
     sum_band:bec :      0.28s CPU      0.88s WALL (     288 calls)
     addusdens    :    495.79s CPU   7728.98s WALL (      18 calls)

     Called by *egterg:
     h_psi        :  28810.81s CPU  37846.99s WALL (    1395 calls)
     s_psi        :   3706.03s CPU   3939.11s WALL (    1395 calls)
     g_psi        :     32.16s CPU     40.83s WALL (    1091 calls)
     cdiaghg      :    344.48s CPU    472.60s WALL (    1379 calls)
     cegterg:over :   5990.54s CPU   6959.20s WALL (    1091 calls)
     cegterg:upda :   2369.69s CPU   2459.16s WALL (    1091 calls)
     cegterg:last :   1348.07s CPU   1555.60s WALL (     304 calls)

     Called by h_psi:
     h_psi:vloc   :  19262.97s CPU  20477.90s WALL (    1395 calls)
     h_psi:vnl    :   9330.81s CPU  17121.24s WALL (    1395 calls)
     add_vuspsi   :   3741.95s CPU   4097.23s WALL (    1395 calls)

     General routines
     calbec       :   7758.65s CPU  15601.76s WALL (    1763 calls)
     fft          :    397.56s CPU   1260.77s WALL (     325 calls)
     ffts         :     18.48s CPU    231.99s WALL (      37 calls)
     fftw         :  11986.22s CPU  13830.48s WALL (  226042 calls)
     interpolate  :     55.86s CPU   1528.83s WALL (      37 calls)
     davcio       :      2.45s CPU    109.50s WALL (      16 calls)

     Parallel routines
     fft_scatter  :   5677.30s CPU   8090.86s WALL (  226404 calls)

     PAW routines
     PAW_pot      :     19.18s CPU    136.83s WALL (      19 calls)
     PAW_symme    :      0.85s CPU     16.11s WALL (      37 calls)

     PWSCF        :     0d   16h 8m CPU        1d    7h 5m WALL


   This run was terminated on:   6:33:45  28May2016            

=------------------------------------------------------------------------------=
   JOB DONE.
=------------------------------------------------------------------------------=
