
     Program PWSCF v.5.3.0 (svn rev. 11974) starts on 14Jul2016 at 17: 3: 5 

     This program is part of the open-source Quantum ESPRESSO suite
     for quantum simulation of materials; please cite
         "P. Giannozzi et al., J. Phys.:Condens. Matter 21 395502 (2009);
          URL http://www.quantum-espresso.org", 
     in publications or presentations arising from this work. More details at
     http://www.quantum-espresso.org/quote

     Parallel version (MPI), running on    32 processors
     R & G space division:  proc/nbgrp/npool/nimage =      32
     Waiting for input...
     Reading input from standard input
Warning: card     &CELL ignored
Warning: card CELL_DYNAMICS='BFGS' ignored
Warning: card / ignored

     Current dimensions of program PWSCF are:
     Max number of different atomic species (ntypx) = 10
     Max number of k-points (npk) =  40000
     Max angular momentum in pseudopotentials (lmaxx) =  3
               file N.pbe-n-kjpaw_psl.1.0.0.UPF: wavefunction(s)  2S renormalized
               file C.pbe-n-kjpaw_psl.1.0.0.UPF: wavefunction(s)  2S 2P renormalized
               file H.pbe-kjpaw_psl.1.0.0.UPF: wavefunction(s)  1S renormalized
               file O.pbe-n-kjpaw_psl.1.0.0.UPF: wavefunction(s)  2S 2P renormalized

     Subspace diagonalization in iterative solution of the eigenvalue problem:
     a serial algorithm will be used


     Parallelization info
     --------------------
     sticks:   dense  smooth     PW     G-vecs:    dense   smooth      PW
     Min         510     204     54                41635    10514    1450
     Max         511     205     55                41640    10562    1455
     Sum       16345    6533   1745              1332393   336931   46473


     Title: 
     HMX-relax--kp-4x2x4-ec-80-default-conv-thr                                 


     bravais-lattice index     =            0
     lattice parameter (alat)  =       1.8897  a.u.
     unit-cell volume          =    3486.6982 (a.u.)^3
     number of atoms/cell      =           56
     number of atomic types    =            4
     number of electrons       =       224.00
     number of Kohn-Sham states=          112
     kinetic-energy cutoff     =      80.0000  Ry
     charge density cutoff     =     800.0000  Ry
     convergence threshold     =      1.0E-06
     mixing beta               =       0.7000
     number of iterations used =            8  plain     mixing
     Exchange-correlation      =  SLA  PW   PBX  PBC ( 1  4  3  4 0 0)
     nstep                     =           50


     celldm(1)=   1.889726  celldm(2)=   0.000000  celldm(3)=   0.000000
     celldm(4)=   0.000000  celldm(5)=   0.000000  celldm(6)=   0.000000

     crystal axes: (cart. coord. in units of alat)
               a(1) = (   6.524500   0.000000   0.000000 )  
               a(2) = (   0.000000  11.024000   0.000000 )  
               a(3) = (  -1.611215   0.000000   7.183422 )  

     reciprocal axes: (cart. coord. in units 2 pi/alat)
               b(1) = (  0.153268 -0.000000  0.034378 )  
               b(2) = (  0.000000  0.090711 -0.000000 )  
               b(3) = (  0.000000  0.000000  0.139209 )  


     PseudoPot. # 1 for  N read from file:
     /users/majewski/.data/PSEUDOPOTENTIALS/N.pbe-n-kjpaw_psl.1.0.0.UPF
     MD5 check sum: c21df8f53e59d08c3548513d559cdda6
     Pseudo is Projector augmented-wave + core cor, Zval =  5.0
     Generated using "atomic" code by A. Dal Corso  v.5.3.0 svn rev. 11974
     Shape of augmentation charge: PSQ
     Using radial grid of 1085 points,  4 beta functions with: 
                l(1) =   0
                l(2) =   0
                l(3) =   1
                l(4) =   1
     Q(r) pseudized with 0 coefficients 


     PseudoPot. # 2 for  C read from file:
     /users/majewski/.data/PSEUDOPOTENTIALS/C.pbe-n-kjpaw_psl.1.0.0.UPF
     MD5 check sum: 2ba8448e293caca687844dde9a1b88a8
     Pseudo is Projector augmented-wave + core cor, Zval =  4.0
     Generated using "atomic" code by A. Dal Corso  v.5.3.0 svn rev. 11974
     Shape of augmentation charge: PSQ
     Using radial grid of 1073 points,  4 beta functions with: 
                l(1) =   0
                l(2) =   0
                l(3) =   1
                l(4) =   1
     Q(r) pseudized with 0 coefficients 


     PseudoPot. # 3 for  H read from file:
     /users/majewski/.data/PSEUDOPOTENTIALS/H.pbe-kjpaw_psl.1.0.0.UPF
     MD5 check sum: bc0feb48a24907a0b97fa6ee2d589a29
     Pseudo is Projector augmented-wave, Zval =  1.0
     Generated using "atomic" code by A. Dal Corso  v.5.3.0 svn rev. 11974
     Shape of augmentation charge: PSQ
     Using radial grid of  929 points,  2 beta functions with: 
                l(1) =   0
                l(2) =   0
     Q(r) pseudized with 0 coefficients 


     PseudoPot. # 4 for  O read from file:
     /users/majewski/.data/PSEUDOPOTENTIALS/O.pbe-n-kjpaw_psl.1.0.0.UPF
     MD5 check sum: 9c0ade6c043cf4a781bde3908a3a8206
     Pseudo is Projector augmented-wave + core cor, Zval =  6.0
     Generated using "atomic" code by A. Dal Corso  v.5.3.0 svn rev. 11974
     Shape of augmentation charge: PSQ
     Using radial grid of 1095 points,  4 beta functions with: 
                l(1) =   0
                l(2) =   0
                l(3) =   1
                l(4) =   1
     Q(r) pseudized with 0 coefficients 


     atomic species   valence    mass     pseudopotential
        N              5.00    14.00670      N( 1.00)
        C              4.00    12.01100      C( 1.00)
        H              1.00     1.00790      H( 1.00)
        O              6.00    15.99940      O( 1.00)

      2 Sym. Ops., with inversion, found
          (note:  2 additional sym.ops. were found but ignored
           their fractional translations are incommensurate with FFT grid)

                                    s                        frac. trans.

      isym =  1     identity                                     

 cryst.   s( 1) = (     1          0          0      )
                  (     0          1          0      )
                  (     0          0          1      )

 cart.    s( 1) = (  1.0000000  0.0000000  0.0000000 )
                  (  0.0000000  1.0000000  0.0000000 )
                  (  0.0000000  0.0000000  1.0000000 )


      isym =  2     inversion                                    

 cryst.   s( 2) = (    -1          0          0      )
                  (     0         -1          0      )
                  (     0          0         -1      )

 cart.    s( 2) = ( -1.0000000  0.0000000  0.0000000 )
                  (  0.0000000 -1.0000000  0.0000000 )
                  (  0.0000000  0.0000000 -1.0000000 )


   Cartesian axes

     site n.     atom                  positions (alat units)
         1           N   tau(   1) = (  -0.8659061   6.8626605   3.3165861  )
         2           O   tau(   2) = (   1.0642077   7.9307758   3.1413106  )
         3           N   tau(   3) = (   0.0570773   7.7471160   3.8208624  )
         4           N   tau(   4) = (  -2.0666224   5.7847338   5.0657495  )
         5           O   tau(   5) = (  -3.2536876   4.7233430   6.6202421  )
         6           N   tau(   6) = (  -3.2443309   5.5226933   5.7000457  )
         7           O   tau(   7) = (  -0.1845731   8.2332744   4.9098692  )
         8           C   tau(   8) = (  -2.1347167   6.7751299   3.9788977  )
         9           H   tau(   9) = (  -2.8326807   6.5096720   3.3295163  )
        10           H   tau(  10) = (  -2.3796630   7.6605776   4.3495623  )
        11           O   tau(  11) = (  -4.2115393   6.1725581   5.3056758  )
        12           C   tau(  12) = (  -0.5988683   6.2410171   2.0300352  )
        13           H   tau(  13) = (  -1.4188675   5.8228768   1.7240214  )
        14           H   tau(  14) = (  -0.3175686   6.8855904   1.3576668  )
        15           H   tau(  15) = (   2.1390739  -1.3735904   4.9493781  )
        16           H   tau(  16) = (   1.0377751  -0.3108768   5.3157326  )
        17           C   tau(  17) = (   1.8577742  -0.7290171   5.6217464  )
        18           O   tau(  18) = (  -1.7548967  -0.6605581   8.8973871  )
        19           H   tau(  19) = (   0.0769795  -2.1485776   7.9412735  )
        20           H   tau(  20) = (  -0.3760382  -0.9976720   6.9212275  )
        21           C   tau(  21) = (   0.3219258  -1.2631299   7.5706089  )
        22           O   tau(  22) = (   2.2720694  -2.7212744   8.5015805  )
        23           N   tau(  23) = (  -0.7876883  -0.0106933   9.2917569  )
        24           O   tau(  24) = (  -0.7970450   0.7886570  10.2119534  )
        25           N   tau(  25) = (   0.3900201  -0.2727338   8.6574607  )
        26           N   tau(  26) = (   2.5137198  -2.2351160   7.4125736  )
        27           O   tau(  27) = (   3.5208502  -2.4187758   6.7330219  )
        28           N   tau(  28) = (   1.5907365  -1.3506605   6.9082974  )
        29           H   tau(  29) = (  -1.2936463   4.1384096   5.8257556  )
        30           H   tau(  30) = (  -0.1923474   5.2011232   5.4594011  )
        31           C   tau(  31) = (  -1.0123466   4.7829829   5.1533873  )
        32           O   tau(  32) = (   2.6003244   4.8514419   1.8777466  )
        33           H   tau(  33) = (   0.7684481   3.3634224   2.8338602  )
        34           H   tau(  34) = (   1.2214659   4.5143280   3.8539061  )
        35           C   tau(  35) = (   0.5235018   4.2488701   3.2045248  )
        36           O   tau(  36) = (  -1.4266418   2.7907256   2.2735532  )
        37           N   tau(  37) = (   1.6331160   5.5013067   1.4833767  )
        38           O   tau(  38) = (   1.6424727   6.3006570   0.5631803  )
        39           N   tau(  39) = (   0.4554076   5.2392662   2.1176729  )
        40           N   tau(  40) = (  -1.6682921   3.2768840   3.3625601  )
        41           O   tau(  41) = (  -2.6754226   3.0932242   4.0421118  )
        42           N   tau(  42) = (  -0.7453088   4.1613395   3.8668363  )
        43           H   tau(  43) = (   1.1629963   1.3735904   9.4174668  )
        44           H   tau(  44) = (   2.2642951   0.3108768   9.0511123  )
        45           C   tau(  45) = (   1.4442960   0.7290171   8.7450985  )
        46           O   tau(  46) = (   5.0569669   0.6605581   5.4694579  )
        47           H   tau(  47) = (   3.2250907   2.1485776   6.4255714  )
        48           H   tau(  48) = (   3.6781084   0.9976720   7.4456174  )
        49           C   tau(  49) = (   2.9801444   1.2631299   6.7962360  )
        50           O   tau(  50) = (   1.0300008   2.7212744   5.8652644  )
        51           N   tau(  51) = (   4.0897585   0.0106933   5.0750880  )
        52           O   tau(  52) = (   4.0991153  -0.7886570   4.1548915  )
        53           N   tau(  53) = (   2.9120501   0.2727338   5.7093842  )
        54           N   tau(  54) = (   0.7883504   2.2351160   6.9542713  )
        55           O   tau(  55) = (  -0.2187800   2.4187758   7.6338230  )
        56           N   tau(  56) = (   1.7113337   1.3506605   7.4585475  )

   Crystallographic axes

     site n.     atom                  positions (cryst. coord.)
         1           N   tau(   1) = ( -0.0187000  0.6225200  0.4617000  )
         2           O   tau(   2) = (  0.2711000  0.7194100  0.4373000  )
         3           N   tau(   3) = (  0.1401000  0.7027500  0.5319000  )
         4           N   tau(   4) = ( -0.1426000  0.5247400  0.7052000  )
         5           O   tau(   5) = ( -0.2711000  0.4284600  0.9216000  )
         6           N   tau(   6) = ( -0.3013000  0.5009700  0.7935000  )
         7           O   tau(   7) = (  0.1405000  0.7468500  0.6835000  )
         8           C   tau(   8) = ( -0.1904000  0.6145800  0.5539000  )
         9           H   tau(   9) = ( -0.3197000  0.5905000  0.4635000  )
        10           H   tau(  10) = ( -0.2152000  0.6949000  0.6055000  )
        11           O   tau(  11) = ( -0.4631000  0.5599200  0.7386000  )
        12           C   tau(  12) = ( -0.0220000  0.5661300  0.2826000  )
        13           H   tau(  13) = ( -0.1582000  0.5282000  0.2400000  )
        14           H   tau(  14) = ( -0.0020000  0.6246000  0.1890000  )
        15           H   tau(  15) = (  0.4980000 -0.1246000  0.6890000  )
        16           H   tau(  16) = (  0.3418000 -0.0282000  0.7400000  )
        17           C   tau(  17) = (  0.4780000 -0.0661300  0.7826000  )
        18           O   tau(  18) = (  0.0369000 -0.0599200  1.2386000  )
        19           H   tau(  19) = (  0.2848000 -0.1949000  1.1055000  )
        20           H   tau(  20) = (  0.1803000 -0.0905000  0.9635000  )
        21           C   tau(  21) = (  0.3096000 -0.1145800  1.0539000  )
        22           O   tau(  22) = (  0.6405000 -0.2468500  1.1835000  )
        23           N   tau(  23) = (  0.1987000 -0.0009700  1.2935000  )
        24           O   tau(  24) = (  0.2289000  0.0715400  1.4216000  )
        25           N   tau(  25) = (  0.3574000 -0.0247400  1.2052000  )
        26           N   tau(  26) = (  0.6401000 -0.2027500  1.0319000  )
        27           O   tau(  27) = (  0.7711000 -0.2194100  0.9373000  )
        28           N   tau(  28) = (  0.4813000 -0.1225200  0.9617000  )
        29           H   tau(  29) = (  0.0020000  0.3754000  0.8110000  )
        30           H   tau(  30) = (  0.1582000  0.4718000  0.7600000  )
        31           C   tau(  31) = (  0.0220000  0.4338700  0.7174000  )
        32           O   tau(  32) = (  0.4631000  0.4400800  0.2614000  )
        33           H   tau(  33) = (  0.2152000  0.3051000  0.3945000  )
        34           H   tau(  34) = (  0.3197000  0.4095000  0.5365000  )
        35           C   tau(  35) = (  0.1904000  0.3854200  0.4461000  )
        36           O   tau(  36) = ( -0.1405000  0.2531500  0.3165000  )
        37           N   tau(  37) = (  0.3013000  0.4990300  0.2065000  )
        38           O   tau(  38) = (  0.2711000  0.5715400  0.0784000  )
        39           N   tau(  39) = (  0.1426000  0.4752600  0.2948000  )
        40           N   tau(  40) = ( -0.1401000  0.2972500  0.4681000  )
        41           O   tau(  41) = ( -0.2711000  0.2805900  0.5627000  )
        42           N   tau(  42) = (  0.0187000  0.3774800  0.5383000  )
        43           H   tau(  43) = (  0.5020000  0.1246000  1.3110000  )
        44           H   tau(  44) = (  0.6582000  0.0282000  1.2600000  )
        45           C   tau(  45) = (  0.5220000  0.0661300  1.2174000  )
        46           O   tau(  46) = (  0.9631000  0.0599200  0.7614000  )
        47           H   tau(  47) = (  0.7152000  0.1949000  0.8945000  )
        48           H   tau(  48) = (  0.8197000  0.0905000  1.0365000  )
        49           C   tau(  49) = (  0.6904000  0.1145800  0.9461000  )
        50           O   tau(  50) = (  0.3595000  0.2468500  0.8165000  )
        51           N   tau(  51) = (  0.8013000  0.0009700  0.7065000  )
        52           O   tau(  52) = (  0.7711000 -0.0715400  0.5784000  )
        53           N   tau(  53) = (  0.6426000  0.0247400  0.7948000  )
        54           N   tau(  54) = (  0.3599000  0.2027500  0.9681000  )
        55           O   tau(  55) = (  0.2289000  0.2194100  1.0627000  )
        56           N   tau(  56) = (  0.5187000  0.1225200  1.0383000  )

     number of k points=    16
                       cart. coord. in units 2pi/alat
        k(    1) = (   0.0191586   0.0226778   0.0216984), wk =   0.1250000
        k(    2) = (   0.0191586   0.0226778   0.0565007), wk =   0.1250000
        k(    3) = (   0.0191586   0.0226778  -0.0479063), wk =   0.1250000
        k(    4) = (   0.0191586   0.0226778  -0.0131040), wk =   0.1250000
        k(    5) = (   0.0574757   0.0226778   0.0302928), wk =   0.1250000
        k(    6) = (   0.0574757   0.0226778   0.0650951), wk =   0.1250000
        k(    7) = (   0.0574757   0.0226778  -0.0393120), wk =   0.1250000
        k(    8) = (   0.0574757   0.0226778  -0.0045096), wk =   0.1250000
        k(    9) = (  -0.0191586   0.0226778  -0.0216984), wk =   0.1250000
        k(   10) = (  -0.0191586   0.0226778  -0.0565007), wk =   0.1250000
        k(   11) = (  -0.0191586   0.0226778   0.0479063), wk =   0.1250000
        k(   12) = (  -0.0191586   0.0226778   0.0131040), wk =   0.1250000
        k(   13) = (  -0.0574757   0.0226778  -0.0302928), wk =   0.1250000
        k(   14) = (  -0.0574757   0.0226778  -0.0650951), wk =   0.1250000
        k(   15) = (  -0.0574757   0.0226778   0.0393120), wk =   0.1250000
        k(   16) = (  -0.0574757   0.0226778   0.0045096), wk =   0.1250000

                       cryst. coord.
        k(    1) = (   0.1250000   0.2500000   0.1250000), wk =   0.1250000
        k(    2) = (   0.1250000   0.2500000   0.3750000), wk =   0.1250000
        k(    3) = (   0.1250000   0.2500000  -0.3750000), wk =   0.1250000
        k(    4) = (   0.1250000   0.2500000  -0.1250000), wk =   0.1250000
        k(    5) = (   0.3750000   0.2500000   0.1250000), wk =   0.1250000
        k(    6) = (   0.3750000   0.2500000   0.3750000), wk =   0.1250000
        k(    7) = (   0.3750000   0.2500000  -0.3750000), wk =   0.1250000
        k(    8) = (   0.3750000   0.2500000  -0.1250000), wk =   0.1250000
        k(    9) = (  -0.1250000   0.2500000  -0.1250000), wk =   0.1250000
        k(   10) = (  -0.1250000   0.2500000  -0.3750000), wk =   0.1250000
        k(   11) = (  -0.1250000   0.2500000   0.3750000), wk =   0.1250000
        k(   12) = (  -0.1250000   0.2500000   0.1250000), wk =   0.1250000
        k(   13) = (  -0.3750000   0.2500000  -0.1250000), wk =   0.1250000
        k(   14) = (  -0.3750000   0.2500000  -0.3750000), wk =   0.1250000
        k(   15) = (  -0.3750000   0.2500000   0.3750000), wk =   0.1250000
        k(   16) = (  -0.3750000   0.2500000   0.1250000), wk =   0.1250000

     Dense  grid:  1332393 G-vectors     FFT dimensions: ( 120, 192, 125)

     Smooth grid:   336931 G-vectors     FFT dimensions: (  72, 120,  80)

     Largest allocated arrays     est. size (Mb)     dimensions
        Kohn-Sham Wavefunctions         2.28 Mb     (    1335,  112)
        NL pseudopotentials             7.17 Mb     (    1335,  352)
        Each V/rho on FFT grid          1.41 Mb     (   92160)
        Each G-vector array             0.32 Mb     (   41638)
        G-vector shells                 0.31 Mb     (   40127)
     Largest temporary arrays     est. size (Mb)     dimensions
        Auxiliary wavefunctions         9.13 Mb     (    1335,  448)
        Each subspace H/S matrix        3.06 Mb     (     448,  448)
        Each <psi_i|beta_j> matrix      0.60 Mb     (     352,  112)
        Arrays for rho mixing          11.25 Mb     (   92160,    8)

     Initial potential from superposition of free atoms

     starting charge  223.99937, renormalised to  224.00000
     Starting wfc are  176 randomized atomic wfcs
     Checking if some PAW data can be deallocated... 
       node    0, deallocated PAW data for type:  2
       node    0, deallocated PAW data for type:  3
       node    1, deallocated PAW data for type:  2
       node    1, deallocated PAW data for type:  3
       node    1, deallocated PAW data for type:  4
       node    2, deallocated PAW data for type:  2
       node    2, deallocated PAW data for type:  3
       node    3, deallocated PAW data for type:  1
       node    3, deallocated PAW data for type:  3
       node    4, deallocated PAW data for type:  1
       node    4, deallocated PAW data for type:  2
       node    4, deallocated PAW data for type:  4
       node    5, deallocated PAW data for type:  1
       node    5, deallocated PAW data for type:  3
       node    6, deallocated PAW data for type:  1
       node    6, deallocated PAW data for type:  2
       node    6, deallocated PAW data for type:  4
       node    7, deallocated PAW data for type:  1
       node    7, deallocated PAW data for type:  2
       node    7, deallocated PAW data for type:  4
       node    8, deallocated PAW data for type:  1
       node    8, deallocated PAW data for type:  3
       node    9, deallocated PAW data for type:  1
       node    9, deallocated PAW data for type:  2
       node    9, deallocated PAW data for type:  4
       node   10, deallocated PAW data for type:  1
       node   10, deallocated PAW data for type:  3
       node   11, deallocated PAW data for type:  2
       node   11, deallocated PAW data for type:  3
       node   12, deallocated PAW data for type:  2
       node   12, deallocated PAW data for type:  3
       node   12, deallocated PAW data for type:  4
       node   13, deallocated PAW data for type:  2
       node   13, deallocated PAW data for type:  3
       node   14, deallocated PAW data for type:  1
       node   14, deallocated PAW data for type:  2
       node   14, deallocated PAW data for type:  4
       node   15, deallocated PAW data for type:  1
       node   15, deallocated PAW data for type:  3
       node   16, deallocated PAW data for type:  1
       node   16, deallocated PAW data for type:  2
       node   16, deallocated PAW data for type:  4
       node   17, deallocated PAW data for type:  1
       node   17, deallocated PAW data for type:  3
       node   18, deallocated PAW data for type:  2
       node   18, deallocated PAW data for type:  3
       node   19, deallocated PAW data for type:  2
       node   19, deallocated PAW data for type:  3
       node   19, deallocated PAW data for type:  4
       node   20, deallocated PAW data for type:  2
       node   20, deallocated PAW data for type:  3
       node   21, deallocated PAW data for type:  1
       node   21, deallocated PAW data for type:  2
       node   21, deallocated PAW data for type:  4
       node   22, deallocated PAW data for type:  1
       node   22, deallocated PAW data for type:  3
       node   23, deallocated PAW data for type:  1
       node   23, deallocated PAW data for type:  2
       node   23, deallocated PAW data for type:  4
       node   24, deallocated PAW data for type:  1
       node   24, deallocated PAW data for type:  3
       node   24, deallocated PAW data for type:  4
       node   25, deallocated PAW data for type:  1
       node   25, deallocated PAW data for type:  2
       node   25, deallocated PAW data for type:  3
       node   26, deallocated PAW data for type:  2
       node   26, deallocated PAW data for type:  3
       node   26, deallocated PAW data for type:  4
       node   27, deallocated PAW data for type:  1
       node   27, deallocated PAW data for type:  2
       node   27, deallocated PAW data for type:  3
       node   28, deallocated PAW data for type:  2
       node   28, deallocated PAW data for type:  3
       node   28, deallocated PAW data for type:  4
       node   29, deallocated PAW data for type:  2
       node   29, deallocated PAW data for type:  3
       node   29, deallocated PAW data for type:  4
       node   30, deallocated PAW data for type:  1
       node   30, deallocated PAW data for type:  2
       node   30, deallocated PAW data for type:  3
       node   31, deallocated PAW data for type:  2
       node   31, deallocated PAW data for type:  3
       node   31, deallocated PAW data for type:  4

     total cpu time spent up to now is       99.5 secs

     per-process dynamical memory:    82.0 Mb

     Self-consistent Calculation

     iteration #  1     ecut=    80.00 Ry     beta=0.70
     Davidson diagonalization with overlap
     ethr =  1.00E-02,  avg # of iterations =  3.0

     total cpu time spent up to now is      269.3 secs

     total energy              =   -1279.68449661 Ry
     Harris-Foulkes estimate   =   -1283.98652918 Ry
     estimated scf accuracy    <       6.62845819 Ry

     iteration #  2     ecut=    80.00 Ry     beta=0.70
     Davidson diagonalization with overlap
     ethr =  2.96E-03,  avg # of iterations =  4.0

     total cpu time spent up to now is      481.1 secs

     total energy              =   -1280.37662423 Ry
     Harris-Foulkes estimate   =   -1283.80946133 Ry
     estimated scf accuracy    <       6.90939064 Ry

     iteration #  3     ecut=    80.00 Ry     beta=0.70
     Davidson diagonalization with overlap
     ethr =  2.96E-03,  avg # of iterations =  4.8

     total cpu time spent up to now is      670.3 secs

     total energy              =   -1281.86049295 Ry
     Harris-Foulkes estimate   =   -1282.07604847 Ry
     estimated scf accuracy    <       0.39852642 Ry

     iteration #  4     ecut=    80.00 Ry     beta=0.70
     Davidson diagonalization with overlap
     ethr =  1.78E-04,  avg # of iterations =  4.9

     total cpu time spent up to now is      892.9 secs

     total energy              =   -1282.00335227 Ry
     Harris-Foulkes estimate   =   -1282.08494570 Ry
     estimated scf accuracy    <       0.17796893 Ry

     iteration #  5     ecut=    80.00 Ry     beta=0.70
     Davidson diagonalization with overlap
     ethr =  7.95E-05,  avg # of iterations =  4.0

     total cpu time spent up to now is     1062.5 secs

     total energy              =   -1282.04016114 Ry
     Harris-Foulkes estimate   =   -1282.04892022 Ry
     estimated scf accuracy    <       0.02184110 Ry

     iteration #  6     ecut=    80.00 Ry     beta=0.70
     Davidson diagonalization with overlap
     ethr =  9.75E-06,  avg # of iterations =  5.5

     total cpu time spent up to now is     1219.4 secs

     total energy              =   -1282.04209145 Ry
     Harris-Foulkes estimate   =   -1282.04348167 Ry
     estimated scf accuracy    <       0.00365109 Ry

     iteration #  7     ecut=    80.00 Ry     beta=0.70
     Davidson diagonalization with overlap
     ethr =  1.63E-06,  avg # of iterations =  4.5

     total cpu time spent up to now is     1472.0 secs

     total energy              =   -1282.04447662 Ry
     Harris-Foulkes estimate   =   -1282.04547125 Ry
     estimated scf accuracy    <       0.00341777 Ry

     iteration #  8     ecut=    80.00 Ry     beta=0.70
     Davidson diagonalization with overlap
     ethr =  1.53E-06,  avg # of iterations =  1.0

     total cpu time spent up to now is     1599.9 secs

     total energy              =   -1282.04365768 Ry
     Harris-Foulkes estimate   =   -1282.04454362 Ry
     estimated scf accuracy    <       0.00182528 Ry

     iteration #  9     ecut=    80.00 Ry     beta=0.70
     Davidson diagonalization with overlap
     ethr =  8.15E-07,  avg # of iterations =  5.0

     total cpu time spent up to now is     1820.4 secs

     total energy              =   -1282.04487416 Ry
     Harris-Foulkes estimate   =   -1282.04560330 Ry
     estimated scf accuracy    <       0.00414941 Ry

     iteration # 10     ecut=    80.00 Ry     beta=0.70
     Davidson diagonalization with overlap
     ethr =  8.15E-07,  avg # of iterations =  1.0

     total cpu time spent up to now is     1939.7 secs

     total energy              =   -1282.04390518 Ry
     Harris-Foulkes estimate   =   -1282.04489525 Ry
     estimated scf accuracy    <       0.00296681 Ry

     iteration # 11     ecut=    80.00 Ry     beta=0.70
     Davidson diagonalization with overlap
     ethr =  8.15E-07,  avg # of iterations =  5.0

     total cpu time spent up to now is     2116.8 secs

     total energy              =   -1282.04477009 Ry
     Harris-Foulkes estimate   =   -1282.04487674 Ry
     estimated scf accuracy    <       0.00038323 Ry

     iteration # 12     ecut=    80.00 Ry     beta=0.70
     Davidson diagonalization with overlap
     ethr =  1.71E-07,  avg # of iterations =  1.0

     total cpu time spent up to now is     2231.5 secs

     total energy              =   -1282.04468360 Ry
     Harris-Foulkes estimate   =   -1282.04477755 Ry
     estimated scf accuracy    <       0.00021287 Ry

     iteration # 13     ecut=    80.00 Ry     beta=0.70
     Davidson diagonalization with overlap
     ethr =  9.50E-08,  avg # of iterations =  5.0

     total cpu time spent up to now is     2418.9 secs

     total energy              =   -1282.04479410 Ry
     Harris-Foulkes estimate   =   -1282.04485481 Ry
     estimated scf accuracy    <       0.00025564 Ry

     iteration # 14     ecut=    80.00 Ry     beta=0.70
     Davidson diagonalization with overlap
     ethr =  9.50E-08,  avg # of iterations =  1.0

     total cpu time spent up to now is     2525.8 secs

     total energy              =   -1282.04476633 Ry
     Harris-Foulkes estimate   =   -1282.04479644 Ry
     estimated scf accuracy    <       0.00015898 Ry

     iteration # 15     ecut=    80.00 Ry     beta=0.70
     Davidson diagonalization with overlap
     ethr =  7.10E-08,  avg # of iterations =  4.9

     total cpu time spent up to now is     2681.6 secs

     total energy              =   -1282.04480748 Ry
     Harris-Foulkes estimate   =   -1282.04480483 Ry
     estimated scf accuracy    <       0.00000156 Ry

     iteration # 16     ecut=    80.00 Ry     beta=0.70
     Davidson diagonalization with overlap
     ethr =  6.95E-10,  avg # of iterations =  5.0

     total cpu time spent up to now is     2982.7 secs

     total energy              =   -1282.04480216 Ry
     Harris-Foulkes estimate   =   -1282.04481362 Ry
     estimated scf accuracy    <       0.00004170 Ry

     iteration # 17     ecut=    80.00 Ry     beta=0.70
     Davidson diagonalization with overlap
     ethr =  6.95E-10,  avg # of iterations =  5.0

     total cpu time spent up to now is     3222.7 secs

     total energy              =   -1282.04480540 Ry
     Harris-Foulkes estimate   =   -1282.04480585 Ry
     estimated scf accuracy    <       0.00000224 Ry

     iteration # 18     ecut=    80.00 Ry     beta=0.70
     Davidson diagonalization with overlap
     ethr =  6.95E-10,  avg # of iterations =  1.0

     total cpu time spent up to now is     3336.7 secs

     total energy              =   -1282.04480489 Ry
     Harris-Foulkes estimate   =   -1282.04480541 Ry
     estimated scf accuracy    <       0.00000149 Ry

     iteration # 19     ecut=    80.00 Ry     beta=0.70
     Davidson diagonalization with overlap
     ethr =  6.67E-10,  avg # of iterations =  5.0

     total cpu time spent up to now is     3502.1 secs

     End of self-consistent calculation

          k = 0.0192 0.0227 0.0217 ( 42139 PWs)   bands (ev):

   -24.0378 -24.0215 -24.0036 -23.9972 -23.7647 -23.7580 -23.7569 -23.7543
   -19.2680 -19.2648 -19.2537 -19.2453 -18.9612 -18.9609 -18.9570 -18.9561
   -18.2919 -18.2733 -17.2598 -17.2233 -17.1187 -17.1175 -16.0962 -16.0860
   -12.1239 -12.1217 -12.0922 -12.0132 -11.9167 -11.8676 -11.8030 -11.7910
    -8.9199  -8.8906  -8.3154  -8.2879  -7.5905  -7.5585  -7.4627  -7.4564
    -6.9018  -6.8215  -6.6399  -6.5664  -6.5549  -6.4857  -6.3907  -6.3424
    -6.1993  -6.1729  -6.1098  -6.0291  -5.9688  -5.9073  -5.8290  -5.7977
    -5.7014  -5.6821  -5.5847  -5.5461  -5.1643  -5.0646  -5.0071  -4.9880
    -4.5264  -4.5119  -4.4627  -4.4296  -4.2682  -4.1806  -3.9119  -3.9012
    -3.7167  -3.6197  -3.5411  -3.5056  -3.1929  -3.1675  -3.0588  -3.0475
    -0.8480  -0.8441  -0.3599  -0.3564  -0.2760  -0.2224  -0.1683  -0.1582
    -0.0632  -0.0456   0.1217   0.1444   0.1655   0.1825   0.3202   0.3397
     0.3822   0.4061   0.5994   0.6386   0.7149   0.7347   0.8113   0.8501
     0.8748   0.9637   1.0141   1.0584   1.1817   1.2806   1.3194   1.3397

     occupation numbers 
     1.0000   1.0000   1.0000   1.0000   1.0000   1.0000   1.0000   1.0000
     1.0000   1.0000   1.0000   1.0000   1.0000   1.0000   1.0000   1.0000
     1.0000   1.0000   1.0000   1.0000   1.0000   1.0000   1.0000   1.0000
     1.0000   1.0000   1.0000   1.0000   1.0000   1.0000   1.0000   1.0000
     1.0000   1.0000   1.0000   1.0000   1.0000   1.0000   1.0000   1.0000
     1.0000   1.0000   1.0000   1.0000   1.0000   1.0000   1.0000   1.0000
     1.0000   1.0000   1.0000   1.0000   1.0000   1.0000   1.0000   1.0000
     1.0000   1.0000   1.0000   1.0000   1.0000   1.0000   1.0000   1.0000
     1.0000   1.0000   1.0000   1.0000   1.0000   1.0000   1.0000   1.0000
     1.0000   1.0000   1.0000   1.0000   1.0000   1.0000   1.0000   1.0000
     1.0000   1.0000   1.0000   1.0000   1.0000   1.0000   1.0000   1.0000
     1.0000   1.0000   1.0000   1.0000   1.0000   1.0000   1.0000   1.0000
     1.0000   1.0000   1.0000   1.0000   1.0000   1.0000   1.0000   1.0000
     1.0000   1.0000   1.0000   1.0000   1.0000   1.0000   1.0000   1.0000

          k = 0.0192 0.0227 0.0565 ( 42137 PWs)   bands (ev):

   -24.0308 -24.0239 -24.0024 -24.0015 -23.7673 -23.7650 -23.7533 -23.7499
   -19.2663 -19.2634 -19.2548 -19.2485 -18.9666 -18.9660 -18.9524 -18.9510
   -18.2836 -18.2834 -17.2426 -17.2408 -17.1143 -17.1125 -16.0929 -16.0919
   -12.1316 -12.1292 -12.0519 -12.0373 -11.8918 -11.8830 -11.8127 -11.8074
    -8.9008  -8.8744  -8.2971  -8.2787  -7.6022  -7.5653  -7.4362  -7.3753
    -6.9486  -6.8620  -6.6305  -6.6085  -6.5733  -6.4873  -6.4313  -6.4041
    -6.2293  -6.2035  -6.0477  -5.9893  -5.9545  -5.8970  -5.8674  -5.8300
    -5.7787  -5.7236  -5.5205  -5.4845  -5.1599  -5.0919  -5.0008  -4.9612
    -4.4698  -4.4580  -4.4063  -4.3577  -4.2032  -4.1778  -4.0253  -4.0229
    -3.7003  -3.6586  -3.4821  -3.4739  -3.2185  -3.2135  -3.0481  -3.0300
    -0.8119  -0.7862  -0.3745  -0.3641  -0.2833  -0.2431  -0.1982  -0.1769
    -0.1211  -0.0887   0.0357   0.0765   0.1752   0.2140   0.2741   0.2899
     0.5096   0.5587   0.6125   0.6537   0.7223   0.7417   0.7678   0.8155
     0.9354   0.9676   1.0421   1.0607   1.1822   1.2338   1.3262   1.3487

     occupation numbers 
     1.0000   1.0000   1.0000   1.0000   1.0000   1.0000   1.0000   1.0000
     1.0000   1.0000   1.0000   1.0000   1.0000   1.0000   1.0000   1.0000
     1.0000   1.0000   1.0000   1.0000   1.0000   1.0000   1.0000   1.0000
     1.0000   1.0000   1.0000   1.0000   1.0000   1.0000   1.0000   1.0000
     1.0000   1.0000   1.0000   1.0000   1.0000   1.0000   1.0000   1.0000
     1.0000   1.0000   1.0000   1.0000   1.0000   1.0000   1.0000   1.0000
     1.0000   1.0000   1.0000   1.0000   1.0000   1.0000   1.0000   1.0000
     1.0000   1.0000   1.0000   1.0000   1.0000   1.0000   1.0000   1.0000
     1.0000   1.0000   1.0000   1.0000   1.0000   1.0000   1.0000   1.0000
     1.0000   1.0000   1.0000   1.0000   1.0000   1.0000   1.0000   1.0000
     1.0000   1.0000   1.0000   1.0000   1.0000   1.0000   1.0000   1.0000
     1.0000   1.0000   1.0000   1.0000   1.0000   1.0000   1.0000   1.0000
     1.0000   1.0000   1.0000   1.0000   1.0000   1.0000   1.0000   1.0000
     1.0000   1.0000   1.0000   1.0000   1.0000   1.0000   1.0000   1.0000

          k = 0.0192 0.0227-0.0479 ( 42147 PWs)   bands (ev):

   -24.0317 -24.0238 -24.0048 -23.9983 -23.7689 -23.7666 -23.7505 -23.7495
   -19.2643 -19.2631 -19.2534 -19.2524 -18.9681 -18.9678 -18.9506 -18.9494
   -18.2921 -18.2739 -17.2583 -17.2247 -17.1171 -17.1152 -16.0951 -16.0834
   -12.1411 -12.1298 -12.0785 -12.0177 -11.9072 -11.8573 -11.8137 -11.8061
    -8.9051  -8.8429  -8.2874  -8.2856  -7.5993  -7.5891  -7.4411  -7.3564
    -6.9545  -6.8724  -6.6454  -6.5986  -6.5586  -6.5286  -6.4535  -6.4241
    -6.2336  -6.2106  -6.0519  -6.0182  -5.8881  -5.8677  -5.8557  -5.8359
    -5.7747  -5.7170  -5.5150  -5.4735  -5.1749  -5.1005  -4.9818  -4.9412
    -4.5040  -4.4493  -4.3840  -4.3461  -4.2207  -4.2063  -4.0268  -3.9900
    -3.6994  -3.6616  -3.5248  -3.4618  -3.2222  -3.2034  -3.0463  -3.0375
    -0.7455  -0.7000  -0.3670  -0.3609  -0.3114  -0.2908  -0.2362  -0.2105
    -0.1578  -0.1453   0.0004   0.0595   0.1912   0.2183   0.2395   0.2827
     0.5586   0.6141   0.6564   0.6648   0.6961   0.7575   0.7934   0.8012
     0.9370   0.9710   1.0651   1.0998   1.1778   1.1999   1.3181   1.3323

     occupation numbers 
     1.0000   1.0000   1.0000   1.0000   1.0000   1.0000   1.0000   1.0000
     1.0000   1.0000   1.0000   1.0000   1.0000   1.0000   1.0000   1.0000
     1.0000   1.0000   1.0000   1.0000   1.0000   1.0000   1.0000   1.0000
     1.0000   1.0000   1.0000   1.0000   1.0000   1.0000   1.0000   1.0000
     1.0000   1.0000   1.0000   1.0000   1.0000   1.0000   1.0000   1.0000
     1.0000   1.0000   1.0000   1.0000   1.0000   1.0000   1.0000   1.0000
     1.0000   1.0000   1.0000   1.0000   1.0000   1.0000   1.0000   1.0000
     1.0000   1.0000   1.0000   1.0000   1.0000   1.0000   1.0000   1.0000
     1.0000   1.0000   1.0000   1.0000   1.0000   1.0000   1.0000   1.0000
     1.0000   1.0000   1.0000   1.0000   1.0000   1.0000   1.0000   1.0000
     1.0000   1.0000   1.0000   1.0000   1.0000   1.0000   1.0000   1.0000
     1.0000   1.0000   1.0000   1.0000   1.0000   1.0000   1.0000   1.0000
     1.0000   1.0000   1.0000   1.0000   1.0000   1.0000   1.0000   1.0000
     1.0000   1.0000   1.0000   1.0000   1.0000   1.0000   1.0000   1.0000

          k = 0.0192 0.0227-0.0131 ( 42143 PWs)   bands (ev):

   -24.0383 -24.0220 -24.0041 -23.9957 -23.7674 -23.7612 -23.7533 -23.7520
   -19.2670 -19.2636 -19.2541 -19.2472 -18.9646 -18.9645 -18.9530 -18.9529
   -18.2951 -18.2690 -17.2661 -17.2164 -17.1211 -17.1207 -16.0957 -16.0802
   -12.1366 -12.1247 -12.0967 -12.0137 -11.9141 -11.8578 -11.8014 -11.7909
    -8.9254  -8.8580  -8.3108  -8.2901  -7.5955  -7.5777  -7.4817  -7.4235
    -6.8718  -6.8530  -6.6551  -6.5652  -6.5522  -6.5165  -6.4240  -6.3730
    -6.2065  -6.1826  -6.0798  -6.0389  -5.9300  -5.8907  -5.8084  -5.7953
    -5.7076  -5.6748  -5.5596  -5.5550  -5.1524  -5.1066  -4.9843  -4.9538
    -4.5251  -4.5197  -4.4631  -4.4322  -4.2797  -4.1888  -3.9136  -3.8757
    -3.7287  -3.6262  -3.5543  -3.5072  -3.1984  -3.1625  -3.0554  -3.0543
    -0.7988  -0.7812  -0.3501  -0.3451  -0.2790  -0.2327  -0.1723  -0.1560
    -0.1371  -0.1025   0.0176   0.0674   0.1338   0.1935   0.2709   0.3217
     0.5212   0.5548   0.5833   0.6624   0.7002   0.7406   0.8288   0.8356
     0.8888   0.9486   1.0422   1.0874   1.1762   1.2640   1.3062   1.3248

     occupation numbers 
     1.0000   1.0000   1.0000   1.0000   1.0000   1.0000   1.0000   1.0000
     1.0000   1.0000   1.0000   1.0000   1.0000   1.0000   1.0000   1.0000
     1.0000   1.0000   1.0000   1.0000   1.0000   1.0000   1.0000   1.0000
     1.0000   1.0000   1.0000   1.0000   1.0000   1.0000   1.0000   1.0000
     1.0000   1.0000   1.0000   1.0000   1.0000   1.0000   1.0000   1.0000
     1.0000   1.0000   1.0000   1.0000   1.0000   1.0000   1.0000   1.0000
     1.0000   1.0000   1.0000   1.0000   1.0000   1.0000   1.0000   1.0000
     1.0000   1.0000   1.0000   1.0000   1.0000   1.0000   1.0000   1.0000
     1.0000   1.0000   1.0000   1.0000   1.0000   1.0000   1.0000   1.0000
     1.0000   1.0000   1.0000   1.0000   1.0000   1.0000   1.0000   1.0000
     1.0000   1.0000   1.0000   1.0000   1.0000   1.0000   1.0000   1.0000
     1.0000   1.0000   1.0000   1.0000   1.0000   1.0000   1.0000   1.0000
     1.0000   1.0000   1.0000   1.0000   1.0000   1.0000   1.0000   1.0000
     1.0000   1.0000   1.0000   1.0000   1.0000   1.0000   1.0000   1.0000

          k = 0.0575 0.0227 0.0303 ( 42089 PWs)   bands (ev):

   -24.0282 -24.0208 -24.0032 -24.0025 -23.7640 -23.7621 -23.7580 -23.7541
   -19.2660 -19.2636 -19.2556 -19.2494 -18.9637 -18.9629 -18.9553 -18.9541
   -18.2895 -18.2894 -17.2396 -17.2380 -17.1198 -17.1183 -16.0934 -16.0921
   -12.1209 -12.1196 -12.0189 -12.0051 -11.8674 -11.8542 -11.8146 -11.8037
    -8.9201  -8.8955  -8.3145  -8.2982  -7.5799  -7.5611  -7.5303  -7.4818
    -7.0322  -6.9865  -6.6849  -6.5929  -6.5124  -6.4803  -6.3374  -6.2868
    -6.2613  -6.2081  -6.0738  -6.0218  -5.9482  -5.9057  -5.8360  -5.8067
    -5.7144  -5.6853  -5.5906  -5.5753  -5.1862  -5.1033  -4.9760  -4.9694
    -4.5081  -4.4880  -4.4337  -4.3997  -4.0677  -4.0290  -3.8560  -3.8231
    -3.7575  -3.6720  -3.6027  -3.5956  -3.1940  -3.1910  -3.0615  -3.0404
    -0.8017  -0.7904  -0.3432  -0.3386  -0.2742  -0.2531  -0.1662  -0.1347
    -0.1251  -0.0967   0.0581   0.0778   0.1429   0.1621   0.2845   0.3047
     0.5414   0.5501   0.6024   0.6450   0.7273   0.7385   0.8072   0.8379
     0.8803   0.9299   0.9616   0.9974   1.2394   1.2664   1.3083   1.3361

     occupation numbers 
     1.0000   1.0000   1.0000   1.0000   1.0000   1.0000   1.0000   1.0000
     1.0000   1.0000   1.0000   1.0000   1.0000   1.0000   1.0000   1.0000
     1.0000   1.0000   1.0000   1.0000   1.0000   1.0000   1.0000   1.0000
     1.0000   1.0000   1.0000   1.0000   1.0000   1.0000   1.0000   1.0000
     1.0000   1.0000   1.0000   1.0000   1.0000   1.0000   1.0000   1.0000
     1.0000   1.0000   1.0000   1.0000   1.0000   1.0000   1.0000   1.0000
     1.0000   1.0000   1.0000   1.0000   1.0000   1.0000   1.0000   1.0000
     1.0000   1.0000   1.0000   1.0000   1.0000   1.0000   1.0000   1.0000
     1.0000   1.0000   1.0000   1.0000   1.0000   1.0000   1.0000   1.0000
     1.0000   1.0000   1.0000   1.0000   1.0000   1.0000   1.0000   1.0000
     1.0000   1.0000   1.0000   1.0000   1.0000   1.0000   1.0000   1.0000
     1.0000   1.0000   1.0000   1.0000   1.0000   1.0000   1.0000   1.0000
     1.0000   1.0000   1.0000   1.0000   1.0000   1.0000   1.0000   1.0000
     1.0000   1.0000   1.0000   1.0000   1.0000   1.0000   1.0000   1.0000

          k = 0.0575 0.0227 0.0651 ( 42129 PWs)   bands (ev):

   -24.0249 -24.0227 -24.0060 -24.0000 -23.7642 -23.7639 -23.7592 -23.7521
   -19.2665 -19.2648 -19.2559 -19.2486 -18.9729 -18.9714 -18.9479 -18.9450
   -18.3010 -18.2832 -17.2541 -17.2221 -17.1103 -17.1074 -16.1065 -16.0928
   -12.1345 -12.1291 -12.0421 -11.9859 -11.8609 -11.8301 -11.8182 -11.8065
    -8.9535  -8.8627  -8.3070  -8.2809  -7.5783  -7.5550  -7.4986  -7.3849
    -7.1128  -6.9618  -6.6762  -6.5568  -6.5329  -6.5020  -6.4415  -6.3598
    -6.3145  -6.2399  -6.0333  -6.0197  -5.9700  -5.9469  -5.8788  -5.8228
    -5.6982  -5.6606  -5.5374  -5.4826  -5.1965  -5.0705  -5.0310  -4.9818
    -4.4489  -4.4238  -4.3795  -4.3307  -4.0299  -4.0139  -3.9620  -3.9329
    -3.7719  -3.7033  -3.5928  -3.5238  -3.2372  -3.2122  -3.0536  -3.0132
    -0.8728  -0.8402  -0.3486  -0.3235  -0.2728  -0.2546  -0.1578  -0.1327
    -0.0728  -0.0496   0.1232   0.1448   0.1694   0.1905   0.2602   0.3355
     0.4447   0.4608   0.5441   0.6357   0.6982   0.7456   0.7899   0.8217
     0.9083   0.9531   0.9781   1.0076   1.2533   1.2837   1.3117   1.3483

     occupation numbers 
     1.0000   1.0000   1.0000   1.0000   1.0000   1.0000   1.0000   1.0000
     1.0000   1.0000   1.0000   1.0000   1.0000   1.0000   1.0000   1.0000
     1.0000   1.0000   1.0000   1.0000   1.0000   1.0000   1.0000   1.0000
     1.0000   1.0000   1.0000   1.0000   1.0000   1.0000   1.0000   1.0000
     1.0000   1.0000   1.0000   1.0000   1.0000   1.0000   1.0000   1.0000
     1.0000   1.0000   1.0000   1.0000   1.0000   1.0000   1.0000   1.0000
     1.0000   1.0000   1.0000   1.0000   1.0000   1.0000   1.0000   1.0000
     1.0000   1.0000   1.0000   1.0000   1.0000   1.0000   1.0000   1.0000
     1.0000   1.0000   1.0000   1.0000   1.0000   1.0000   1.0000   1.0000
     1.0000   1.0000   1.0000   1.0000   1.0000   1.0000   1.0000   1.0000
     1.0000   1.0000   1.0000   1.0000   1.0000   1.0000   1.0000   1.0000
     1.0000   1.0000   1.0000   1.0000   1.0000   1.0000   1.0000   1.0000
     1.0000   1.0000   1.0000   1.0000   1.0000   1.0000   1.0000   1.0000
     1.0000   1.0000   1.0000   1.0000   1.0000   1.0000   1.0000   1.0000

          k = 0.0575 0.0227-0.0393 ( 42140 PWs)   bands (ev):

   -24.0264 -24.0222 -24.0068 -23.9981 -23.7671 -23.7661 -23.7555 -23.7507
   -19.2648 -19.2638 -19.2564 -19.2510 -18.9739 -18.9724 -18.9468 -18.9440
   -18.3043 -18.2788 -17.2612 -17.2143 -17.1132 -17.1105 -16.1055 -16.0874
   -12.1390 -12.1317 -12.0611 -11.9762 -11.8689 -11.8244 -11.8119 -11.8009
    -8.9472  -8.8419  -8.3025  -8.2823  -7.5804  -7.5527  -7.5170  -7.3759
    -7.1271  -6.9612  -6.6690  -6.5773  -6.5420  -6.5199  -6.4691  -6.3896
    -6.3016  -6.2342  -6.0307  -5.9754  -5.9607  -5.9385  -5.8778  -5.8355
    -5.6784  -5.6556  -5.5381  -5.4791  -5.1983  -5.1007  -5.0004  -4.9609
    -4.4598  -4.4275  -4.3609  -4.3331  -4.0610  -4.0568  -3.9109  -3.9066
    -3.7358  -3.7213  -3.6371  -3.5330  -3.2392  -3.2076  -3.0537  -3.0186
    -0.8282  -0.7787  -0.3433  -0.3079  -0.2866  -0.2606  -0.1668  -0.1505
    -0.1343  -0.0954   0.0616   0.1184   0.1667   0.1988   0.2158   0.2510
     0.5140   0.5628   0.6129   0.6197   0.7190   0.7292   0.8005   0.8190
     0.9110   0.9411   1.0038   1.0507   1.2669   1.2833   1.2885   1.3144

     occupation numbers 
     1.0000   1.0000   1.0000   1.0000   1.0000   1.0000   1.0000   1.0000
     1.0000   1.0000   1.0000   1.0000   1.0000   1.0000   1.0000   1.0000
     1.0000   1.0000   1.0000   1.0000   1.0000   1.0000   1.0000   1.0000
     1.0000   1.0000   1.0000   1.0000   1.0000   1.0000   1.0000   1.0000
     1.0000   1.0000   1.0000   1.0000   1.0000   1.0000   1.0000   1.0000
     1.0000   1.0000   1.0000   1.0000   1.0000   1.0000   1.0000   1.0000
     1.0000   1.0000   1.0000   1.0000   1.0000   1.0000   1.0000   1.0000
     1.0000   1.0000   1.0000   1.0000   1.0000   1.0000   1.0000   1.0000
     1.0000   1.0000   1.0000   1.0000   1.0000   1.0000   1.0000   1.0000
     1.0000   1.0000   1.0000   1.0000   1.0000   1.0000   1.0000   1.0000
     1.0000   1.0000   1.0000   1.0000   1.0000   1.0000   1.0000   1.0000
     1.0000   1.0000   1.0000   1.0000   1.0000   1.0000   1.0000   1.0000
     1.0000   1.0000   1.0000   1.0000   1.0000   1.0000   1.0000   1.0000
     1.0000   1.0000   1.0000   1.0000   1.0000   1.0000   1.0000   1.0000

          k = 0.0575 0.0227-0.0045 ( 42117 PWs)   bands (ev):

   -24.0290 -24.0210 -24.0055 -23.9991 -23.7670 -23.7644 -23.7541 -23.7527
   -19.2641 -19.2629 -19.2544 -19.2535 -18.9661 -18.9655 -18.9526 -18.9515
   -18.2980 -18.2798 -17.2557 -17.2211 -17.1223 -17.1218 -16.0956 -16.0837
   -12.1265 -12.1211 -12.0515 -11.9818 -11.8804 -11.8372 -11.8077 -11.8047
    -8.9244  -8.8635  -8.3071  -8.3030  -7.5809  -7.5734  -7.5442  -7.4679
    -7.0440  -6.9782  -6.6570  -6.6375  -6.5143  -6.5056  -6.3797  -6.3561
    -6.2155  -6.2087  -6.0359  -6.0075  -5.9043  -5.8770  -5.8470  -5.8309
    -5.7034  -5.6871  -5.5863  -5.5775  -5.1627  -5.1451  -4.9503  -4.9481
    -4.5138  -4.4873  -4.4342  -4.4002  -4.0801  -4.0469  -3.8258  -3.8219
    -3.7185  -3.6769  -3.6629  -3.5971  -3.2065  -3.1797  -3.0597  -3.0466
    -0.7444  -0.7075  -0.3445  -0.3340  -0.2752  -0.2604  -0.2345  -0.2263
    -0.1413  -0.1075   0.0169   0.0646   0.1338   0.1660   0.2617   0.2928
     0.5367   0.5860   0.6511   0.6953   0.7157   0.7615   0.8235   0.8384
     0.8879   0.9051   0.9805   1.0449   1.2546   1.2617   1.2873   1.2986

     occupation numbers 
     1.0000   1.0000   1.0000   1.0000   1.0000   1.0000   1.0000   1.0000
     1.0000   1.0000   1.0000   1.0000   1.0000   1.0000   1.0000   1.0000
     1.0000   1.0000   1.0000   1.0000   1.0000   1.0000   1.0000   1.0000
     1.0000   1.0000   1.0000   1.0000   1.0000   1.0000   1.0000   1.0000
     1.0000   1.0000   1.0000   1.0000   1.0000   1.0000   1.0000   1.0000
     1.0000   1.0000   1.0000   1.0000   1.0000   1.0000   1.0000   1.0000
     1.0000   1.0000   1.0000   1.0000   1.0000   1.0000   1.0000   1.0000
     1.0000   1.0000   1.0000   1.0000   1.0000   1.0000   1.0000   1.0000
     1.0000   1.0000   1.0000   1.0000   1.0000   1.0000   1.0000   1.0000
     1.0000   1.0000   1.0000   1.0000   1.0000   1.0000   1.0000   1.0000
     1.0000   1.0000   1.0000   1.0000   1.0000   1.0000   1.0000   1.0000
     1.0000   1.0000   1.0000   1.0000   1.0000   1.0000   1.0000   1.0000
     1.0000   1.0000   1.0000   1.0000   1.0000   1.0000   1.0000   1.0000
     1.0000   1.0000   1.0000   1.0000   1.0000   1.0000   1.0000   1.0000

          k =-0.0192 0.0227-0.0217 ( 42139 PWs)   bands (ev):

   -24.0378 -24.0215 -24.0036 -23.9972 -23.7647 -23.7580 -23.7569 -23.7543
   -19.2680 -19.2648 -19.2537 -19.2453 -18.9612 -18.9609 -18.9570 -18.9561
   -18.2919 -18.2733 -17.2598 -17.2233 -17.1186 -17.1175 -16.0962 -16.0860
   -12.1239 -12.1217 -12.0922 -12.0132 -11.9166 -11.8676 -11.8030 -11.7910
    -8.9199  -8.8906  -8.3154  -8.2879  -7.5905  -7.5585  -7.4627  -7.4564
    -6.9018  -6.8215  -6.6399  -6.5664  -6.5549  -6.4856  -6.3907  -6.3425
    -6.1993  -6.1729  -6.1098  -6.0291  -5.9688  -5.9073  -5.8290  -5.7977
    -5.7014  -5.6821  -5.5847  -5.5461  -5.1643  -5.0646  -5.0071  -4.9880
    -4.5264  -4.5119  -4.4627  -4.4296  -4.2682  -4.1806  -3.9119  -3.9012
    -3.7167  -3.6197  -3.5411  -3.5056  -3.1929  -3.1675  -3.0588  -3.0475
    -0.8480  -0.8441  -0.3599  -0.3564  -0.2760  -0.2224  -0.1683  -0.1582
    -0.0632  -0.0456   0.1217   0.1444   0.1655   0.1825   0.3202   0.3397
     0.3822   0.4061   0.5994   0.6386   0.7148   0.7347   0.8113   0.8501
     0.8748   0.9637   1.0141   1.0584   1.1817   1.2806   1.3194   1.3397

     occupation numbers 
     1.0000   1.0000   1.0000   1.0000   1.0000   1.0000   1.0000   1.0000
     1.0000   1.0000   1.0000   1.0000   1.0000   1.0000   1.0000   1.0000
     1.0000   1.0000   1.0000   1.0000   1.0000   1.0000   1.0000   1.0000
     1.0000   1.0000   1.0000   1.0000   1.0000   1.0000   1.0000   1.0000
     1.0000   1.0000   1.0000   1.0000   1.0000   1.0000   1.0000   1.0000
     1.0000   1.0000   1.0000   1.0000   1.0000   1.0000   1.0000   1.0000
     1.0000   1.0000   1.0000   1.0000   1.0000   1.0000   1.0000   1.0000
     1.0000   1.0000   1.0000   1.0000   1.0000   1.0000   1.0000   1.0000
     1.0000   1.0000   1.0000   1.0000   1.0000   1.0000   1.0000   1.0000
     1.0000   1.0000   1.0000   1.0000   1.0000   1.0000   1.0000   1.0000
     1.0000   1.0000   1.0000   1.0000   1.0000   1.0000   1.0000   1.0000
     1.0000   1.0000   1.0000   1.0000   1.0000   1.0000   1.0000   1.0000
     1.0000   1.0000   1.0000   1.0000   1.0000   1.0000   1.0000   1.0000
     1.0000   1.0000   1.0000   1.0000   1.0000   1.0000   1.0000   1.0000

          k =-0.0192 0.0227-0.0565 ( 42137 PWs)   bands (ev):

   -24.0308 -24.0239 -24.0024 -24.0015 -23.7673 -23.7650 -23.7533 -23.7499
   -19.2663 -19.2634 -19.2548 -19.2485 -18.9666 -18.9660 -18.9524 -18.9510
   -18.2836 -18.2834 -17.2426 -17.2408 -17.1143 -17.1125 -16.0929 -16.0919
   -12.1316 -12.1292 -12.0519 -12.0373 -11.8918 -11.8830 -11.8127 -11.8074
    -8.9008  -8.8744  -8.2971  -8.2787  -7.6022  -7.5653  -7.4362  -7.3753
    -6.9486  -6.8620  -6.6305  -6.6086  -6.5733  -6.4873  -6.4313  -6.4041
    -6.2293  -6.2035  -6.0477  -5.9893  -5.9545  -5.8970  -5.8674  -5.8300
    -5.7788  -5.7236  -5.5205  -5.4845  -5.1599  -5.0919  -5.0008  -4.9612
    -4.4698  -4.4580  -4.4063  -4.3577  -4.2032  -4.1778  -4.0253  -4.0229
    -3.7003  -3.6586  -3.4821  -3.4739  -3.2186  -3.2135  -3.0481  -3.0300
    -0.8119  -0.7862  -0.3745  -0.3641  -0.2833  -0.2431  -0.1982  -0.1769
    -0.1211  -0.0887   0.0357   0.0765   0.1752   0.2140   0.2741   0.2899
     0.5096   0.5587   0.6125   0.6537   0.7223   0.7417   0.7678   0.8155
     0.9354   0.9675   1.0421   1.0607   1.1822   1.2338   1.3262   1.3487

     occupation numbers 
     1.0000   1.0000   1.0000   1.0000   1.0000   1.0000   1.0000   1.0000
     1.0000   1.0000   1.0000   1.0000   1.0000   1.0000   1.0000   1.0000
     1.0000   1.0000   1.0000   1.0000   1.0000   1.0000   1.0000   1.0000
     1.0000   1.0000   1.0000   1.0000   1.0000   1.0000   1.0000   1.0000
     1.0000   1.0000   1.0000   1.0000   1.0000   1.0000   1.0000   1.0000
     1.0000   1.0000   1.0000   1.0000   1.0000   1.0000   1.0000   1.0000
     1.0000   1.0000   1.0000   1.0000   1.0000   1.0000   1.0000   1.0000
     1.0000   1.0000   1.0000   1.0000   1.0000   1.0000   1.0000   1.0000
     1.0000   1.0000   1.0000   1.0000   1.0000   1.0000   1.0000   1.0000
     1.0000   1.0000   1.0000   1.0000   1.0000   1.0000   1.0000   1.0000
     1.0000   1.0000   1.0000   1.0000   1.0000   1.0000   1.0000   1.0000
     1.0000   1.0000   1.0000   1.0000   1.0000   1.0000   1.0000   1.0000
     1.0000   1.0000   1.0000   1.0000   1.0000   1.0000   1.0000   1.0000
     1.0000   1.0000   1.0000   1.0000   1.0000   1.0000   1.0000   1.0000

          k =-0.0192 0.0227 0.0479 ( 42147 PWs)   bands (ev):

   -24.0317 -24.0238 -24.0048 -23.9983 -23.7689 -23.7666 -23.7505 -23.7495
   -19.2643 -19.2631 -19.2534 -19.2524 -18.9681 -18.9678 -18.9506 -18.9494
   -18.2921 -18.2739 -17.2583 -17.2247 -17.1172 -17.1152 -16.0951 -16.0834
   -12.1411 -12.1298 -12.0785 -12.0177 -11.9072 -11.8573 -11.8137 -11.8061
    -8.9051  -8.8429  -8.2874  -8.2856  -7.5993  -7.5891  -7.4411  -7.3564
    -6.9545  -6.8723  -6.6454  -6.5986  -6.5586  -6.5285  -6.4535  -6.4241
    -6.2336  -6.2106  -6.0519  -6.0182  -5.8881  -5.8677  -5.8557  -5.8359
    -5.7746  -5.7170  -5.5150  -5.4734  -5.1749  -5.1005  -4.9818  -4.9412
    -4.5040  -4.4493  -4.3840  -4.3461  -4.2207  -4.2063  -4.0268  -3.9900
    -3.6994  -3.6616  -3.5248  -3.4618  -3.2222  -3.2034  -3.0463  -3.0375
    -0.7455  -0.7000  -0.3670  -0.3609  -0.3114  -0.2908  -0.2362  -0.2105
    -0.1578  -0.1453   0.0004   0.0595   0.1912   0.2183   0.2395   0.2827
     0.5586   0.6141   0.6564   0.6648   0.6961   0.7575   0.7934   0.8012
     0.9370   0.9710   1.0651   1.0998   1.1778   1.1999   1.3181   1.3323

     occupation numbers 
     1.0000   1.0000   1.0000   1.0000   1.0000   1.0000   1.0000   1.0000
     1.0000   1.0000   1.0000   1.0000   1.0000   1.0000   1.0000   1.0000
     1.0000   1.0000   1.0000   1.0000   1.0000   1.0000   1.0000   1.0000
     1.0000   1.0000   1.0000   1.0000   1.0000   1.0000   1.0000   1.0000
     1.0000   1.0000   1.0000   1.0000   1.0000   1.0000   1.0000   1.0000
     1.0000   1.0000   1.0000   1.0000   1.0000   1.0000   1.0000   1.0000
     1.0000   1.0000   1.0000   1.0000   1.0000   1.0000   1.0000   1.0000
     1.0000   1.0000   1.0000   1.0000   1.0000   1.0000   1.0000   1.0000
     1.0000   1.0000   1.0000   1.0000   1.0000   1.0000   1.0000   1.0000
     1.0000   1.0000   1.0000   1.0000   1.0000   1.0000   1.0000   1.0000
     1.0000   1.0000   1.0000   1.0000   1.0000   1.0000   1.0000   1.0000
     1.0000   1.0000   1.0000   1.0000   1.0000   1.0000   1.0000   1.0000
     1.0000   1.0000   1.0000   1.0000   1.0000   1.0000   1.0000   1.0000
     1.0000   1.0000   1.0000   1.0000   1.0000   1.0000   1.0000   1.0000

          k =-0.0192 0.0227 0.0131 ( 42143 PWs)   bands (ev):

   -24.0383 -24.0220 -24.0041 -23.9957 -23.7674 -23.7612 -23.7533 -23.7520
   -19.2670 -19.2636 -19.2541 -19.2472 -18.9646 -18.9645 -18.9530 -18.9529
   -18.2951 -18.2690 -17.2661 -17.2164 -17.1211 -17.1207 -16.0957 -16.0802
   -12.1366 -12.1247 -12.0967 -12.0137 -11.9141 -11.8578 -11.8014 -11.7909
    -8.9254  -8.8580  -8.3108  -8.2901  -7.5955  -7.5777  -7.4817  -7.4235
    -6.8718  -6.8530  -6.6551  -6.5652  -6.5522  -6.5165  -6.4240  -6.3730
    -6.2065  -6.1826  -6.0798  -6.0389  -5.9300  -5.8907  -5.8084  -5.7953
    -5.7076  -5.6748  -5.5596  -5.5550  -5.1524  -5.1066  -4.9843  -4.9538
    -4.5251  -4.5197  -4.4631  -4.4322  -4.2797  -4.1888  -3.9136  -3.8757
    -3.7287  -3.6262  -3.5543  -3.5072  -3.1984  -3.1625  -3.0554  -3.0543
    -0.7988  -0.7812  -0.3501  -0.3451  -0.2790  -0.2327  -0.1723  -0.1560
    -0.1371  -0.1025   0.0175   0.0674   0.1338   0.1935   0.2709   0.3217
     0.5211   0.5548   0.5833   0.6625   0.7002   0.7406   0.8288   0.8356
     0.8888   0.9486   1.0422   1.0874   1.1761   1.2640   1.3062   1.3248

     occupation numbers 
     1.0000   1.0000   1.0000   1.0000   1.0000   1.0000   1.0000   1.0000
     1.0000   1.0000   1.0000   1.0000   1.0000   1.0000   1.0000   1.0000
     1.0000   1.0000   1.0000   1.0000   1.0000   1.0000   1.0000   1.0000
     1.0000   1.0000   1.0000   1.0000   1.0000   1.0000   1.0000   1.0000
     1.0000   1.0000   1.0000   1.0000   1.0000   1.0000   1.0000   1.0000
     1.0000   1.0000   1.0000   1.0000   1.0000   1.0000   1.0000   1.0000
     1.0000   1.0000   1.0000   1.0000   1.0000   1.0000   1.0000   1.0000
     1.0000   1.0000   1.0000   1.0000   1.0000   1.0000   1.0000   1.0000
     1.0000   1.0000   1.0000   1.0000   1.0000   1.0000   1.0000   1.0000
     1.0000   1.0000   1.0000   1.0000   1.0000   1.0000   1.0000   1.0000
     1.0000   1.0000   1.0000   1.0000   1.0000   1.0000   1.0000   1.0000
     1.0000   1.0000   1.0000   1.0000   1.0000   1.0000   1.0000   1.0000
     1.0000   1.0000   1.0000   1.0000   1.0000   1.0000   1.0000   1.0000
     1.0000   1.0000   1.0000   1.0000   1.0000   1.0000   1.0000   1.0000

          k =-0.0575 0.0227-0.0303 ( 42089 PWs)   bands (ev):

   -24.0282 -24.0208 -24.0032 -24.0025 -23.7640 -23.7621 -23.7580 -23.7541
   -19.2660 -19.2636 -19.2556 -19.2494 -18.9637 -18.9629 -18.9553 -18.9541
   -18.2895 -18.2894 -17.2396 -17.2380 -17.1198 -17.1183 -16.0934 -16.0921
   -12.1209 -12.1196 -12.0189 -12.0051 -11.8674 -11.8542 -11.8146 -11.8037
    -8.9201  -8.8955  -8.3145  -8.2982  -7.5799  -7.5611  -7.5303  -7.4818
    -7.0322  -6.9865  -6.6849  -6.5928  -6.5124  -6.4803  -6.3374  -6.2868
    -6.2613  -6.2081  -6.0738  -6.0218  -5.9482  -5.9057  -5.8360  -5.8067
    -5.7144  -5.6853  -5.5906  -5.5753  -5.1863  -5.1033  -4.9760  -4.9695
    -4.5081  -4.4880  -4.4337  -4.3997  -4.0677  -4.0290  -3.8560  -3.8231
    -3.7575  -3.6720  -3.6027  -3.5956  -3.1940  -3.1910  -3.0615  -3.0404
    -0.8017  -0.7904  -0.3432  -0.3386  -0.2742  -0.2531  -0.1662  -0.1348
    -0.1251  -0.0967   0.0581   0.0777   0.1429   0.1621   0.2845   0.3047
     0.5413   0.5501   0.6024   0.6450   0.7273   0.7385   0.8072   0.8379
     0.8803   0.9299   0.9616   0.9974   1.2394   1.2664   1.3083   1.3361

     occupation numbers 
     1.0000   1.0000   1.0000   1.0000   1.0000   1.0000   1.0000   1.0000
     1.0000   1.0000   1.0000   1.0000   1.0000   1.0000   1.0000   1.0000
     1.0000   1.0000   1.0000   1.0000   1.0000   1.0000   1.0000   1.0000
     1.0000   1.0000   1.0000   1.0000   1.0000   1.0000   1.0000   1.0000
     1.0000   1.0000   1.0000   1.0000   1.0000   1.0000   1.0000   1.0000
     1.0000   1.0000   1.0000   1.0000   1.0000   1.0000   1.0000   1.0000
     1.0000   1.0000   1.0000   1.0000   1.0000   1.0000   1.0000   1.0000
     1.0000   1.0000   1.0000   1.0000   1.0000   1.0000   1.0000   1.0000
     1.0000   1.0000   1.0000   1.0000   1.0000   1.0000   1.0000   1.0000
     1.0000   1.0000   1.0000   1.0000   1.0000   1.0000   1.0000   1.0000
     1.0000   1.0000   1.0000   1.0000   1.0000   1.0000   1.0000   1.0000
     1.0000   1.0000   1.0000   1.0000   1.0000   1.0000   1.0000   1.0000
     1.0000   1.0000   1.0000   1.0000   1.0000   1.0000   1.0000   1.0000
     1.0000   1.0000   1.0000   1.0000   1.0000   1.0000   1.0000   1.0000

          k =-0.0575 0.0227-0.0651 ( 42129 PWs)   bands (ev):

   -24.0249 -24.0227 -24.0060 -24.0000 -23.7642 -23.7639 -23.7592 -23.7521
   -19.2665 -19.2648 -19.2559 -19.2486 -18.9729 -18.9714 -18.9479 -18.9450
   -18.3010 -18.2832 -17.2541 -17.2221 -17.1103 -17.1074 -16.1065 -16.0928
   -12.1345 -12.1291 -12.0421 -11.9859 -11.8609 -11.8301 -11.8182 -11.8065
    -8.9535  -8.8627  -8.3070  -8.2809  -7.5783  -7.5550  -7.4986  -7.3849
    -7.1128  -6.9618  -6.6762  -6.5568  -6.5329  -6.5020  -6.4415  -6.3598
    -6.3145  -6.2399  -6.0333  -6.0197  -5.9700  -5.9469  -5.8788  -5.8228
    -5.6982  -5.6606  -5.5375  -5.4826  -5.1965  -5.0705  -5.0310  -4.9818
    -4.4488  -4.4238  -4.3795  -4.3307  -4.0299  -4.0139  -3.9620  -3.9329
    -3.7719  -3.7033  -3.5928  -3.5238  -3.2372  -3.2122  -3.0536  -3.0132
    -0.8728  -0.8402  -0.3485  -0.3235  -0.2728  -0.2546  -0.1578  -0.1327
    -0.0728  -0.0496   0.1232   0.1448   0.1694   0.1905   0.2602   0.3355
     0.4447   0.4608   0.5441   0.6357   0.6982   0.7456   0.7899   0.8217
     0.9083   0.9531   0.9781   1.0076   1.2533   1.2837   1.3117   1.3483

     occupation numbers 
     1.0000   1.0000   1.0000   1.0000   1.0000   1.0000   1.0000   1.0000
     1.0000   1.0000   1.0000   1.0000   1.0000   1.0000   1.0000   1.0000
     1.0000   1.0000   1.0000   1.0000   1.0000   1.0000   1.0000   1.0000
     1.0000   1.0000   1.0000   1.0000   1.0000   1.0000   1.0000   1.0000
     1.0000   1.0000   1.0000   1.0000   1.0000   1.0000   1.0000   1.0000
     1.0000   1.0000   1.0000   1.0000   1.0000   1.0000   1.0000   1.0000
     1.0000   1.0000   1.0000   1.0000   1.0000   1.0000   1.0000   1.0000
     1.0000   1.0000   1.0000   1.0000   1.0000   1.0000   1.0000   1.0000
     1.0000   1.0000   1.0000   1.0000   1.0000   1.0000   1.0000   1.0000
     1.0000   1.0000   1.0000   1.0000   1.0000   1.0000   1.0000   1.0000
     1.0000   1.0000   1.0000   1.0000   1.0000   1.0000   1.0000   1.0000
     1.0000   1.0000   1.0000   1.0000   1.0000   1.0000   1.0000   1.0000
     1.0000   1.0000   1.0000   1.0000   1.0000   1.0000   1.0000   1.0000
     1.0000   1.0000   1.0000   1.0000   1.0000   1.0000   1.0000   1.0000

          k =-0.0575 0.0227 0.0393 ( 42140 PWs)   bands (ev):

   -24.0264 -24.0222 -24.0068 -23.9981 -23.7671 -23.7661 -23.7555 -23.7507
   -19.2648 -19.2638 -19.2564 -19.2510 -18.9739 -18.9724 -18.9468 -18.9440
   -18.3043 -18.2788 -17.2612 -17.2143 -17.1132 -17.1105 -16.1055 -16.0874
   -12.1390 -12.1317 -12.0611 -11.9762 -11.8689 -11.8244 -11.8119 -11.8009
    -8.9472  -8.8419  -8.3025  -8.2823  -7.5804  -7.5527  -7.5170  -7.3759
    -7.1271  -6.9612  -6.6691  -6.5773  -6.5420  -6.5199  -6.4691  -6.3896
    -6.3016  -6.2342  -6.0307  -5.9754  -5.9607  -5.9385  -5.8778  -5.8355
    -5.6784  -5.6556  -5.5381  -5.4791  -5.1983  -5.1007  -5.0004  -4.9609
    -4.4598  -4.4275  -4.3609  -4.3331  -4.0610  -4.0567  -3.9109  -3.9066
    -3.7358  -3.7213  -3.6371  -3.5330  -3.2392  -3.2076  -3.0537  -3.0186
    -0.8282  -0.7787  -0.3433  -0.3079  -0.2866  -0.2606  -0.1668  -0.1504
    -0.1343  -0.0954   0.0616   0.1184   0.1667   0.1988   0.2158   0.2510
     0.5140   0.5628   0.6129   0.6197   0.7190   0.7292   0.8005   0.8190
     0.9110   0.9411   1.0038   1.0507   1.2669   1.2833   1.2885   1.3144

     occupation numbers 
     1.0000   1.0000   1.0000   1.0000   1.0000   1.0000   1.0000   1.0000
     1.0000   1.0000   1.0000   1.0000   1.0000   1.0000   1.0000   1.0000
     1.0000   1.0000   1.0000   1.0000   1.0000   1.0000   1.0000   1.0000
     1.0000   1.0000   1.0000   1.0000   1.0000   1.0000   1.0000   1.0000
     1.0000   1.0000   1.0000   1.0000   1.0000   1.0000   1.0000   1.0000
     1.0000   1.0000   1.0000   1.0000   1.0000   1.0000   1.0000   1.0000
     1.0000   1.0000   1.0000   1.0000   1.0000   1.0000   1.0000   1.0000
     1.0000   1.0000   1.0000   1.0000   1.0000   1.0000   1.0000   1.0000
     1.0000   1.0000   1.0000   1.0000   1.0000   1.0000   1.0000   1.0000
     1.0000   1.0000   1.0000   1.0000   1.0000   1.0000   1.0000   1.0000
     1.0000   1.0000   1.0000   1.0000   1.0000   1.0000   1.0000   1.0000
     1.0000   1.0000   1.0000   1.0000   1.0000   1.0000   1.0000   1.0000
     1.0000   1.0000   1.0000   1.0000   1.0000   1.0000   1.0000   1.0000
     1.0000   1.0000   1.0000   1.0000   1.0000   1.0000   1.0000   1.0000

          k =-0.0575 0.0227 0.0045 ( 42117 PWs)   bands (ev):

   -24.0290 -24.0210 -24.0055 -23.9991 -23.7670 -23.7644 -23.7541 -23.7527
   -19.2641 -19.2628 -19.2544 -19.2535 -18.9661 -18.9655 -18.9526 -18.9515
   -18.2980 -18.2798 -17.2557 -17.2211 -17.1223 -17.1218 -16.0956 -16.0837
   -12.1265 -12.1211 -12.0515 -11.9818 -11.8804 -11.8372 -11.8077 -11.8047
    -8.9244  -8.8635  -8.3071  -8.3030  -7.5809  -7.5734  -7.5442  -7.4679
    -7.0440  -6.9782  -6.6570  -6.6375  -6.5143  -6.5056  -6.3797  -6.3561
    -6.2155  -6.2087  -6.0359  -6.0075  -5.9043  -5.8770  -5.8470  -5.8309
    -5.7034  -5.6871  -5.5863  -5.5775  -5.1627  -5.1451  -4.9503  -4.9481
    -4.5138  -4.4873  -4.4342  -4.4002  -4.0801  -4.0469  -3.8258  -3.8219
    -3.7185  -3.6769  -3.6629  -3.5971  -3.2065  -3.1797  -3.0597  -3.0466
    -0.7444  -0.7075  -0.3445  -0.3340  -0.2752  -0.2604  -0.2345  -0.2263
    -0.1413  -0.1075   0.0169   0.0646   0.1338   0.1660   0.2617   0.2928
     0.5367   0.5860   0.6511   0.6953   0.7157   0.7615   0.8235   0.8384
     0.8879   0.9051   0.9805   1.0449   1.2546   1.2617   1.2873   1.2986

     occupation numbers 
     1.0000   1.0000   1.0000   1.0000   1.0000   1.0000   1.0000   1.0000
     1.0000   1.0000   1.0000   1.0000   1.0000   1.0000   1.0000   1.0000
     1.0000   1.0000   1.0000   1.0000   1.0000   1.0000   1.0000   1.0000
     1.0000   1.0000   1.0000   1.0000   1.0000   1.0000   1.0000   1.0000
     1.0000   1.0000   1.0000   1.0000   1.0000   1.0000   1.0000   1.0000
     1.0000   1.0000   1.0000   1.0000   1.0000   1.0000   1.0000   1.0000
     1.0000   1.0000   1.0000   1.0000   1.0000   1.0000   1.0000   1.0000
     1.0000   1.0000   1.0000   1.0000   1.0000   1.0000   1.0000   1.0000
     1.0000   1.0000   1.0000   1.0000   1.0000   1.0000   1.0000   1.0000
     1.0000   1.0000   1.0000   1.0000   1.0000   1.0000   1.0000   1.0000
     1.0000   1.0000   1.0000   1.0000   1.0000   1.0000   1.0000   1.0000
     1.0000   1.0000   1.0000   1.0000   1.0000   1.0000   1.0000   1.0000
     1.0000   1.0000   1.0000   1.0000   1.0000   1.0000   1.0000   1.0000
     1.0000   1.0000   1.0000   1.0000   1.0000   1.0000   1.0000   1.0000

     highest occupied level (ev):     1.3487

!    total energy              =   -1282.04480516 Ry
     Harris-Foulkes estimate   =   -1282.04480550 Ry
     estimated scf accuracy    <       0.00000037 Ry

     total all-electron energy =     -4786.488553 Ry

     The total energy is the sum of the following terms:

     one-electron contribution =    -651.46221904 Ry
     hartree contribution      =     423.55573137 Ry
     xc contribution           =    -260.28791138 Ry
     ewald contribution        =    -463.45998747 Ry
     one-center paw contrib.   =    -330.39041865 Ry

     convergence has been achieved in  19 iterations

     Forces acting on atoms (Ry/au):

     atom    1 type  1   force =    -0.01130033   -0.00749868   -0.01263336
     atom    2 type  4   force =     0.03356819    0.00900996   -0.02151161
     atom    3 type  1   force =    -0.00292405   -0.01541378   -0.02164542
     atom    4 type  1   force =     0.01578811   -0.00589981    0.00399078
     atom    5 type  4   force =     0.00354542   -0.04135325    0.04525224
     atom    6 type  1   force =     0.01781971    0.01248610   -0.01831152
     atom    7 type  4   force =    -0.01129524    0.02618096    0.05267076
     atom    8 type  2   force =     0.15319211   -0.09772112    0.04589974
     atom    9 type  3   force =    -0.12147000   -0.05264854   -0.12571692
     atom   10 type  3   force =    -0.04073350    0.15867779    0.07297119
     atom   11 type  4   force =    -0.04704563    0.02810210   -0.01803442
     atom   12 type  2   force =     0.12368143   -0.05244557    0.20454207
     atom   13 type  3   force =    -0.19754647   -0.09878245   -0.06408994
     atom   14 type  3   force =     0.06556616    0.15053416   -0.14623850
     atom   15 type  3   force =     0.06556612   -0.15053412   -0.14623865
     atom   16 type  3   force =    -0.19754646    0.09878258   -0.06409005
     atom   17 type  2   force =     0.12368112    0.05244527    0.20453534
     atom   18 type  4   force =    -0.04704678   -0.02810375   -0.01803395
     atom   19 type  3   force =    -0.04073331   -0.15867794    0.07297143
     atom   20 type  3   force =    -0.12146992    0.05264863   -0.12571689
     atom   21 type  2   force =     0.15319283    0.09772105    0.04589817
     atom   22 type  4   force =    -0.01129139   -0.02617481    0.05265553
     atom   23 type  1   force =     0.01782066   -0.01248703   -0.01831155
     atom   24 type  4   force =     0.00354571    0.04135418    0.04525415
     atom   25 type  1   force =     0.01578775    0.00589960    0.00399120
     atom   26 type  1   force =    -0.00292868    0.01541237   -0.02163818
     atom   27 type  4   force =     0.03358184   -0.00901193   -0.02152115
     atom   28 type  1   force =    -0.01129956    0.00749931   -0.01263503
     atom   29 type  3   force =    -0.06556616   -0.15053416    0.14623850
     atom   30 type  3   force =     0.19754647    0.09878245    0.06408994
     atom   31 type  2   force =    -0.12368143    0.05244557   -0.20454207
     atom   32 type  4   force =     0.04704563   -0.02810210    0.01803442
     atom   33 type  3   force =     0.04073350   -0.15867779   -0.07297119
     atom   34 type  3   force =     0.12147000    0.05264854    0.12571692
     atom   35 type  2   force =    -0.15319211    0.09772112   -0.04589974
     atom   36 type  4   force =     0.01129524   -0.02618096   -0.05267076
     atom   37 type  1   force =    -0.01781971   -0.01248610    0.01831152
     atom   38 type  4   force =    -0.00354542    0.04135325   -0.04525224
     atom   39 type  1   force =    -0.01578811    0.00589981   -0.00399078
     atom   40 type  1   force =     0.00292405    0.01541378    0.02164542
     atom   41 type  4   force =    -0.03356819   -0.00900996    0.02151161
     atom   42 type  1   force =     0.01130033    0.00749868    0.01263336
     atom   43 type  3   force =    -0.06556612    0.15053412    0.14623865
     atom   44 type  3   force =     0.19754646   -0.09878258    0.06409005
     atom   45 type  2   force =    -0.12368112   -0.05244527   -0.20453534
     atom   46 type  4   force =     0.04704678    0.02810375    0.01803395
     atom   47 type  3   force =     0.04073331    0.15867794   -0.07297143
     atom   48 type  3   force =     0.12146992   -0.05264863    0.12571689
     atom   49 type  2   force =    -0.15319283   -0.09772105   -0.04589817
     atom   50 type  4   force =     0.01129139    0.02617481   -0.05265553
     atom   51 type  1   force =    -0.01782066    0.01248703    0.01831155
     atom   52 type  4   force =    -0.00354571   -0.04135418   -0.04525415
     atom   53 type  1   force =    -0.01578775   -0.00589960   -0.00399120
     atom   54 type  1   force =     0.00292868   -0.01541237    0.02163818
     atom   55 type  4   force =    -0.03358184    0.00901193    0.02152115
     atom   56 type  1   force =     0.01129956   -0.00749931    0.01263503
     The non-local contrib.  to forces
     atom    1 type  1   force =     0.16392393    0.37587927    0.11064022
     atom    2 type  4   force =    -2.40441125   -0.47346074    1.54124539
     atom    3 type  1   force =     0.04196724   -0.02833855    0.05732828
     atom    4 type  1   force =    -0.56528609   -0.40497361   -0.11003425
     atom    5 type  4   force =     0.14858903    1.88693939   -2.24017866
     atom    6 type  1   force =    -0.00636580    0.06120632    0.05492696
     atom    7 type  4   force =     0.55543465   -1.17232219   -2.63754576
     atom    8 type  2   force =     0.62011824   -0.42433571    0.17099913
     atom    9 type  3   force =     0.07748580    0.02601939    0.06805743
     atom   10 type  3   force =     0.02811324   -0.09578479   -0.03920634
     atom   11 type  4   force =     2.26813585   -1.50189876    0.82836771
     atom   12 type  2   force =     0.38180618   -0.19010588    0.69245668
     atom   13 type  3   force =     0.09418524    0.04771026    0.03981191
     atom   14 type  3   force =    -0.03075458   -0.07409556    0.07908903
     atom   15 type  3   force =    -0.03075455    0.07409552    0.07908896
     atom   16 type  3   force =     0.09418519   -0.04771022    0.03981188
     atom   17 type  2   force =     0.38180616    0.19010619    0.69245458
     atom   18 type  4   force =     2.26813465    1.50189822    0.82836703
     atom   19 type  3   force =     0.02811326    0.09578482   -0.03920634
     atom   20 type  3   force =     0.07748573   -0.02601936    0.06805739
     atom   21 type  2   force =     0.62011856    0.42433605    0.17099913
     atom   22 type  4   force =     0.55544079    1.17232759   -2.63756195
     atom   23 type  1   force =    -0.00636607   -0.06120678    0.05492683
     atom   24 type  4   force =     0.14858801   -1.88693863   -2.24017808
     atom   25 type  1   force =    -0.56528656    0.40497336   -0.11003425
     atom   26 type  1   force =     0.04197516    0.02834036    0.05731738
     atom   27 type  4   force =    -2.40439781    0.47346057    1.54123342
     atom   28 type  1   force =     0.16392540   -0.37587902    0.11063709
     atom   29 type  3   force =     0.03075458    0.07409556   -0.07908903
     atom   30 type  3   force =    -0.09418524   -0.04771026   -0.03981191
     atom   31 type  2   force =    -0.38180618    0.19010588   -0.69245668
     atom   32 type  4   force =    -2.26813585    1.50189876   -0.82836771
     atom   33 type  3   force =    -0.02811324    0.09578479    0.03920634
     atom   34 type  3   force =    -0.07748580   -0.02601939   -0.06805743
     atom   35 type  2   force =    -0.62011824    0.42433571   -0.17099913
     atom   36 type  4   force =    -0.55543465    1.17232219    2.63754576
     atom   37 type  1   force =     0.00636580   -0.06120632   -0.05492696
     atom   38 type  4   force =    -0.14858903   -1.88693939    2.24017866
     atom   39 type  1   force =     0.56528609    0.40497361    0.11003425
     atom   40 type  1   force =    -0.04196724    0.02833855   -0.05732828
     atom   41 type  4   force =     2.40441125    0.47346074   -1.54124539
     atom   42 type  1   force =    -0.16392393   -0.37587927   -0.11064022
     atom   43 type  3   force =     0.03075455   -0.07409552   -0.07908896
     atom   44 type  3   force =    -0.09418519    0.04771022   -0.03981188
     atom   45 type  2   force =    -0.38180616   -0.19010619   -0.69245458
     atom   46 type  4   force =    -2.26813465   -1.50189822   -0.82836703
     atom   47 type  3   force =    -0.02811326   -0.09578482    0.03920634
     atom   48 type  3   force =    -0.07748573    0.02601936   -0.06805739
     atom   49 type  2   force =    -0.62011856   -0.42433605   -0.17099913
     atom   50 type  4   force =    -0.55544079   -1.17232759    2.63756195
     atom   51 type  1   force =     0.00636607    0.06120678   -0.05492683
     atom   52 type  4   force =    -0.14858801    1.88693863    2.24017808
     atom   53 type  1   force =     0.56528656   -0.40497336    0.11003425
     atom   54 type  1   force =    -0.04197516   -0.02834036   -0.05731738
     atom   55 type  4   force =     2.40439781   -0.47346057   -1.54123342
     atom   56 type  1   force =    -0.16392540    0.37587902   -0.11063709
     The ionic contribution  to forces
     atom    1 type  1   force =    -3.00687770    0.28614402   -2.00761271
     atom    2 type  4   force =    12.29069395    4.44397755   -6.03425368
     atom    3 type  1   force =    -0.19300010    1.67689804   -0.01706042
     atom    4 type  1   force =     2.75438387    2.76831943    1.99202849
     atom    5 type  4   force =    -1.38156984   -8.79306881   11.53480359
     atom    6 type  1   force =    -0.38358935    0.10782479    1.10414289
     atom    7 type  4   force =    -2.12387504    6.41685170   12.60439050
     atom    8 type  2   force =    -4.12860934    3.32308179   -1.19831686
     atom    9 type  3   force =    -2.23299733   -0.11068369   -1.98649700
     atom   10 type  3   force =    -1.23812951    2.77054803    0.74000642
     atom   11 type  4   force =   -11.28727178    6.38850152   -2.18164322
     atom   12 type  2   force =    -2.90688456    1.02877570   -4.75943422
     atom   13 type  3   force =    -2.63178951   -1.04963234   -1.62310559
     atom   14 type  3   force =     0.26012285    2.06839067   -2.52141805
     atom   15 type  3   force =     0.26012285   -2.06839067   -2.52141805
     atom   16 type  3   force =    -2.63178951    1.04963234   -1.62310559
     atom   17 type  2   force =    -2.90688456   -1.02877570   -4.75943422
     atom   18 type  4   force =   -11.28727178   -6.38850152   -2.18164322
     atom   19 type  3   force =    -1.23812951   -2.77054803    0.74000642
     atom   20 type  3   force =    -2.23299733    0.11068369   -1.98649700
     atom   21 type  2   force =    -4.12860934   -3.32308179   -1.19831686
     atom   22 type  4   force =    -2.12387504   -6.41685170   12.60439050
     atom   23 type  1   force =    -0.38358935   -0.10782479    1.10414289
     atom   24 type  4   force =    -1.38156984    8.79306881   11.53480359
     atom   25 type  1   force =     2.75438387   -2.76831943    1.99202849
     atom   26 type  1   force =    -0.19300010   -1.67689804   -0.01706042
     atom   27 type  4   force =    12.29069395   -4.44397755   -6.03425368
     atom   28 type  1   force =    -3.00687770   -0.28614402   -2.00761271
     atom   29 type  3   force =    -0.26012285   -2.06839067    2.52141805
     atom   30 type  3   force =     2.63178951    1.04963234    1.62310559
     atom   31 type  2   force =     2.90688456   -1.02877570    4.75943422
     atom   32 type  4   force =    11.28727178   -6.38850152    2.18164322
     atom   33 type  3   force =     1.23812951   -2.77054803   -0.74000642
     atom   34 type  3   force =     2.23299733    0.11068369    1.98649700
     atom   35 type  2   force =     4.12860934   -3.32308179    1.19831686
     atom   36 type  4   force =     2.12387504   -6.41685170  -12.60439050
     atom   37 type  1   force =     0.38358935   -0.10782479   -1.10414289
     atom   38 type  4   force =     1.38156984    8.79306881  -11.53480359
     atom   39 type  1   force =    -2.75438387   -2.76831943   -1.99202849
     atom   40 type  1   force =     0.19300010   -1.67689804    0.01706042
     atom   41 type  4   force =   -12.29069395   -4.44397755    6.03425368
     atom   42 type  1   force =     3.00687770   -0.28614402    2.00761271
     atom   43 type  3   force =    -0.26012285    2.06839067    2.52141805
     atom   44 type  3   force =     2.63178951   -1.04963234    1.62310559
     atom   45 type  2   force =     2.90688456    1.02877570    4.75943422
     atom   46 type  4   force =    11.28727178    6.38850152    2.18164322
     atom   47 type  3   force =     1.23812951    2.77054803   -0.74000642
     atom   48 type  3   force =     2.23299733   -0.11068369    1.98649700
     atom   49 type  2   force =     4.12860934    3.32308179    1.19831686
     atom   50 type  4   force =     2.12387504    6.41685170  -12.60439050
     atom   51 type  1   force =     0.38358935    0.10782479   -1.10414289
     atom   52 type  4   force =     1.38156984   -8.79306881  -11.53480359
     atom   53 type  1   force =    -2.75438387    2.76831943   -1.99202849
     atom   54 type  1   force =     0.19300010    1.67689804    0.01706042
     atom   55 type  4   force =   -12.29069395    4.44397755    6.03425368
     atom   56 type  1   force =     3.00687770    0.28614402    2.00761271
     The local contribution  to forces
     atom    1 type  1   force =     2.83449327   -0.66320327    1.88616589
     atom    2 type  4   force =    -9.87154044   -3.96509330    4.48363495
     atom    3 type  1   force =     0.14743554   -1.66556930   -0.06154945
     atom    4 type  1   force =    -2.18239359   -2.37537828   -1.87942604
     atom    5 type  4   force =     1.23765850    6.87922290   -9.26669573
     atom    6 type  1   force =     0.40883859   -0.15487283   -1.17730310
     atom    7 type  4   force =     1.56135436   -5.22716124   -9.93425769
     atom    8 type  2   force =     3.67490090   -3.00593993    1.07777563
     atom    9 type  3   force =     2.03404665    0.03201772    1.79271339
     atom   10 type  3   force =     1.16929917   -2.51608576   -0.62783747
     atom   11 type  4   force =     8.98958579   -4.87023228    1.34179791
     atom   12 type  2   force =     2.65745522   -0.89506637    4.28719649
     atom   13 type  3   force =     2.34004621    0.90313926    1.51920594
[...]
     atom   22 type  4   force =    -0.00433533   -0.00882217    0.02065961
     atom   23 type  1   force =    -0.00107790    0.00144449   -0.00008651
     atom   24 type  4   force =    -0.00082357    0.01449422    0.01773536
     atom   25 type  1   force =     0.00889404   -0.00555383    0.00034216
     atom   26 type  1   force =     0.00019769   -0.00137177   -0.00000172
     atom   27 type  4   force =     0.01883261   -0.00409864   -0.01215721
     atom   28 type  1   force =    -0.00345689    0.00575382   -0.00250986
     atom   29 type  3   force =     0.00000000    0.00000000    0.00000000
     atom   30 type  3   force =     0.00000000    0.00000000    0.00000000
     atom   31 type  2   force =     0.00566009   -0.00263129    0.01019817
     atom   32 type  4   force =     0.01802044   -0.01168458    0.00658223
     atom   33 type  3   force =     0.00000000    0.00000000    0.00000000
     atom   34 type  3   force =     0.00000000    0.00000000    0.00000000
     atom   35 type  2   force =     0.00906336   -0.00689295    0.00343021
     atom   36 type  4   force =     0.00433967   -0.00881937   -0.02065806
     atom   37 type  1   force =     0.00107713    0.00144410    0.00008647
     atom   38 type  4   force =     0.00082165    0.01449383   -0.01773444
     atom   39 type  1   force =    -0.00889341   -0.00555448   -0.00034280
     atom   40 type  1   force =    -0.00019793   -0.00137169    0.00000183
     atom   41 type  4   force =    -0.01883049   -0.00409529    0.01215857
     atom   42 type  1   force =     0.00345428    0.00575197    0.00250732
     atom   43 type  3   force =     0.00000000    0.00000000    0.00000000
     atom   44 type  3   force =     0.00000000    0.00000000    0.00000000
     atom   45 type  2   force =     0.00566259    0.00263126    0.01020601
     atom   46 type  4   force =     0.01802248    0.01168413    0.00658030
     atom   47 type  3   force =     0.00000000    0.00000000    0.00000000
     atom   48 type  3   force =     0.00000000    0.00000000    0.00000000
     atom   49 type  2   force =     0.00906485    0.00689157    0.00343348
     atom   50 type  4   force =     0.00433533    0.00882217   -0.02065961
     atom   51 type  1   force =     0.00107790   -0.00144449    0.00008651
     atom   52 type  4   force =     0.00082357   -0.01449422   -0.01773536
     atom   53 type  1   force =    -0.00889404    0.00555383   -0.00034216
     atom   54 type  1   force =    -0.00019769    0.00137177    0.00000172
     atom   55 type  4   force =    -0.01883261    0.00409864    0.01215721
     atom   56 type  1   force =     0.00345689   -0.00575382    0.00250986
     The Hubbard contrib.    to forces
     atom    1 type  1   force =     0.00000000    0.00000000    0.00000000
     atom    2 type  4   force =     0.00000000    0.00000000    0.00000000
     atom    3 type  1   force =     0.00000000    0.00000000    0.00000000
     atom    4 type  1   force =     0.00000000    0.00000000    0.00000000
     atom    5 type  4   force =     0.00000000    0.00000000    0.00000000
     atom    6 type  1   force =     0.00000000    0.00000000    0.00000000
     atom    7 type  4   force =     0.00000000    0.00000000    0.00000000
     atom    8 type  2   force =     0.00000000    0.00000000    0.00000000
     atom    9 type  3   force =     0.00000000    0.00000000    0.00000000
     atom   10 type  3   force =     0.00000000    0.00000000    0.00000000
     atom   11 type  4   force =     0.00000000    0.00000000    0.00000000
     atom   12 type  2   force =     0.00000000    0.00000000    0.00000000
     atom   13 type  3   force =     0.00000000    0.00000000    0.00000000
     atom   14 type  3   force =     0.00000000    0.00000000    0.00000000
     atom   15 type  3   force =     0.00000000    0.00000000    0.00000000
     atom   16 type  3   force =     0.00000000    0.00000000    0.00000000
     atom   17 type  2   force =     0.00000000    0.00000000    0.00000000
     atom   18 type  4   force =     0.00000000    0.00000000    0.00000000
     atom   19 type  3   force =     0.00000000    0.00000000    0.00000000
     atom   20 type  3   force =     0.00000000    0.00000000    0.00000000
     atom   21 type  2   force =     0.00000000    0.00000000    0.00000000
     atom   22 type  4   force =     0.00000000    0.00000000    0.00000000
     atom   23 type  1   force =     0.00000000    0.00000000    0.00000000
     atom   24 type  4   force =     0.00000000    0.00000000    0.00000000
     atom   25 type  1   force =     0.00000000    0.00000000    0.00000000
     atom   26 type  1   force =     0.00000000    0.00000000    0.00000000
     atom   27 type  4   force =     0.00000000    0.00000000    0.00000000
     atom   28 type  1   force =     0.00000000    0.00000000    0.00000000
     atom   29 type  3   force =     0.00000000    0.00000000    0.00000000
     atom   30 type  3   force =     0.00000000    0.00000000    0.00000000
     atom   31 type  2   force =     0.00000000    0.00000000    0.00000000
     atom   32 type  4   force =     0.00000000    0.00000000    0.00000000
     atom   33 type  3   force =     0.00000000    0.00000000    0.00000000
     atom   34 type  3   force =     0.00000000    0.00000000    0.00000000
     atom   35 type  2   force =     0.00000000    0.00000000    0.00000000
     atom   36 type  4   force =     0.00000000    0.00000000    0.00000000
     atom   37 type  1   force =     0.00000000    0.00000000    0.00000000
     atom   38 type  4   force =     0.00000000    0.00000000    0.00000000
     atom   39 type  1   force =     0.00000000    0.00000000    0.00000000
     atom   40 type  1   force =     0.00000000    0.00000000    0.00000000
     atom   41 type  4   force =     0.00000000    0.00000000    0.00000000
     atom   42 type  1   force =     0.00000000    0.00000000    0.00000000
     atom   43 type  3   force =     0.00000000    0.00000000    0.00000000
     atom   44 type  3   force =     0.00000000    0.00000000    0.00000000
     atom   45 type  2   force =     0.00000000    0.00000000    0.00000000
     atom   46 type  4   force =     0.00000000    0.00000000    0.00000000
     atom   47 type  3   force =     0.00000000    0.00000000    0.00000000
     atom   48 type  3   force =     0.00000000    0.00000000    0.00000000
     atom   49 type  2   force =     0.00000000    0.00000000    0.00000000
     atom   50 type  4   force =     0.00000000    0.00000000    0.00000000
     atom   51 type  1   force =     0.00000000    0.00000000    0.00000000
     atom   52 type  4   force =     0.00000000    0.00000000    0.00000000
     atom   53 type  1   force =     0.00000000    0.00000000    0.00000000
     atom   54 type  1   force =     0.00000000    0.00000000    0.00000000
     atom   55 type  4   force =     0.00000000    0.00000000    0.00000000
     atom   56 type  1   force =     0.00000000    0.00000000    0.00000000
     The SCF correction term to forces
     atom    1 type  1   force =     0.00000513   -0.00000267   -0.00000826
     atom    2 type  4   force =     0.00001783    0.00000368   -0.00001716
     atom    3 type  1   force =     0.00003294   -0.00000549   -0.00003672
     atom    4 type  1   force =    -0.00000979   -0.00000386    0.00000065
     atom    5 type  4   force =     0.00000188    0.00000408   -0.00001034
     atom    6 type  1   force =    -0.00000950    0.00000758   -0.00000873
     atom    7 type  4   force =     0.00000275   -0.00000116   -0.00000378
     atom    8 type  2   force =    -0.00000816   -0.00000238    0.00000071
     atom    9 type  3   force =    -0.00000230   -0.00000107    0.00000066
     atom   10 type  3   force =    -0.00000294   -0.00000049    0.00000173
     atom   11 type  4   force =    -0.00000159    0.00000300   -0.00000542
     atom   12 type  2   force =     0.00000338    0.00000447   -0.00000080
     atom   13 type  3   force =    -0.00000047    0.00000006    0.00000003
     atom   14 type  3   force =     0.00000077    0.00000165   -0.00000020
     atom   15 type  3   force =     0.00000068   -0.00000144    0.00000037
     atom   16 type  3   force =    -0.00000026   -0.00000011    0.00000073
     atom   17 type  2   force =     0.00000515   -0.00000260    0.00000158
     atom   18 type  4   force =     0.00000345   -0.00000298   -0.00000939
     atom   19 type  3   force =    -0.00000309    0.00000055    0.00000162
     atom   20 type  3   force =    -0.00000241    0.00000126    0.00000119
     atom   21 type  2   force =    -0.00000929    0.00000453    0.00000256
     atom   22 type  4   force =     0.00000346   -0.00000058   -0.00000611
     atom   23 type  1   force =    -0.00000757   -0.00001449   -0.00001945
     atom   24 type  4   force =     0.00000352   -0.00000924   -0.00001801
     atom   25 type  1   force =    -0.00001282    0.00000300   -0.00000174
     atom   26 type  1   force =     0.00003709    0.00000463   -0.00003775
     atom   27 type  4   force =     0.00001985   -0.00000240   -0.00001451
     atom   28 type  1   force =     0.00000492    0.00000473   -0.00000780
     atom   29 type  3   force =    -0.00000077   -0.00000165    0.00000020
     atom   30 type  3   force =     0.00000047   -0.00000006   -0.00000003
     atom   31 type  2   force =    -0.00000338   -0.00000447    0.00000080
     atom   32 type  4   force =     0.00000159   -0.00000300    0.00000542
     atom   33 type  3   force =     0.00000294    0.00000049   -0.00000173
     atom   34 type  3   force =     0.00000230    0.00000107   -0.00000066
     atom   35 type  2   force =     0.00000816    0.00000238   -0.00000071
     atom   36 type  4   force =    -0.00000275    0.00000116    0.00000378
     atom   37 type  1   force =     0.00000950   -0.00000758    0.00000873
     atom   38 type  4   force =    -0.00000188   -0.00000408    0.00001034
     atom   39 type  1   force =     0.00000979    0.00000386   -0.00000065
     atom   40 type  1   force =    -0.00003294    0.00000549    0.00003672
     atom   41 type  4   force =    -0.00001783   -0.00000368    0.00001716
     atom   42 type  1   force =    -0.00000513    0.00000267    0.00000826
     atom   43 type  3   force =    -0.00000068    0.00000144   -0.00000037
     atom   44 type  3   force =     0.00000026    0.00000011   -0.00000073
     atom   45 type  2   force =    -0.00000515    0.00000260   -0.00000158
     atom   46 type  4   force =    -0.00000345    0.00000298    0.00000939
     atom   47 type  3   force =     0.00000309   -0.00000055   -0.00000162
     atom   48 type  3   force =     0.00000241   -0.00000126   -0.00000119
     atom   49 type  2   force =     0.00000929   -0.00000453   -0.00000256
     atom   50 type  4   force =    -0.00000346    0.00000058    0.00000611
     atom   51 type  1   force =     0.00000757    0.00001449    0.00001945
     atom   52 type  4   force =    -0.00000352    0.00000924    0.00001801
     atom   53 type  1   force =     0.00001282   -0.00000300    0.00000174
     atom   54 type  1   force =    -0.00003709   -0.00000463    0.00003775
     atom   55 type  4   force =    -0.00001985    0.00000240    0.00001451
     atom   56 type  1   force =    -0.00000492   -0.00000473    0.00000780

     Total force =     0.003968     Total SCF correction =     0.000134


     entering subroutine stress ...

          total   stress  (Ry/bohr**3)                   (kbar)     P=   16.53
   0.00011606  -0.00000001  -0.00000037         17.07     -0.00     -0.05
  -0.00000001   0.00010458  -0.00000016         -0.00     15.38     -0.02
  -0.00000037  -0.00000016   0.00011646         -0.05     -0.02     17.13

     kinetic stress (kbar)  14925.45      0.06    331.06
                                0.06  15347.59      0.04
                              331.06      0.04  14897.59

     local   stress (kbar) -15127.83      0.33   7619.84
                                0.33  -8380.69      0.17
                             7619.84      0.17 -11407.08

     nonloc. stress (kbar)   1032.03      0.00      7.82
                                0.00   1041.53      0.01
                                7.82      0.01   1003.91

     hartree stress (kbar)   6828.70     -0.08  -2756.01
                               -0.08   4854.12      0.02
                            -2756.01      0.02   5410.26

     exc-cor stress (kbar)  -2154.95     -0.00    -11.07
                               -0.00  -2175.17     -0.00
                              -11.07     -0.00  -2160.38

     corecor stress (kbar)  -1128.32      0.00     -2.30
                                0.00  -1130.22      0.00
                               -2.30      0.00  -1128.50

     ewald   stress (kbar)  -4358.00     -0.31  -5189.39
                               -0.31  -9541.76     -0.26
                            -5189.39     -0.26  -6598.67

     hubbard stress (kbar)      0.00      0.00      0.00
                                0.00      0.00      0.00
                                0.00      0.00      0.00

     london  stress (kbar)      0.00      0.00      0.00
                                0.00      0.00      0.00
                                0.00      0.00      0.00

     XDM     stress (kbar)      0.00      0.00      0.00
                                0.00      0.00      0.00
                                0.00      0.00      0.00

     dft-nl  stress (kbar)      0.00      0.00      0.00
                                0.00      0.00      0.00
                                0.00      0.00      0.00

     TS-vdW  stress (kbar)      0.00      0.00      0.00
                                0.00      0.00      0.00
                                0.00      0.00      0.00



     bfgs converged in  27 scf cycles and  26 bfgs steps
     (criteria: energy <  1.0E-04, force <  1.0E-03)

     End of BFGS Geometry Optimization

     Final energy   =   -1282.3827261604 Ry
Begin final coordinates

ATOMIC_POSITIONS (crystal)
N       -0.022664110   0.624483911   0.460219634
O        0.268913491   0.724757755   0.436096725
N        0.137190775   0.705612186   0.531737935
N       -0.145641751   0.521912730   0.702928661
O       -0.270231005   0.425394070   0.925167228
N       -0.303938168   0.498615250   0.793934053
O        0.137386906   0.749358016   0.686610685
C       -0.193713505   0.614236782   0.553462619
H       -0.333717925   0.587746095   0.449723231
H       -0.221405249   0.701483716   0.614969330
O       -0.470122290   0.557143519   0.738773495
C       -0.023212994   0.566030337   0.282523268
H       -0.176502274   0.521798684   0.238235549
H       -0.004234562   0.632135187   0.176684120
H        0.495770192  -0.132137888   0.676683453
H        0.323498915  -0.021801670   0.738228632
C        0.476785630  -0.066029660   0.782523582
O        0.029873408  -0.057144686   1.238775645
H        0.278587222  -0.201482506   1.114965803
H        0.166281822  -0.087740129   0.949722284
C        0.306286903  -0.114233807   1.053460286
O        0.637386855  -0.249355880   1.186616463
N        0.196067859   0.001383398   1.293928347
O        0.229771682   0.074609560   1.425174853
N        0.354353033  -0.021910984   1.202930893
N        0.637170188  -0.205603567   1.031737204
O        0.768923929  -0.224761997   0.936085156
N        0.477337753  -0.124482400   0.960217875
H        0.004234562   0.367864813   0.823315880
H        0.176502274   0.478201316   0.761764451
C        0.023212994   0.433969663   0.717476732
O        0.470122290   0.442856481   0.261226505
H        0.221405249   0.298516284   0.385030670
H        0.333717925   0.412253905   0.550276769
C        0.193713505   0.385763218   0.446537381
O       -0.137386906   0.250641984   0.313389315
N        0.303938168   0.501384750   0.206065947
O        0.270231005   0.574605930   0.074832772
N        0.145641751   0.478087270   0.297071339
N       -0.137190775   0.294387814   0.468262065
O       -0.268913491   0.275242245   0.563903275
N        0.022664110   0.375516089   0.539780366
H        0.504229808   0.132137888   1.323316547
H        0.676501085   0.021801670   1.261771368
C        0.523214370   0.066029660   1.217476418
O        0.970126592   0.057144686   0.761224355
H        0.721412778   0.201482506   0.885034197
H        0.833718178   0.087740129   1.050277716
C        0.693713097   0.114233807   0.946539714
O        0.362613145   0.249355880   0.813383537
N        0.803932141  -0.001383398   0.706071653
O        0.770228318  -0.074609560   0.574825147
N        0.645646967   0.021910984   0.797069107
N        0.362829812   0.205603567   0.968262796
O        0.231076071   0.224761997   1.063914844
N        0.522662247   0.124482400   1.039782125
End final coordinates



     Writing output data file relax.pbe.ec-80.kp-4x2x4.HMX-792928.np-32.default-conv-thr.save

     init_run     :     75.16s CPU     96.93s WALL (       1 calls)
     electrons    :  63366.02s CPU  90456.48s WALL (      27 calls)
     update_pot   :    769.88s CPU    944.31s WALL (      26 calls)
     forces       :   1421.63s CPU   2070.61s WALL (      27 calls)
     stress       :   4121.27s CPU   4674.92s WALL (      27 calls)

     Called by init_run:
     wfcinit      :     44.45s CPU     51.10s WALL (       1 calls)
     potinit      :     10.04s CPU     11.15s WALL (       1 calls)

     Called by electrons:
     c_bands      :  53557.11s CPU  76972.59s WALL (     400 calls)
     sum_band     :   8751.91s CPU  12083.49s WALL (     400 calls)
     v_of_rho     :    235.70s CPU    344.95s WALL (     408 calls)
     v_h          :     17.60s CPU     29.15s WALL (     408 calls)
     v_xc         :    252.43s CPU    364.25s WALL (     462 calls)
     newd         :    540.72s CPU    592.80s WALL (     408 calls)
     PAW_pot      :    148.34s CPU    180.07s WALL (     434 calls)
     mix_rho      :    159.77s CPU    218.78s WALL (     400 calls)

     Called by c_bands:
     init_us_2    :    653.28s CPU    737.71s WALL (   14096 calls)
     cegterg      :  51469.46s CPU  73990.04s WALL (    6400 calls)

     Called by sum_band:
     sum_band:bec :     11.88s CPU     12.71s WALL (    6816 calls)
     addusdens    :   1983.38s CPU   1845.42s WALL (     400 calls)

     Called by *egterg:
     h_psi        :  23490.41s CPU  36986.93s WALL (   29752 calls)
     s_psi        :   3538.69s CPU   3321.07s WALL (   29752 calls)
     g_psi        :     49.15s CPU     64.79s WALL (   23336 calls)
     cdiaghg      :   8975.39s CPU  10249.49s WALL (   29016 calls)
     cegterg:over :   5350.92s CPU  10009.76s WALL (   23336 calls)
     cegterg:upda :   3267.21s CPU   2777.33s WALL (   23336 calls)
     cegterg:last :   2020.55s CPU   2340.59s WALL (    6875 calls)

     Called by h_psi:
     h_psi:vloc   :  13278.04s CPU  20751.16s WALL (   29752 calls)
     h_psi:vnl    :   9804.58s CPU  15776.37s WALL (   29752 calls)
     add_vuspsi   :   3901.92s CPU   4383.10s WALL (   29752 calls)

     General routines
     calbec       :   8405.41s CPU  16216.83s WALL (   38728 calls)
     fft          :    258.52s CPU    598.24s WALL (    7197 calls)
     ffts         :      9.88s CPU     32.35s WALL (     808 calls)
     fftw         :  11892.85s CPU  20461.80s WALL ( 4750012 calls)
     interpolate  :    110.69s CPU    166.88s WALL (     808 calls)
     davcio       :      0.21s CPU     48.97s WALL (      16 calls)

     Parallel routines
     fft_scatter  :   6777.04s CPU  14928.92s WALL ( 4758017 calls)

     PAW routines
     PAW_pot      :    148.34s CPU    180.07s WALL (     434 calls)
     PAW_symme    :      2.95s CPU      9.68s WALL (     834 calls)

     PWSCF        :     0d   19h29m CPU        1d    3h29m WALL


   This run was terminated on:  20:32:31  15Jul2016            

=------------------------------------------------------------------------------=
   JOB DONE.
=------------------------------------------------------------------------------=
