
     Program PWSCF v.5.3.0 (svn rev. 11974) starts on 20Jul2016 at 20:31:21 

     This program is part of the open-source Quantum ESPRESSO suite
     for quantum simulation of materials; please cite
         "P. Giannozzi et al., J. Phys.:Condens. Matter 21 395502 (2009);
          URL http://www.quantum-espresso.org", 
     in publications or presentations arising from this work. More details at
     http://www.quantum-espresso.org/quote

     Parallel version (MPI), running on    32 processors
     R & G space division:  proc/nbgrp/npool/nimage =      32
     Waiting for input...
     Reading input from standard input
Warning: card     &CELL ignored
Warning: card CELL_DYNAMICS='BFGS' ignored
Warning: card / ignored

     Current dimensions of program PWSCF are:
     Max number of different atomic species (ntypx) = 10
     Max number of k-points (npk) =  40000
     Max angular momentum in pseudopotentials (lmaxx) =  3
               file N.pbe-n-kjpaw_psl.1.0.0.UPF: wavefunction(s)  2S renormalized
               file C.pbe-n-kjpaw_psl.1.0.0.UPF: wavefunction(s)  2S 2P renormalized
               file H.pbe-kjpaw_psl.1.0.0.UPF: wavefunction(s)  1S renormalized
               file O.pbe-n-kjpaw_psl.1.0.0.UPF: wavefunction(s)  2S 2P renormalized

     Subspace diagonalization in iterative solution of the eigenvalue problem:
     a serial algorithm will be used


     Parallelization info
     --------------------
     sticks:   dense  smooth     PW     G-vecs:    dense   smooth      PW
     Min         507     203     54                41287    10429    1440
     Max         508     204     55                41290    10464    1444
     Sum       16249    6499   1745              1321227   334329   46131


     Title: 
     HMX-relax--kp-4x2x4-ec-80-default-conv-thr                                 


     bravais-lattice index     =            0
     lattice parameter (alat)  =       1.8897  a.u.
     unit-cell volume          =    3458.1628 (a.u.)^3
     number of atoms/cell      =           56
     number of atomic types    =            4
     number of electrons       =       224.00
     number of Kohn-Sham states=          112
     kinetic-energy cutoff     =      80.0000  Ry
     charge density cutoff     =     800.0000  Ry
     convergence threshold     =      1.0E-06
     mixing beta               =       0.7000
     number of iterations used =            8  plain     mixing
     Exchange-correlation      =  SLA  PW   PBX  PBC ( 1  4  3  4 0 0)
     nstep                     =           50


     celldm(1)=   1.889726  celldm(2)=   0.000000  celldm(3)=   0.000000
     celldm(4)=   0.000000  celldm(5)=   0.000000  celldm(6)=   0.000000

     crystal axes: (cart. coord. in units of alat)
               a(1) = (   6.533400   0.000000   0.000000 )  
               a(2) = (   0.000000  10.941900   0.000000 )  
               a(3) = (  -1.587995   0.000000   7.168312 )  

     reciprocal axes: (cart. coord. in units 2 pi/alat)
               b(1) = (  0.153060 -0.000000  0.033907 )  
               b(2) = (  0.000000  0.091392 -0.000000 )  
               b(3) = (  0.000000  0.000000  0.139503 )  


     PseudoPot. # 1 for  N read from file:
     /users/majewski/.data/PSEUDOPOTENTIALS/N.pbe-n-kjpaw_psl.1.0.0.UPF
     MD5 check sum: c21df8f53e59d08c3548513d559cdda6
     Pseudo is Projector augmented-wave + core cor, Zval =  5.0
     Generated using "atomic" code by A. Dal Corso  v.5.3.0 svn rev. 11974
     Shape of augmentation charge: PSQ
     Using radial grid of 1085 points,  4 beta functions with: 
                l(1) =   0
                l(2) =   0
                l(3) =   1
                l(4) =   1
     Q(r) pseudized with 0 coefficients 


     PseudoPot. # 2 for  C read from file:
     /users/majewski/.data/PSEUDOPOTENTIALS/C.pbe-n-kjpaw_psl.1.0.0.UPF
     MD5 check sum: 2ba8448e293caca687844dde9a1b88a8
     Pseudo is Projector augmented-wave + core cor, Zval =  4.0
     Generated using "atomic" code by A. Dal Corso  v.5.3.0 svn rev. 11974
     Shape of augmentation charge: PSQ
     Using radial grid of 1073 points,  4 beta functions with: 
                l(1) =   0
                l(2) =   0
                l(3) =   1
                l(4) =   1
     Q(r) pseudized with 0 coefficients 


     PseudoPot. # 3 for  H read from file:
     /users/majewski/.data/PSEUDOPOTENTIALS/H.pbe-kjpaw_psl.1.0.0.UPF
     MD5 check sum: bc0feb48a24907a0b97fa6ee2d589a29
     Pseudo is Projector augmented-wave, Zval =  1.0
     Generated using "atomic" code by A. Dal Corso  v.5.3.0 svn rev. 11974
     Shape of augmentation charge: PSQ
     Using radial grid of  929 points,  2 beta functions with: 
                l(1) =   0
                l(2) =   0
     Q(r) pseudized with 0 coefficients 


     PseudoPot. # 4 for  O read from file:
     /users/majewski/.data/PSEUDOPOTENTIALS/O.pbe-n-kjpaw_psl.1.0.0.UPF
     MD5 check sum: 9c0ade6c043cf4a781bde3908a3a8206
     Pseudo is Projector augmented-wave + core cor, Zval =  6.0
     Generated using "atomic" code by A. Dal Corso  v.5.3.0 svn rev. 11974
     Shape of augmentation charge: PSQ
     Using radial grid of 1095 points,  4 beta functions with: 
                l(1) =   0
                l(2) =   0
                l(3) =   1
                l(4) =   1
     Q(r) pseudized with 0 coefficients 


     atomic species   valence    mass     pseudopotential
        N              5.00    14.00670      N( 1.00)
        C              4.00    12.01100      C( 1.00)
        H              1.00     1.00790      H( 1.00)
        O              6.00    15.99940      O( 1.00)

      2 Sym. Ops., with inversion, found
          (note:  2 additional sym.ops. were found but ignored
           their fractional translations are incommensurate with FFT grid)

                                    s                        frac. trans.

      isym =  1     identity                                     

 cryst.   s( 1) = (     1          0          0      )
                  (     0          1          0      )
                  (     0          0          1      )

 cart.    s( 1) = (  1.0000000  0.0000000 -0.0000000 )
                  (  0.0000000  1.0000000  0.0000000 )
                  (  0.0000000  0.0000000  1.0000000 )


      isym =  2     inversion                                    

 cryst.   s( 2) = (    -1          0          0      )
                  (     0         -1          0      )
                  (     0          0         -1      )

 cart.    s( 2) = ( -1.0000000  0.0000000  0.0000000 )
                  (  0.0000000 -1.0000000  0.0000000 )
                  (  0.0000000  0.0000000 -1.0000000 )


   Cartesian axes

     site n.     atom                  positions (alat units)
         1           N   tau(   1) = (   5.6814794   6.8168037   3.3020831  )
         2           O   tau(   2) = (   7.6183148   7.8804658   3.1253842  )
         3           N   tau(   3) = (   6.6082701   7.6958759   3.8021446  )
         4           N   tau(   4) = (   4.4798552   5.7522662   5.0624773  )
         5           O   tau(   5) = (   3.2857644   4.6925432   6.6169259  )
         6           N   tau(   6) = (   3.2951569   5.4937092   5.6876975  )
         7           O   tau(   7) = (   6.3726433   8.1839941   4.8967459  )
         8           C   tau(   8) = (   4.4063896   6.7367090   3.9631449  )
         9           H   tau(   9) = (   3.7167939   6.4655687   3.3210792  )
        10           H   tau(  10) = (   4.1629820   7.6155624   4.3210587  )
        11           O   tau(  11) = (   2.3219113   6.1379682   5.2879207  )
        12           C   tau(  12) = (   5.9434862   6.1864408   2.0140807  )
        13           H   tau(  13) = (   5.1221590   5.7598162   1.7254128  )
        14           H   tau(  14) = (   6.2073440   6.8277456   1.3361734  )
        15           H   tau(  15) = (   3.7346417  -1.3567956  -2.2479828  )
        16           H   tau(  16) = (   2.6494567  -0.2888662  -1.8587434  )
        17           C   tau(  17) = (   3.4707838  -0.7154908  -1.5700755  )
        18           O   tau(  18) = (  -0.1507911  -0.6670182   1.7037645  )
        19           H   tau(  19) = (   1.6902797  -2.1446124   0.7369025  )
        20           H   tau(  20) = (   1.2440915  -0.9946187  -0.2630771  )
        21           C   tau(  21) = (   1.9336873  -1.2657590   0.3789887  )
        22           O   tau(  22) = (   3.8999409  -2.7130441   1.3125897  )
        23           N   tau(  23) = (   0.8224546  -0.0227592   2.1035413  )
        24           O   tau(  24) = (   0.8130621   0.7784068   3.0327696  )
        25           N   tau(  25) = (   2.0071529  -0.2813162   1.4783211  )
        26           N   tau(  26) = (   4.1355678  -2.2249259   0.2179884  )
        27           O   tau(  27) = (   5.1456125  -2.4095158  -0.4587720  )
        28           N   tau(  28) = (   3.2087771  -1.3458537  -0.2820731  )
        29           H   tau(  29) = (   5.2714607   4.1141544   5.8321390  )
        30           H   tau(  30) = (   6.3566457   5.1820838   5.4428996  )
        31           C   tau(  31) = (   5.5353185   4.7554592   5.1542317  )
        32           O   tau(  32) = (   9.1568934   4.8039318   1.8803917  )
        33           H   tau(  33) = (   7.3158227   3.3263376   2.8472537  )
        34           H   tau(  34) = (   7.7620108   4.4763313   3.8472333  )
        35           C   tau(  35) = (   7.0724151   4.2051910   3.2051675  )
        36           O   tau(  36) = (   5.1061614   2.7579059   2.2715665  )
        37           N   tau(  37) = (   8.1836478   5.4481908   1.4806149  )
        38           O   tau(  38) = (   8.1930402   6.2493568   0.5513866  )
        39           N   tau(  39) = (   6.9989495   5.1896338   2.1058351  )
        40           N   tau(  40) = (   4.8705346   3.2460241   3.3661678  )
        41           O   tau(  41) = (   3.8604898   3.0614342   4.0429282  )
        42           N   tau(  42) = (   5.7973253   4.1250963   3.8662293  )
        43           H   tau(  43) = (   2.7987583   1.3567956   2.2479828  )
        44           H   tau(  44) = (   3.8839433   0.2888662   1.8587434  )
        45           C   tau(  45) = (   3.0626162   0.7154908   1.5700755  )
        46           O   tau(  46) = (   6.6841911   0.6670182  -1.7037645  )
        47           H   tau(  47) = (   4.8431203   2.1446124  -0.7369025  )
        48           H   tau(  48) = (   5.2893085   0.9946187   0.2630771  )
        49           C   tau(  49) = (   4.5997127   1.2657590  -0.3789887  )
        50           O   tau(  50) = (   2.6334591   2.7130441  -1.3125897  )
        51           N   tau(  51) = (   5.7109454   0.0227592  -2.1035413  )
        52           O   tau(  52) = (   5.7203379  -0.7784068  -3.0327696  )
        53           N   tau(  53) = (   4.5262471   0.2813162  -1.4783211  )
        54           N   tau(  54) = (   2.3978322   2.2249259  -0.2179884  )
        55           O   tau(  55) = (   1.3877875   2.4095158   0.4587720  )
        56           N   tau(  56) = (   3.3246229   1.3458537   0.2820731  )

   Crystallographic axes

     site n.     atom                  positions (cryst. coord.)
         1           N   tau(   1) = (  0.9815700  0.6230000  0.4606500  )
         2           O   tau(   2) = (  1.2720300  0.7202100  0.4360000  )
         3           N   tau(   3) = (  1.1403800  0.7033400  0.5304100  )
         4           N   tau(   4) = (  0.8573400  0.5257100  0.7062300  )
         5           O   tau(   5) = (  0.7272800  0.4288600  0.9230800  )
         6           N   tau(   6) = (  0.6972100  0.5020800  0.7934500  )
         7           O   tau(   7) = (  1.1414300  0.7479500  0.6831100  )
         8           C   tau(   8) = (  0.8088200  0.6156800  0.5528700  )
         9           H   tau(   9) = (  0.6815000  0.5909000  0.4633000  )
        10           H   tau(  10) = (  0.7837000  0.6960000  0.6028000  )
        11           O   tau(  11) = (  0.5346900  0.5609600  0.7376800  )
        12           C   tau(  12) = (  0.9780000  0.5653900  0.2809700  )
        13           H   tau(  13) = (  0.8425000  0.5264000  0.2407000  )
        14           H   tau(  14) = (  0.9954000  0.6240000  0.1864000  )
        15           H   tau(  15) = (  0.4954000 -0.1240000 -0.3136000  )
        16           H   tau(  16) = (  0.3425000 -0.0264000 -0.2593000  )
        17           C   tau(  17) = (  0.4780000 -0.0653900 -0.2190300  )
        18           O   tau(  18) = (  0.0346900 -0.0609600  0.2376800  )
        19           H   tau(  19) = (  0.2837000 -0.1960000  0.1028000  )
        20           H   tau(  20) = (  0.1815000 -0.0909000 -0.0367000  )
        21           C   tau(  21) = (  0.3088200 -0.1156800  0.0528700  )
        22           O   tau(  22) = (  0.6414300 -0.2479500  0.1831100  )
        23           N   tau(  23) = (  0.1972100 -0.0020800  0.2934500  )
        24           O   tau(  24) = (  0.2272800  0.0711400  0.4230800  )
        25           N   tau(  25) = (  0.3573400 -0.0257100  0.2062300  )
        26           N   tau(  26) = (  0.6403800 -0.2033400  0.0304100  )
        27           O   tau(  27) = (  0.7720300 -0.2202100 -0.0640000  )
        28           N   tau(  28) = (  0.4815700 -0.1230000 -0.0393500  )
        29           H   tau(  29) = (  1.0046000  0.3760000  0.8136000  )
        30           H   tau(  30) = (  1.1575000  0.4736000  0.7593000  )
        31           C   tau(  31) = (  1.0220000  0.4346100  0.7190300  )
        32           O   tau(  32) = (  1.4653100  0.4390400  0.2623200  )
        33           H   tau(  33) = (  1.2163000  0.3040000  0.3972000  )
        34           H   tau(  34) = (  1.3185000  0.4091000  0.5367000  )
        35           C   tau(  35) = (  1.1911800  0.3843200  0.4471300  )
        36           O   tau(  36) = (  0.8585700  0.2520500  0.3168900  )
        37           N   tau(  37) = (  1.3027900  0.4979200  0.2065500  )
        38           O   tau(  38) = (  1.2727200  0.5711400  0.0769200  )
        39           N   tau(  39) = (  1.1426600  0.4742900  0.2937700  )
        40           N   tau(  40) = (  0.8596200  0.2966600  0.4695900  )
        41           O   tau(  41) = (  0.7279700  0.2797900  0.5640000  )
        42           N   tau(  42) = (  1.0184300  0.3770000  0.5393500  )
        43           H   tau(  43) = (  0.5046000  0.1240000  0.3136000  )
        44           H   tau(  44) = (  0.6575000  0.0264000  0.2593000  )
        45           C   tau(  45) = (  0.5220000  0.0653900  0.2190300  )
        46           O   tau(  46) = (  0.9653100  0.0609600 -0.2376800  )
        47           H   tau(  47) = (  0.7163000  0.1960000 -0.1028000  )
        48           H   tau(  48) = (  0.8185000  0.0909000  0.0367000  )
        49           C   tau(  49) = (  0.6911800  0.1156800 -0.0528700  )
        50           O   tau(  50) = (  0.3585700  0.2479500 -0.1831100  )
        51           N   tau(  51) = (  0.8027900  0.0020800 -0.2934500  )
        52           O   tau(  52) = (  0.7727200 -0.0711400 -0.4230800  )
        53           N   tau(  53) = (  0.6426600  0.0257100 -0.2062300  )
        54           N   tau(  54) = (  0.3596200  0.2033400 -0.0304100  )
        55           O   tau(  55) = (  0.2279700  0.2202100  0.0640000  )
        56           N   tau(  56) = (  0.5184300  0.1230000  0.0393500  )

     number of k points=    16
                       cart. coord. in units 2pi/alat
        k(    1) = (   0.0191325   0.0228480   0.0216763), wk =   0.1250000
        k(    2) = (   0.0191325   0.0228480   0.0565520), wk =   0.1250000
        k(    3) = (   0.0191325   0.0228480  -0.0480752), wk =   0.1250000
        k(    4) = (   0.0191325   0.0228480  -0.0131994), wk =   0.1250000
        k(    5) = (   0.0573974   0.0228480   0.0301531), wk =   0.1250000
        k(    6) = (   0.0573974   0.0228480   0.0650288), wk =   0.1250000
        k(    7) = (   0.0573974   0.0228480  -0.0395983), wk =   0.1250000
        k(    8) = (   0.0573974   0.0228480  -0.0047226), wk =   0.1250000
        k(    9) = (  -0.0191325   0.0228480  -0.0216763), wk =   0.1250000
        k(   10) = (  -0.0191325   0.0228480  -0.0565520), wk =   0.1250000
        k(   11) = (  -0.0191325   0.0228480   0.0480752), wk =   0.1250000
        k(   12) = (  -0.0191325   0.0228480   0.0131994), wk =   0.1250000
        k(   13) = (  -0.0573974   0.0228480  -0.0301531), wk =   0.1250000
        k(   14) = (  -0.0573974   0.0228480  -0.0650288), wk =   0.1250000
        k(   15) = (  -0.0573974   0.0228480   0.0395983), wk =   0.1250000
        k(   16) = (  -0.0573974   0.0228480   0.0047226), wk =   0.1250000

                       cryst. coord.
        k(    1) = (   0.1250000   0.2500000   0.1250000), wk =   0.1250000
        k(    2) = (   0.1250000   0.2500000   0.3750000), wk =   0.1250000
        k(    3) = (   0.1250000   0.2500000  -0.3750000), wk =   0.1250000
        k(    4) = (   0.1250000   0.2500000  -0.1250000), wk =   0.1250000
        k(    5) = (   0.3750000   0.2500000   0.1250000), wk =   0.1250000
        k(    6) = (   0.3750000   0.2500000   0.3750000), wk =   0.1250000
        k(    7) = (   0.3750000   0.2500000  -0.3750000), wk =   0.1250000
        k(    8) = (   0.3750000   0.2500000  -0.1250000), wk =   0.1250000
        k(    9) = (  -0.1250000   0.2500000  -0.1250000), wk =   0.1250000
        k(   10) = (  -0.1250000   0.2500000  -0.3750000), wk =   0.1250000
        k(   11) = (  -0.1250000   0.2500000   0.3750000), wk =   0.1250000
        k(   12) = (  -0.1250000   0.2500000   0.1250000), wk =   0.1250000
        k(   13) = (  -0.3750000   0.2500000  -0.1250000), wk =   0.1250000
        k(   14) = (  -0.3750000   0.2500000  -0.3750000), wk =   0.1250000
        k(   15) = (  -0.3750000   0.2500000   0.3750000), wk =   0.1250000
        k(   16) = (  -0.3750000   0.2500000   0.1250000), wk =   0.1250000

     Dense  grid:  1321227 G-vectors     FFT dimensions: ( 120, 192, 125)

     Smooth grid:   334329 G-vectors     FFT dimensions: (  72, 120,  80)

     Largest allocated arrays     est. size (Mb)     dimensions
        Kohn-Sham Wavefunctions         2.25 Mb     (    1316,  112)
        NL pseudopotentials             7.07 Mb     (    1316,  352)
        Each V/rho on FFT grid          1.41 Mb     (   92160)
        Each G-vector array             0.32 Mb     (   41288)
        G-vector shells                 0.31 Mb     (   40814)
     Largest temporary arrays     est. size (Mb)     dimensions
        Auxiliary wavefunctions         9.00 Mb     (    1316,  448)
        Each subspace H/S matrix        3.06 Mb     (     448,  448)
        Each <psi_i|beta_j> matrix      0.60 Mb     (     352,  112)
        Arrays for rho mixing          11.25 Mb     (   92160,    8)

     Initial potential from superposition of free atoms

     starting charge  223.99937, renormalised to  224.00000
     Starting wfc are  176 randomized atomic wfcs
     Checking if some PAW data can be deallocated... 
       node    0, deallocated PAW data for type:  2
       node    0, deallocated PAW data for type:  3
       node    1, deallocated PAW data for type:  2
       node    1, deallocated PAW data for type:  3
       node    1, deallocated PAW data for type:  4
       node    2, deallocated PAW data for type:  2
       node    2, deallocated PAW data for type:  3
       node    3, deallocated PAW data for type:  1
       node    3, deallocated PAW data for type:  3
       node    4, deallocated PAW data for type:  1
       node    4, deallocated PAW data for type:  2
       node    4, deallocated PAW data for type:  4
       node    5, deallocated PAW data for type:  1
       node    5, deallocated PAW data for type:  3
       node    6, deallocated PAW data for type:  1
       node    6, deallocated PAW data for type:  2
       node    6, deallocated PAW data for type:  4
       node    7, deallocated PAW data for type:  1
       node    7, deallocated PAW data for type:  2
       node    7, deallocated PAW data for type:  4
       node    8, deallocated PAW data for type:  1
       node    8, deallocated PAW data for type:  3
       node    9, deallocated PAW data for type:  1
       node    9, deallocated PAW data for type:  2
       node    9, deallocated PAW data for type:  4
       node   10, deallocated PAW data for type:  1
       node   10, deallocated PAW data for type:  3
       node   11, deallocated PAW data for type:  2
       node   11, deallocated PAW data for type:  3
       node   12, deallocated PAW data for type:  2
       node   12, deallocated PAW data for type:  3
       node   12, deallocated PAW data for type:  4
       node   13, deallocated PAW data for type:  2
       node   13, deallocated PAW data for type:  3
       node   14, deallocated PAW data for type:  1
       node   14, deallocated PAW data for type:  2
       node   14, deallocated PAW data for type:  4
       node   15, deallocated PAW data for type:  1
       node   15, deallocated PAW data for type:  3
       node   16, deallocated PAW data for type:  1
       node   16, deallocated PAW data for type:  2
       node   16, deallocated PAW data for type:  4
       node   17, deallocated PAW data for type:  1
       node   17, deallocated PAW data for type:  3
       node   18, deallocated PAW data for type:  2
       node   18, deallocated PAW data for type:  3
       node   19, deallocated PAW data for type:  2
       node   19, deallocated PAW data for type:  3
       node   19, deallocated PAW data for type:  4
       node   20, deallocated PAW data for type:  2
       node   20, deallocated PAW data for type:  3
       node   21, deallocated PAW data for type:  1
       node   21, deallocated PAW data for type:  2
       node   21, deallocated PAW data for type:  4
       node   22, deallocated PAW data for type:  1
       node   22, deallocated PAW data for type:  3
       node   23, deallocated PAW data for type:  1
       node   23, deallocated PAW data for type:  2
       node   23, deallocated PAW data for type:  4
       node   24, deallocated PAW data for type:  1
       node   24, deallocated PAW data for type:  3
       node   24, deallocated PAW data for type:  4
       node   25, deallocated PAW data for type:  1
       node   25, deallocated PAW data for type:  2
       node   25, deallocated PAW data for type:  3
       node   26, deallocated PAW data for type:  2
       node   26, deallocated PAW data for type:  3
       node   26, deallocated PAW data for type:  4
       node   27, deallocated PAW data for type:  1
       node   27, deallocated PAW data for type:  2
       node   27, deallocated PAW data for type:  3
       node   28, deallocated PAW data for type:  2
       node   28, deallocated PAW data for type:  3
       node   28, deallocated PAW data for type:  4
       node   29, deallocated PAW data for type:  2
       node   29, deallocated PAW data for type:  3
       node   29, deallocated PAW data for type:  4
       node   30, deallocated PAW data for type:  1
       node   30, deallocated PAW data for type:  2
       node   30, deallocated PAW data for type:  3
       node   31, deallocated PAW data for type:  2
       node   31, deallocated PAW data for type:  3
       node   31, deallocated PAW data for type:  4

     total cpu time spent up to now is      104.4 secs

     per-process dynamical memory:    80.7 Mb

     Self-consistent Calculation

     iteration #  1     ecut=    80.00 Ry     beta=0.70
     Davidson diagonalization with overlap
     ethr =  1.00E-02,  avg # of iterations =  3.0

     total cpu time spent up to now is      269.5 secs

     total energy              =   -1279.62809861 Ry
     Harris-Foulkes estimate   =   -1283.96375704 Ry
     estimated scf accuracy    <       6.67762691 Ry

     iteration #  2     ecut=    80.00 Ry     beta=0.70
     Davidson diagonalization with overlap
     ethr =  2.98E-03,  avg # of iterations =  4.0

     total cpu time spent up to now is      451.7 secs

     total energy              =   -1280.28455534 Ry
     Harris-Foulkes estimate   =   -1283.82758128 Ry
     estimated scf accuracy    <       7.17346199 Ry

     iteration #  3     ecut=    80.00 Ry     beta=0.70
     Davidson diagonalization with overlap
     ethr =  2.98E-03,  avg # of iterations =  4.4

     total cpu time spent up to now is      589.0 secs

     total energy              =   -1281.81938564 Ry
     Harris-Foulkes estimate   =   -1282.06352736 Ry
     estimated scf accuracy    <       0.45509812 Ry

     iteration #  4     ecut=    80.00 Ry     beta=0.70
     Davidson diagonalization with overlap
     ethr =  2.03E-04,  avg # of iterations =  5.0

     total cpu time spent up to now is      781.2 secs

     total energy              =   -1281.96593549 Ry
     Harris-Foulkes estimate   =   -1282.06162136 Ry
     estimated scf accuracy    <       0.21491786 Ry

     iteration #  5     ecut=    80.00 Ry     beta=0.70
     Davidson diagonalization with overlap
     ethr =  9.59E-05,  avg # of iterations =  4.0

     total cpu time spent up to now is      921.0 secs

     total energy              =   -1282.00909055 Ry
     Harris-Foulkes estimate   =   -1282.01813134 Ry
     estimated scf accuracy    <       0.02198423 Ry

     iteration #  6     ecut=    80.00 Ry     beta=0.70
     Davidson diagonalization with overlap
     ethr =  9.81E-06,  avg # of iterations =  7.6

     total cpu time spent up to now is     1077.0 secs

     total energy              =   -1282.01259169 Ry
     Harris-Foulkes estimate   =   -1282.01432014 Ry
     estimated scf accuracy    <       0.00388076 Ry

     iteration #  7     ecut=    80.00 Ry     beta=0.70
     Davidson diagonalization with overlap
     ethr =  1.73E-06,  avg # of iterations =  4.4

     total cpu time spent up to now is     1257.0 secs

     total energy              =   -1282.01420259 Ry
     Harris-Foulkes estimate   =   -1282.01455808 Ry
     estimated scf accuracy    <       0.00079812 Ry

     iteration #  8     ecut=    80.00 Ry     beta=0.70
     Davidson diagonalization with overlap
     ethr =  3.56E-07,  avg # of iterations =  7.6

     total cpu time spent up to now is     1422.5 secs

     total energy              =   -1282.01436047 Ry
     Harris-Foulkes estimate   =   -1282.01443338 Ry
     estimated scf accuracy    <       0.00017247 Ry

     iteration #  9     ecut=    80.00 Ry     beta=0.70
     Davidson diagonalization with overlap
     ethr =  7.70E-08,  avg # of iterations =  4.8

     total cpu time spent up to now is     1599.8 secs

     total energy              =   -1282.01441362 Ry
     Harris-Foulkes estimate   =   -1282.01442487 Ry
     estimated scf accuracy    <       0.00003043 Ry

     iteration # 10     ecut=    80.00 Ry     beta=0.70
     Davidson diagonalization with overlap
     ethr =  1.36E-08,  avg # of iterations =  4.4

     total cpu time spent up to now is     1721.1 secs

     total energy              =   -1282.01441457 Ry
     Harris-Foulkes estimate   =   -1282.01441723 Ry
     estimated scf accuracy    <       0.00000668 Ry

     iteration # 11     ecut=    80.00 Ry     beta=0.70
     Davidson diagonalization with overlap
     ethr =  2.98E-09,  avg # of iterations =  5.0

     total cpu time spent up to now is     1953.3 secs

     total energy              =   -1282.01441877 Ry
     Harris-Foulkes estimate   =   -1282.01442168 Ry
     estimated scf accuracy    <       0.00000964 Ry

     iteration # 12     ecut=    80.00 Ry     beta=0.70
     Davidson diagonalization with overlap
     ethr =  2.98E-09,  avg # of iterations =  1.0

     total cpu time spent up to now is     2049.7 secs

     total energy              =   -1282.01441736 Ry
     Harris-Foulkes estimate   =   -1282.01441895 Ry
     estimated scf accuracy    <       0.00000500 Ry

     iteration # 13     ecut=    80.00 Ry     beta=0.70
     Davidson diagonalization with overlap
     ethr =  2.23E-09,  avg # of iterations =  5.0

     total cpu time spent up to now is     2215.4 secs

     total energy              =   -1282.01441959 Ry
     Harris-Foulkes estimate   =   -1282.01442046 Ry
     estimated scf accuracy    <       0.00000327 Ry

     iteration # 14     ecut=    80.00 Ry     beta=0.70
     Davidson diagonalization with overlap
     ethr =  1.46E-09,  avg # of iterations =  1.0

     total cpu time spent up to now is     2311.8 secs

     total energy              =   -1282.01441925 Ry
     Harris-Foulkes estimate   =   -1282.01441964 Ry
     estimated scf accuracy    <       0.00000187 Ry

     iteration # 15     ecut=    80.00 Ry     beta=0.70
     Davidson diagonalization with overlap
     ethr =  8.36E-10,  avg # of iterations =  5.0

     total cpu time spent up to now is     2463.1 secs

     End of self-consistent calculation

          k = 0.0191 0.0228 0.0217 ( 41792 PWs)   bands (ev):

   -23.9133 -23.8973 -23.8801 -23.8734 -23.5774 -23.5693 -23.5675 -23.5665
   -19.1304 -19.1269 -19.1155 -19.1065 -18.7882 -18.7878 -18.7846 -18.7836
   -18.2192 -18.1986 -17.1852 -17.1456 -17.0461 -17.0439 -16.0245 -16.0142
   -12.0773 -12.0748 -12.0611 -11.9809 -11.8760 -11.8238 -11.7470 -11.7301
    -8.8590  -8.8280  -8.2552  -8.2271  -7.5355  -7.5021  -7.4159  -7.4157
    -6.8253  -6.7431  -6.5581  -6.4998  -6.4832  -6.4035  -6.3215  -6.2625
    -6.1176  -6.0842  -6.0105  -5.9231  -5.8726  -5.8077  -5.7335  -5.7046
    -5.6149  -5.5913  -5.5197  -5.4872  -5.1025  -5.0009  -4.9385  -4.9168
    -4.4403  -4.4269  -4.3698  -4.3359  -4.2067  -4.1210  -3.8554  -3.8463
    -3.6726  -3.5755  -3.5030  -3.4697  -3.1568  -3.1239  -3.0356  -3.0200
    -0.7708  -0.7674  -0.2966  -0.2874  -0.2050  -0.1533  -0.0896  -0.0767
     0.0230   0.0384   0.2037   0.2242   0.2488   0.2670   0.4051   0.4097
     0.4420   0.4750   0.6499   0.6997   0.7782   0.8177   0.9023   0.9388
     0.9464   1.0370   1.0927   1.1379   1.2337   1.3400   1.3854   1.3992

     occupation numbers 
     1.0000   1.0000   1.0000   1.0000   1.0000   1.0000   1.0000   1.0000
     1.0000   1.0000   1.0000   1.0000   1.0000   1.0000   1.0000   1.0000
     1.0000   1.0000   1.0000   1.0000   1.0000   1.0000   1.0000   1.0000
     1.0000   1.0000   1.0000   1.0000   1.0000   1.0000   1.0000   1.0000
     1.0000   1.0000   1.0000   1.0000   1.0000   1.0000   1.0000   1.0000
     1.0000   1.0000   1.0000   1.0000   1.0000   1.0000   1.0000   1.0000
     1.0000   1.0000   1.0000   1.0000   1.0000   1.0000   1.0000   1.0000
     1.0000   1.0000   1.0000   1.0000   1.0000   1.0000   1.0000   1.0000
     1.0000   1.0000   1.0000   1.0000   1.0000   1.0000   1.0000   1.0000
     1.0000   1.0000   1.0000   1.0000   1.0000   1.0000   1.0000   1.0000
     1.0000   1.0000   1.0000   1.0000   1.0000   1.0000   1.0000   1.0000
     1.0000   1.0000   1.0000   1.0000   1.0000   1.0000   1.0000   1.0000
     1.0000   1.0000   1.0000   1.0000   1.0000   1.0000   1.0000   1.0000
     1.0000   1.0000   1.0000   1.0000   1.0000   1.0000   1.0000   1.0000

          k = 0.0191 0.0228 0.0566 ( 41778 PWs)   bands (ev):

   -23.9063 -23.8997 -23.8789 -23.8780 -23.5784 -23.5759 -23.5653 -23.5624
   -19.1289 -19.1258 -19.1164 -19.1095 -18.7940 -18.7934 -18.7796 -18.7780
   -18.2104 -18.2100 -17.1665 -17.1645 -17.0409 -17.0387 -16.0216 -16.0201
   -12.0830 -12.0794 -12.0226 -12.0058 -11.8499 -11.8398 -11.7577 -11.7495
    -8.8393  -8.8115  -8.2394  -8.2197  -7.5421  -7.5034  -7.3918  -7.3330
    -6.8746  -6.7848  -6.5598  -6.5363  -6.4980  -6.4088  -6.3646  -6.3318
    -6.1432  -6.1122  -5.9460  -5.8765  -5.8590  -5.7996  -5.7740  -5.7451
    -5.6866  -5.6321  -5.4557  -5.4181  -5.0959  -5.0263  -4.9337  -4.8927
    -4.3811  -4.3655  -4.3327  -4.2692  -4.1342  -4.1132  -3.9698  -3.9681
    -3.6548  -3.6130  -3.4465  -3.4371  -3.1807  -3.1749  -3.0233  -3.0011
    -0.7334  -0.7095  -0.3099  -0.2978  -0.2119  -0.1712  -0.1256  -0.0976
    -0.0436  -0.0137   0.1211   0.1634   0.2596   0.3018   0.3573   0.3756
     0.5671   0.6131   0.6759   0.7068   0.8012   0.8215   0.8468   0.9034
     1.0010   1.0416   1.1236   1.1397   1.2461   1.3024   1.3847   1.4022

     occupation numbers 
     1.0000   1.0000   1.0000   1.0000   1.0000   1.0000   1.0000   1.0000
     1.0000   1.0000   1.0000   1.0000   1.0000   1.0000   1.0000   1.0000
     1.0000   1.0000   1.0000   1.0000   1.0000   1.0000   1.0000   1.0000
     1.0000   1.0000   1.0000   1.0000   1.0000   1.0000   1.0000   1.0000
     1.0000   1.0000   1.0000   1.0000   1.0000   1.0000   1.0000   1.0000
     1.0000   1.0000   1.0000   1.0000   1.0000   1.0000   1.0000   1.0000
     1.0000   1.0000   1.0000   1.0000   1.0000   1.0000   1.0000   1.0000
     1.0000   1.0000   1.0000   1.0000   1.0000   1.0000   1.0000   1.0000
     1.0000   1.0000   1.0000   1.0000   1.0000   1.0000   1.0000   1.0000
     1.0000   1.0000   1.0000   1.0000   1.0000   1.0000   1.0000   1.0000
     1.0000   1.0000   1.0000   1.0000   1.0000   1.0000   1.0000   1.0000
     1.0000   1.0000   1.0000   1.0000   1.0000   1.0000   1.0000   1.0000
     1.0000   1.0000   1.0000   1.0000   1.0000   1.0000   1.0000   1.0000
     1.0000   1.0000   1.0000   1.0000   1.0000   1.0000   1.0000   1.0000

          k = 0.0191 0.0228-0.0481 ( 41793 PWs)   bands (ev):

   -23.9075 -23.8994 -23.8813 -23.8745 -23.5801 -23.5777 -23.5626 -23.5616
   -19.1267 -19.1258 -19.1145 -19.1140 -18.7953 -18.7951 -18.7779 -18.7765
   -18.2195 -18.1997 -17.1834 -17.1469 -17.0436 -17.0422 -16.0236 -16.0112
   -12.0968 -12.0808 -12.0453 -11.9848 -11.8651 -11.8129 -11.7590 -11.7500
    -8.8434  -8.7781  -8.2300  -8.2261  -7.5397  -7.5283  -7.4018  -7.3115
    -6.8789  -6.7916  -6.5732  -6.5317  -6.4793  -6.4544  -6.3855  -6.3551
    -6.1450  -6.1228  -5.9459  -5.9131  -5.8016  -5.7689  -5.7576  -5.7294
    -5.6902  -5.6272  -5.4542  -5.4047  -5.1099  -5.0322  -4.9170  -4.8727
    -4.4191  -4.3637  -4.2979  -4.2513  -4.1699  -4.1323  -3.9725  -3.9307
    -3.6569  -3.6172  -3.4897  -3.4263  -3.1847  -3.1634  -3.0191  -3.0100
    -0.6650  -0.6203  -0.3028  -0.2933  -0.2460  -0.2214  -0.1650  -0.1392
    -0.0788  -0.0692   0.0885   0.1522   0.2758   0.3061   0.3234   0.3672
     0.6097   0.6733   0.7163   0.7338   0.7632   0.8420   0.8717   0.8922
     1.0074   1.0431   1.1375   1.1760   1.2462   1.2699   1.3714   1.3891

     occupation numbers 
     1.0000   1.0000   1.0000   1.0000   1.0000   1.0000   1.0000   1.0000
     1.0000   1.0000   1.0000   1.0000   1.0000   1.0000   1.0000   1.0000
     1.0000   1.0000   1.0000   1.0000   1.0000   1.0000   1.0000   1.0000
     1.0000   1.0000   1.0000   1.0000   1.0000   1.0000   1.0000   1.0000
     1.0000   1.0000   1.0000   1.0000   1.0000   1.0000   1.0000   1.0000
     1.0000   1.0000   1.0000   1.0000   1.0000   1.0000   1.0000   1.0000
     1.0000   1.0000   1.0000   1.0000   1.0000   1.0000   1.0000   1.0000
     1.0000   1.0000   1.0000   1.0000   1.0000   1.0000   1.0000   1.0000
     1.0000   1.0000   1.0000   1.0000   1.0000   1.0000   1.0000   1.0000
     1.0000   1.0000   1.0000   1.0000   1.0000   1.0000   1.0000   1.0000
     1.0000   1.0000   1.0000   1.0000   1.0000   1.0000   1.0000   1.0000
     1.0000   1.0000   1.0000   1.0000   1.0000   1.0000   1.0000   1.0000
     1.0000   1.0000   1.0000   1.0000   1.0000   1.0000   1.0000   1.0000
     1.0000   1.0000   1.0000   1.0000   1.0000   1.0000   1.0000   1.0000

          k = 0.0191 0.0228-0.0132 ( 41813 PWs)   bands (ev):

   -23.9139 -23.8978 -23.8805 -23.8719 -23.5796 -23.5730 -23.5644 -23.5637
   -19.1292 -19.1257 -19.1158 -19.1087 -18.7916 -18.7915 -18.7806 -18.7804
   -18.2227 -18.1939 -17.1920 -17.1380 -17.0486 -17.0479 -16.0239 -16.0079
   -12.0992 -12.0780 -12.0577 -11.9797 -11.8730 -11.8133 -11.7462 -11.7312
    -8.8644  -8.7933  -8.2497  -8.2299  -7.5416  -7.5221  -7.4426  -7.3768
    -6.7919  -6.7732  -6.5756  -6.4969  -6.4836  -6.4355  -6.3535  -6.2977
    -6.1241  -6.0934  -5.9747  -5.9343  -5.8341  -5.7989  -5.7064  -5.6982
    -5.6186  -5.5919  -5.5016  -5.4872  -5.0875  -5.0407  -4.9179  -4.8841
    -4.4427  -4.4292  -4.3708  -4.3403  -4.2168  -4.1299  -3.8590  -3.8122
    -3.6939  -3.5829  -3.5149  -3.4721  -3.1616  -3.1197  -3.0306  -3.0267
    -0.7203  -0.7035  -0.2866  -0.2763  -0.2078  -0.1630  -0.0949  -0.0762
    -0.0645  -0.0246   0.0998   0.1538   0.2159   0.2791   0.3550   0.4103
     0.5772   0.6206   0.6394   0.7276   0.7575   0.8218   0.9196   0.9274
     0.9657   1.0217   1.1175   1.1659   1.2236   1.3219   1.3721   1.3866

     occupation numbers 
     1.0000   1.0000   1.0000   1.0000   1.0000   1.0000   1.0000   1.0000
     1.0000   1.0000   1.0000   1.0000   1.0000   1.0000   1.0000   1.0000
     1.0000   1.0000   1.0000   1.0000   1.0000   1.0000   1.0000   1.0000
     1.0000   1.0000   1.0000   1.0000   1.0000   1.0000   1.0000   1.0000
     1.0000   1.0000   1.0000   1.0000   1.0000   1.0000   1.0000   1.0000
     1.0000   1.0000   1.0000   1.0000   1.0000   1.0000   1.0000   1.0000
     1.0000   1.0000   1.0000   1.0000   1.0000   1.0000   1.0000   1.0000
     1.0000   1.0000   1.0000   1.0000   1.0000   1.0000   1.0000   1.0000
     1.0000   1.0000   1.0000   1.0000   1.0000   1.0000   1.0000   1.0000
     1.0000   1.0000   1.0000   1.0000   1.0000   1.0000   1.0000   1.0000
     1.0000   1.0000   1.0000   1.0000   1.0000   1.0000   1.0000   1.0000
     1.0000   1.0000   1.0000   1.0000   1.0000   1.0000   1.0000   1.0000
     1.0000   1.0000   1.0000   1.0000   1.0000   1.0000   1.0000   1.0000
     1.0000   1.0000   1.0000   1.0000   1.0000   1.0000   1.0000   1.0000

          k = 0.0574 0.0228 0.0302 ( 41780 PWs)   bands (ev):

   -23.9039 -23.8969 -23.8795 -23.8788 -23.5758 -23.5732 -23.5692 -23.5664
   -19.1285 -19.1259 -19.1172 -19.1104 -18.7920 -18.7912 -18.7820 -18.7807
   -18.2155 -18.2151 -17.1642 -17.1625 -17.0463 -17.0446 -16.0219 -16.0202
   -12.0716 -12.0701 -11.9904 -11.9752 -11.8241 -11.8099 -11.7578 -11.7445
    -8.8593  -8.8336  -8.2551  -8.2370  -7.5319  -7.5096  -7.4795  -7.4397
    -6.9587  -6.9100  -6.6118  -6.5235  -6.4376  -6.4000  -6.2571  -6.2053
    -6.1821  -6.1299  -5.9747  -5.9260  -5.8624  -5.8216  -5.7383  -5.7063
    -5.6110  -5.5870  -5.5244  -5.5096  -5.1210  -5.0339  -4.9019  -4.8965
    -4.4141  -4.3949  -4.3463  -4.3068  -4.0161  -3.9713  -3.7956  -3.7643
    -3.7143  -3.6286  -3.5735  -3.5624  -3.1529  -3.1474  -3.0402  -3.0145
    -0.7239  -0.7158  -0.2754  -0.2709  -0.2072  -0.1829  -0.0905  -0.0553
    -0.0448  -0.0192   0.1362   0.1637   0.2229   0.2439   0.3766   0.3936
     0.6078   0.6139   0.6629   0.7098   0.7985   0.8034   0.8965   0.9250
     0.9587   1.0100   1.0365   1.0724   1.3008   1.3248   1.3641   1.3931

     occupation numbers 
     1.0000   1.0000   1.0000   1.0000   1.0000   1.0000   1.0000   1.0000
     1.0000   1.0000   1.0000   1.0000   1.0000   1.0000   1.0000   1.0000
     1.0000   1.0000   1.0000   1.0000   1.0000   1.0000   1.0000   1.0000
     1.0000   1.0000   1.0000   1.0000   1.0000   1.0000   1.0000   1.0000
     1.0000   1.0000   1.0000   1.0000   1.0000   1.0000   1.0000   1.0000
     1.0000   1.0000   1.0000   1.0000   1.0000   1.0000   1.0000   1.0000
     1.0000   1.0000   1.0000   1.0000   1.0000   1.0000   1.0000   1.0000
     1.0000   1.0000   1.0000   1.0000   1.0000   1.0000   1.0000   1.0000
     1.0000   1.0000   1.0000   1.0000   1.0000   1.0000   1.0000   1.0000
     1.0000   1.0000   1.0000   1.0000   1.0000   1.0000   1.0000   1.0000
     1.0000   1.0000   1.0000   1.0000   1.0000   1.0000   1.0000   1.0000
     1.0000   1.0000   1.0000   1.0000   1.0000   1.0000   1.0000   1.0000
     1.0000   1.0000   1.0000   1.0000   1.0000   1.0000   1.0000   1.0000
     1.0000   1.0000   1.0000   1.0000   1.0000   1.0000   1.0000   1.0000

          k = 0.0574 0.0228 0.0650 ( 41788 PWs)   bands (ev):

   -23.9005 -23.8991 -23.8824 -23.8762 -23.5749 -23.5747 -23.5712 -23.5646
   -19.1294 -19.1274 -19.1174 -19.1092 -18.8019 -18.8003 -18.7739 -18.7709
   -18.2283 -18.2090 -17.1796 -17.1448 -17.0358 -17.0327 -16.0361 -16.0211
   -12.0865 -12.0804 -12.0115 -11.9542 -11.8173 -11.7850 -11.7626 -11.7490
    -8.8950  -8.8002  -8.2508  -8.2202  -7.5218  -7.5074  -7.4405  -7.3417
    -7.0416  -6.8846  -6.6038  -6.4881  -6.4604  -6.4250  -6.3779  -6.2833
    -6.2357  -6.1508  -5.9627  -5.9301  -5.8798  -5.8328  -5.7700  -5.7161
    -5.5984  -5.5607  -5.4702  -5.4113  -5.1308  -5.0022  -4.9624  -4.9090
    -4.3590  -4.3340  -4.2932  -4.2449  -3.9764  -3.9509  -3.8941  -3.8679
    -3.7353  -3.6646  -3.5611  -3.4914  -3.1947  -3.1733  -3.0316  -2.9834
    -0.7956  -0.7674  -0.2832  -0.2552  -0.2027  -0.1817  -0.0802  -0.0540
     0.0110   0.0361   0.2026   0.2234   0.2557   0.2733   0.3471   0.4262
     0.5043   0.5182   0.5987   0.6923   0.7809   0.8236   0.8841   0.9033
     0.9844   1.0252   1.0538   1.0817   1.3137   1.3433   1.3698   1.4038

     occupation numbers 
     1.0000   1.0000   1.0000   1.0000   1.0000   1.0000   1.0000   1.0000
     1.0000   1.0000   1.0000   1.0000   1.0000   1.0000   1.0000   1.0000
     1.0000   1.0000   1.0000   1.0000   1.0000   1.0000   1.0000   1.0000
     1.0000   1.0000   1.0000   1.0000   1.0000   1.0000   1.0000   1.0000
     1.0000   1.0000   1.0000   1.0000   1.0000   1.0000   1.0000   1.0000
     1.0000   1.0000   1.0000   1.0000   1.0000   1.0000   1.0000   1.0000
     1.0000   1.0000   1.0000   1.0000   1.0000   1.0000   1.0000   1.0000
     1.0000   1.0000   1.0000   1.0000   1.0000   1.0000   1.0000   1.0000
     1.0000   1.0000   1.0000   1.0000   1.0000   1.0000   1.0000   1.0000
     1.0000   1.0000   1.0000   1.0000   1.0000   1.0000   1.0000   1.0000
     1.0000   1.0000   1.0000   1.0000   1.0000   1.0000   1.0000   1.0000
     1.0000   1.0000   1.0000   1.0000   1.0000   1.0000   1.0000   1.0000
     1.0000   1.0000   1.0000   1.0000   1.0000   1.0000   1.0000   1.0000
     1.0000   1.0000   1.0000   1.0000   1.0000   1.0000   1.0000   1.0000

          k = 0.0574 0.0228-0.0396 ( 41762 PWs)   bands (ev):

   -23.9028 -23.8980 -23.8832 -23.8741 -23.5781 -23.5773 -23.5673 -23.5629
   -19.1277 -19.1264 -19.1179 -19.1116 -18.8027 -18.8012 -18.7730 -18.7700
   -18.2319 -18.2043 -17.1872 -17.1363 -17.0388 -17.0363 -16.0349 -16.0154
   -12.0927 -12.0840 -12.0293 -11.9424 -11.8247 -11.7728 -11.7578 -11.7498
    -8.8881  -8.7781  -8.2464  -8.2211  -7.5235  -7.5053  -7.4647  -7.3315
    -7.0543  -6.8819  -6.5973  -6.5071  -6.4704  -6.4446  -6.4029  -6.3183
    -6.2191  -6.1482  -5.9516  -5.9038  -5.8456  -5.8440  -5.7660  -5.7242
    -5.5784  -5.5544  -5.4737  -5.4080  -5.1320  -5.0321  -4.9293  -4.8893
    -4.3708  -4.3375  -4.2745  -4.2468  -4.0051  -3.9900  -3.8473  -3.8361
    -3.7009  -3.6856  -3.6099  -3.5019  -3.1972  -3.1673  -3.0302  -2.9893
    -0.7509  -0.7053  -0.2775  -0.2396  -0.2142  -0.1891  -0.0905  -0.0706
    -0.0594  -0.0146   0.1413   0.2094   0.2459   0.2863   0.3011   0.3344
     0.5668   0.6227   0.6725   0.6886   0.7933   0.8172   0.8924   0.9034
     0.9866   1.0198   1.0747   1.1209   1.3260   1.3403   1.3477   1.3702

     occupation numbers 
     1.0000   1.0000   1.0000   1.0000   1.0000   1.0000   1.0000   1.0000
     1.0000   1.0000   1.0000   1.0000   1.0000   1.0000   1.0000   1.0000
     1.0000   1.0000   1.0000   1.0000   1.0000   1.0000   1.0000   1.0000
     1.0000   1.0000   1.0000   1.0000   1.0000   1.0000   1.0000   1.0000
     1.0000   1.0000   1.0000   1.0000   1.0000   1.0000   1.0000   1.0000
     1.0000   1.0000   1.0000   1.0000   1.0000   1.0000   1.0000   1.0000
     1.0000   1.0000   1.0000   1.0000   1.0000   1.0000   1.0000   1.0000
     1.0000   1.0000   1.0000   1.0000   1.0000   1.0000   1.0000   1.0000
     1.0000   1.0000   1.0000   1.0000   1.0000   1.0000   1.0000   1.0000
     1.0000   1.0000   1.0000   1.0000   1.0000   1.0000   1.0000   1.0000
     1.0000   1.0000   1.0000   1.0000   1.0000   1.0000   1.0000   1.0000
     1.0000   1.0000   1.0000   1.0000   1.0000   1.0000   1.0000   1.0000
     1.0000   1.0000   1.0000   1.0000   1.0000   1.0000   1.0000   1.0000
     1.0000   1.0000   1.0000   1.0000   1.0000   1.0000   1.0000   1.0000

          k = 0.0574 0.0228-0.0047 ( 41783 PWs)   bands (ev):

   -23.9051 -23.8969 -23.8819 -23.8753 -23.5786 -23.5759 -23.5657 -23.5644
   -19.1263 -19.1254 -19.1155 -19.1150 -18.7941 -18.7936 -18.7797 -18.7786
   -18.2247 -18.2047 -17.1815 -17.1441 -17.0488 -17.0486 -16.0239 -16.0114
   -12.0791 -12.0725 -12.0220 -11.9496 -11.8370 -11.7894 -11.7528 -11.7483
    -8.8635  -8.7996  -8.2467  -8.2425  -7.5280  -7.5233  -7.5049  -7.4214
    -6.9692  -6.8999  -6.5857  -6.5653  -6.4365  -6.4298  -6.3037  -6.2806
    -6.1315  -6.1292  -5.9325  -5.8988  -5.8323  -5.8113  -5.7342  -5.7257
    -5.6048  -5.5861  -5.5209  -5.5117  -5.0950  -5.0764  -4.8776  -4.8734
    -4.4199  -4.3930  -4.3463  -4.3085  -4.0222  -3.9932  -3.7642  -3.7570
    -3.6782  -3.6498  -3.6202  -3.5709  -3.1648  -3.1364  -3.0359  -3.0218
    -0.6666  -0.6306  -0.2781  -0.2647  -0.2063  -0.1904  -0.1662  -0.1537
    -0.0605  -0.0264   0.0993   0.1521   0.2131   0.2494   0.3513   0.3851
     0.5879   0.6500   0.7288   0.7695   0.7727   0.8278   0.9153   0.9287
     0.9728   0.9854   1.0490   1.1163   1.3149   1.3185   1.3413   1.3569

     occupation numbers 
     1.0000   1.0000   1.0000   1.0000   1.0000   1.0000   1.0000   1.0000
     1.0000   1.0000   1.0000   1.0000   1.0000   1.0000   1.0000   1.0000
     1.0000   1.0000   1.0000   1.0000   1.0000   1.0000   1.0000   1.0000
     1.0000   1.0000   1.0000   1.0000   1.0000   1.0000   1.0000   1.0000
     1.0000   1.0000   1.0000   1.0000   1.0000   1.0000   1.0000   1.0000
     1.0000   1.0000   1.0000   1.0000   1.0000   1.0000   1.0000   1.0000
     1.0000   1.0000   1.0000   1.0000   1.0000   1.0000   1.0000   1.0000
     1.0000   1.0000   1.0000   1.0000   1.0000   1.0000   1.0000   1.0000
     1.0000   1.0000   1.0000   1.0000   1.0000   1.0000   1.0000   1.0000
     1.0000   1.0000   1.0000   1.0000   1.0000   1.0000   1.0000   1.0000
     1.0000   1.0000   1.0000   1.0000   1.0000   1.0000   1.0000   1.0000
     1.0000   1.0000   1.0000   1.0000   1.0000   1.0000   1.0000   1.0000
     1.0000   1.0000   1.0000   1.0000   1.0000   1.0000   1.0000   1.0000
     1.0000   1.0000   1.0000   1.0000   1.0000   1.0000   1.0000   1.0000

          k =-0.0191 0.0228-0.0217 ( 41792 PWs)   bands (ev):

   -23.9133 -23.8973 -23.8801 -23.8734 -23.5774 -23.5693 -23.5675 -23.5666
   -19.1304 -19.1269 -19.1155 -19.1065 -18.7882 -18.7878 -18.7846 -18.7836
   -18.2192 -18.1986 -17.1852 -17.1456 -17.0461 -17.0439 -16.0245 -16.0142
   -12.0773 -12.0748 -12.0611 -11.9810 -11.8760 -11.8238 -11.7470 -11.7301
    -8.8590  -8.8280  -8.2552  -8.2271  -7.5355  -7.5021  -7.4159  -7.4157
    -6.8253  -6.7430  -6.5581  -6.4999  -6.4832  -6.4035  -6.3215  -6.2624
    -6.1176  -6.0842  -6.0105  -5.9231  -5.8726  -5.8077  -5.7335  -5.7046
    -5.6149  -5.5913  -5.5197  -5.4872  -5.1025  -5.0009  -4.9385  -4.9168
    -4.4403  -4.4269  -4.3698  -4.3359  -4.2067  -4.1210  -3.8554  -3.8463
    -3.6726  -3.5755  -3.5030  -3.4697  -3.1568  -3.1239  -3.0356  -3.0200
    -0.7708  -0.7674  -0.2966  -0.2874  -0.2050  -0.1533  -0.0896  -0.0767
     0.0231   0.0385   0.2037   0.2242   0.2488   0.2670   0.4051   0.4097
     0.4421   0.4750   0.6500   0.6997   0.7782   0.8177   0.9023   0.9389
     0.9463   1.0370   1.0927   1.1378   1.2337   1.3401   1.3853   1.3992

     occupation numbers 
     1.0000   1.0000   1.0000   1.0000   1.0000   1.0000   1.0000   1.0000
     1.0000   1.0000   1.0000   1.0000   1.0000   1.0000   1.0000   1.0000
     1.0000   1.0000   1.0000   1.0000   1.0000   1.0000   1.0000   1.0000
     1.0000   1.0000   1.0000   1.0000   1.0000   1.0000   1.0000   1.0000
     1.0000   1.0000   1.0000   1.0000   1.0000   1.0000   1.0000   1.0000
     1.0000   1.0000   1.0000   1.0000   1.0000   1.0000   1.0000   1.0000
     1.0000   1.0000   1.0000   1.0000   1.0000   1.0000   1.0000   1.0000
     1.0000   1.0000   1.0000   1.0000   1.0000   1.0000   1.0000   1.0000
     1.0000   1.0000   1.0000   1.0000   1.0000   1.0000   1.0000   1.0000
     1.0000   1.0000   1.0000   1.0000   1.0000   1.0000   1.0000   1.0000
     1.0000   1.0000   1.0000   1.0000   1.0000   1.0000   1.0000   1.0000
     1.0000   1.0000   1.0000   1.0000   1.0000   1.0000   1.0000   1.0000
     1.0000   1.0000   1.0000   1.0000   1.0000   1.0000   1.0000   1.0000
     1.0000   1.0000   1.0000   1.0000   1.0000   1.0000   1.0000   1.0000

          k =-0.0191 0.0228-0.0566 ( 41778 PWs)   bands (ev):

   -23.9063 -23.8997 -23.8789 -23.8779 -23.5784 -23.5759 -23.5653 -23.5624
   -19.1289 -19.1258 -19.1164 -19.1095 -18.7940 -18.7934 -18.7796 -18.7780
   -18.2104 -18.2100 -17.1665 -17.1645 -17.0409 -17.0386 -16.0216 -16.0201
   -12.0830 -12.0794 -12.0226 -12.0058 -11.8499 -11.8398 -11.7577 -11.7495
    -8.8393  -8.8115  -8.2394  -8.2197  -7.5421  -7.5034  -7.3918  -7.3330
    -6.8746  -6.7848  -6.5598  -6.5363  -6.4980  -6.4089  -6.3646  -6.3318
    -6.1432  -6.1122  -5.9460  -5.8765  -5.8590  -5.7996  -5.7740  -5.7451
    -5.6866  -5.6321  -5.4557  -5.4181  -5.0959  -5.0263  -4.9337  -4.8927
    -4.3811  -4.3656  -4.3327  -4.2692  -4.1342  -4.1132  -3.9698  -3.9681
    -3.6548  -3.6130  -3.4465  -3.4371  -3.1807  -3.1749  -3.0233  -3.0011
    -0.7334  -0.7095  -0.3099  -0.2978  -0.2119  -0.1712  -0.1256  -0.0976
    -0.0436  -0.0137   0.1212   0.1634   0.2596   0.3018   0.3573   0.3756
     0.5670   0.6131   0.6759   0.7067   0.8012   0.8215   0.8469   0.9034
     1.0010   1.0417   1.1236   1.1397   1.2461   1.3024   1.3847   1.4022

     occupation numbers 
     1.0000   1.0000   1.0000   1.0000   1.0000   1.0000   1.0000   1.0000
     1.0000   1.0000   1.0000   1.0000   1.0000   1.0000   1.0000   1.0000
     1.0000   1.0000   1.0000   1.0000   1.0000   1.0000   1.0000   1.0000
     1.0000   1.0000   1.0000   1.0000   1.0000   1.0000   1.0000   1.0000
     1.0000   1.0000   1.0000   1.0000   1.0000   1.0000   1.0000   1.0000
     1.0000   1.0000   1.0000   1.0000   1.0000   1.0000   1.0000   1.0000
     1.0000   1.0000   1.0000   1.0000   1.0000   1.0000   1.0000   1.0000
     1.0000   1.0000   1.0000   1.0000   1.0000   1.0000   1.0000   1.0000
     1.0000   1.0000   1.0000   1.0000   1.0000   1.0000   1.0000   1.0000
     1.0000   1.0000   1.0000   1.0000   1.0000   1.0000   1.0000   1.0000
     1.0000   1.0000   1.0000   1.0000   1.0000   1.0000   1.0000   1.0000
     1.0000   1.0000   1.0000   1.0000   1.0000   1.0000   1.0000   1.0000
     1.0000   1.0000   1.0000   1.0000   1.0000   1.0000   1.0000   1.0000
     1.0000   1.0000   1.0000   1.0000   1.0000   1.0000   1.0000   1.0000

          k =-0.0191 0.0228 0.0481 ( 41793 PWs)   bands (ev):

   -23.9075 -23.8994 -23.8813 -23.8745 -23.5801 -23.5777 -23.5627 -23.5616
   -19.1267 -19.1258 -19.1145 -19.1140 -18.7954 -18.7951 -18.7779 -18.7765
   -18.2195 -18.1997 -17.1834 -17.1469 -17.0437 -17.0422 -16.0236 -16.0112
   -12.0968 -12.0808 -12.0453 -11.9848 -11.8651 -11.8129 -11.7590 -11.7500
    -8.8434  -8.7781  -8.2301  -8.2260  -7.5397  -7.5283  -7.4018  -7.3115
    -6.8789  -6.7916  -6.5732  -6.5317  -6.4793  -6.4545  -6.3855  -6.3551
    -6.1450  -6.1228  -5.9460  -5.9130  -5.8016  -5.7689  -5.7576  -5.7294
    -5.6902  -5.6272  -5.4542  -5.4047  -5.1099  -5.0321  -4.9170  -4.8726
    -4.4191  -4.3637  -4.2979  -4.2513  -4.1699  -4.1323  -3.9725  -3.9307
    -3.6569  -3.6172  -3.4897  -3.4263  -3.1847  -3.1634  -3.0191  -3.0100
    -0.6650  -0.6203  -0.3028  -0.2933  -0.2460  -0.2214  -0.1650  -0.1392
    -0.0788  -0.0692   0.0885   0.1522   0.2758   0.3061   0.3233   0.3672
     0.6097   0.6734   0.7162   0.7338   0.7632   0.8420   0.8716   0.8922
     1.0075   1.0431   1.1375   1.1760   1.2462   1.2699   1.3714   1.3892

     occupation numbers 
     1.0000   1.0000   1.0000   1.0000   1.0000   1.0000   1.0000   1.0000
     1.0000   1.0000   1.0000   1.0000   1.0000   1.0000   1.0000   1.0000
     1.0000   1.0000   1.0000   1.0000   1.0000   1.0000   1.0000   1.0000
     1.0000   1.0000   1.0000   1.0000   1.0000   1.0000   1.0000   1.0000
     1.0000   1.0000   1.0000   1.0000   1.0000   1.0000   1.0000   1.0000
     1.0000   1.0000   1.0000   1.0000   1.0000   1.0000   1.0000   1.0000
     1.0000   1.0000   1.0000   1.0000   1.0000   1.0000   1.0000   1.0000
     1.0000   1.0000   1.0000   1.0000   1.0000   1.0000   1.0000   1.0000
     1.0000   1.0000   1.0000   1.0000   1.0000   1.0000   1.0000   1.0000
     1.0000   1.0000   1.0000   1.0000   1.0000   1.0000   1.0000   1.0000
     1.0000   1.0000   1.0000   1.0000   1.0000   1.0000   1.0000   1.0000
     1.0000   1.0000   1.0000   1.0000   1.0000   1.0000   1.0000   1.0000
     1.0000   1.0000   1.0000   1.0000   1.0000   1.0000   1.0000   1.0000
     1.0000   1.0000   1.0000   1.0000   1.0000   1.0000   1.0000   1.0000

          k =-0.0191 0.0228 0.0132 ( 41813 PWs)   bands (ev):

   -23.9139 -23.8978 -23.8805 -23.8719 -23.5796 -23.5730 -23.5644 -23.5637
   -19.1292 -19.1257 -19.1158 -19.1087 -18.7916 -18.7915 -18.7805 -18.7804
   -18.2227 -18.1939 -17.1920 -17.1380 -17.0486 -17.0479 -16.0239 -16.0079
   -12.0992 -12.0780 -12.0577 -11.9797 -11.8730 -11.8133 -11.7462 -11.7312
    -8.8644  -8.7933  -8.2497  -8.2299  -7.5416  -7.5221  -7.4426  -7.3768
    -6.7919  -6.7732  -6.5756  -6.4969  -6.4836  -6.4354  -6.3535  -6.2977
    -6.1241  -6.0934  -5.9747  -5.9343  -5.8341  -5.7989  -5.7064  -5.6982
    -5.6186  -5.5919  -5.5016  -5.4872  -5.0875  -5.0406  -4.9180  -4.8841
    -4.4427  -4.4292  -4.3708  -4.3402  -4.2168  -4.1299  -3.8590  -3.8122
    -3.6939  -3.5829  -3.5149  -3.4721  -3.1616  -3.1198  -3.0306  -3.0267
    -0.7203  -0.7035  -0.2866  -0.2763  -0.2078  -0.1630  -0.0949  -0.0762
    -0.0645  -0.0246   0.0998   0.1538   0.2159   0.2791   0.3550   0.4103
     0.5772   0.6205   0.6395   0.7276   0.7575   0.8217   0.9197   0.9274
     0.9657   1.0217   1.1175   1.1659   1.2237   1.3218   1.3722   1.3865

     occupation numbers 
     1.0000   1.0000   1.0000   1.0000   1.0000   1.0000   1.0000   1.0000
     1.0000   1.0000   1.0000   1.0000   1.0000   1.0000   1.0000   1.0000
     1.0000   1.0000   1.0000   1.0000   1.0000   1.0000   1.0000   1.0000
     1.0000   1.0000   1.0000   1.0000   1.0000   1.0000   1.0000   1.0000
     1.0000   1.0000   1.0000   1.0000   1.0000   1.0000   1.0000   1.0000
     1.0000   1.0000   1.0000   1.0000   1.0000   1.0000   1.0000   1.0000
     1.0000   1.0000   1.0000   1.0000   1.0000   1.0000   1.0000   1.0000
     1.0000   1.0000   1.0000   1.0000   1.0000   1.0000   1.0000   1.0000
     1.0000   1.0000   1.0000   1.0000   1.0000   1.0000   1.0000   1.0000
     1.0000   1.0000   1.0000   1.0000   1.0000   1.0000   1.0000   1.0000
     1.0000   1.0000   1.0000   1.0000   1.0000   1.0000   1.0000   1.0000
     1.0000   1.0000   1.0000   1.0000   1.0000   1.0000   1.0000   1.0000
     1.0000   1.0000   1.0000   1.0000   1.0000   1.0000   1.0000   1.0000
     1.0000   1.0000   1.0000   1.0000   1.0000   1.0000   1.0000   1.0000

          k =-0.0574 0.0228-0.0302 ( 41780 PWs)   bands (ev):

   -23.9039 -23.8969 -23.8795 -23.8788 -23.5758 -23.5732 -23.5692 -23.5664
   -19.1285 -19.1259 -19.1172 -19.1104 -18.7920 -18.7912 -18.7820 -18.7807
   -18.2155 -18.2151 -17.1642 -17.1625 -17.0463 -17.0446 -16.0219 -16.0202
   -12.0716 -12.0701 -11.9904 -11.9752 -11.8241 -11.8099 -11.7578 -11.7445
    -8.8593  -8.8336  -8.2551  -8.2370  -7.5319  -7.5096  -7.4796  -7.4396
    -6.9588  -6.9100  -6.6118  -6.5235  -6.4376  -6.3999  -6.2571  -6.2053
    -6.1821  -6.1299  -5.9746  -5.9260  -5.8624  -5.8215  -5.7383  -5.7063
    -5.6110  -5.5870  -5.5244  -5.5096  -5.1209  -5.0339  -4.9019  -4.8965
    -4.4141  -4.3949  -4.3463  -4.3068  -4.0161  -3.9713  -3.7956  -3.7643
    -3.7143  -3.6286  -3.5735  -3.5624  -3.1529  -3.1475  -3.0402  -3.0145
    -0.7239  -0.7158  -0.2754  -0.2709  -0.2072  -0.1829  -0.0905  -0.0552
    -0.0448  -0.0192   0.1362   0.1638   0.2229   0.2440   0.3766   0.3936
     0.6079   0.6139   0.6629   0.7098   0.7985   0.8034   0.8965   0.9250
     0.9587   1.0100   1.0365   1.0724   1.3008   1.3248   1.3641   1.3931

     occupation numbers 
     1.0000   1.0000   1.0000   1.0000   1.0000   1.0000   1.0000   1.0000
     1.0000   1.0000   1.0000   1.0000   1.0000   1.0000   1.0000   1.0000
     1.0000   1.0000   1.0000   1.0000   1.0000   1.0000   1.0000   1.0000
     1.0000   1.0000   1.0000   1.0000   1.0000   1.0000   1.0000   1.0000
     1.0000   1.0000   1.0000   1.0000   1.0000   1.0000   1.0000   1.0000
     1.0000   1.0000   1.0000   1.0000   1.0000   1.0000   1.0000   1.0000
     1.0000   1.0000   1.0000   1.0000   1.0000   1.0000   1.0000   1.0000
     1.0000   1.0000   1.0000   1.0000   1.0000   1.0000   1.0000   1.0000
     1.0000   1.0000   1.0000   1.0000   1.0000   1.0000   1.0000   1.0000
     1.0000   1.0000   1.0000   1.0000   1.0000   1.0000   1.0000   1.0000
     1.0000   1.0000   1.0000   1.0000   1.0000   1.0000   1.0000   1.0000
     1.0000   1.0000   1.0000   1.0000   1.0000   1.0000   1.0000   1.0000
     1.0000   1.0000   1.0000   1.0000   1.0000   1.0000   1.0000   1.0000
     1.0000   1.0000   1.0000   1.0000   1.0000   1.0000   1.0000   1.0000

          k =-0.0574 0.0228-0.0650 ( 41788 PWs)   bands (ev):

   -23.9005 -23.8991 -23.8824 -23.8762 -23.5749 -23.5747 -23.5712 -23.5646
   -19.1294 -19.1274 -19.1174 -19.1092 -18.8019 -18.8003 -18.7739 -18.7709
   -18.2283 -18.2090 -17.1796 -17.1448 -17.0358 -17.0327 -16.0361 -16.0211
   -12.0865 -12.0804 -12.0115 -11.9542 -11.8173 -11.7850 -11.7626 -11.7490
    -8.8950  -8.8002  -8.2508  -8.2202  -7.5218  -7.5074  -7.4405  -7.3417
    -7.0416  -6.8846  -6.6038  -6.4882  -6.4603  -6.4250  -6.3779  -6.2833
    -6.2357  -6.1507  -5.9627  -5.9301  -5.8798  -5.8328  -5.7700  -5.7161
    -5.5984  -5.5607  -5.4702  -5.4113  -5.1308  -5.0022  -4.9624  -4.9090
    -4.3590  -4.3340  -4.2932  -4.2449  -3.9763  -3.9509  -3.8941  -3.8679
    -3.7353  -3.6646  -3.5611  -3.4914  -3.1947  -3.1733  -3.0316  -2.9834
    -0.7956  -0.7674  -0.2832  -0.2552  -0.2027  -0.1817  -0.0803  -0.0540
     0.0110   0.0361   0.2025   0.2234   0.2557   0.2732   0.3471   0.4261
     0.5044   0.5181   0.5987   0.6924   0.7809   0.8236   0.8841   0.9033
     0.9844   1.0252   1.0537   1.0817   1.3137   1.3433   1.3698   1.4038

     occupation numbers 
     1.0000   1.0000   1.0000   1.0000   1.0000   1.0000   1.0000   1.0000
     1.0000   1.0000   1.0000   1.0000   1.0000   1.0000   1.0000   1.0000
     1.0000   1.0000   1.0000   1.0000   1.0000   1.0000   1.0000   1.0000
     1.0000   1.0000   1.0000   1.0000   1.0000   1.0000   1.0000   1.0000
     1.0000   1.0000   1.0000   1.0000   1.0000   1.0000   1.0000   1.0000
     1.0000   1.0000   1.0000   1.0000   1.0000   1.0000   1.0000   1.0000
     1.0000   1.0000   1.0000   1.0000   1.0000   1.0000   1.0000   1.0000
     1.0000   1.0000   1.0000   1.0000   1.0000   1.0000   1.0000   1.0000
     1.0000   1.0000   1.0000   1.0000   1.0000   1.0000   1.0000   1.0000
     1.0000   1.0000   1.0000   1.0000   1.0000   1.0000   1.0000   1.0000
     1.0000   1.0000   1.0000   1.0000   1.0000   1.0000   1.0000   1.0000
     1.0000   1.0000   1.0000   1.0000   1.0000   1.0000   1.0000   1.0000
     1.0000   1.0000   1.0000   1.0000   1.0000   1.0000   1.0000   1.0000
     1.0000   1.0000   1.0000   1.0000   1.0000   1.0000   1.0000   1.0000

          k =-0.0574 0.0228 0.0396 ( 41762 PWs)   bands (ev):

   -23.9028 -23.8980 -23.8831 -23.8741 -23.5781 -23.5773 -23.5673 -23.5629
   -19.1277 -19.1264 -19.1179 -19.1116 -18.8027 -18.8012 -18.7730 -18.7700
   -18.2319 -18.2043 -17.1872 -17.1363 -17.0388 -17.0363 -16.0349 -16.0154
   -12.0927 -12.0840 -12.0293 -11.9424 -11.8247 -11.7728 -11.7578 -11.7498
    -8.8881  -8.7781  -8.2464  -8.2211  -7.5235  -7.5053  -7.4647  -7.3315
    -7.0543  -6.8819  -6.5973  -6.5071  -6.4705  -6.4446  -6.4029  -6.3183
    -6.2191  -6.1482  -5.9516  -5.9038  -5.8455  -5.8440  -5.7661  -5.7242
    -5.5784  -5.5545  -5.4737  -5.4080  -5.1320  -5.0321  -4.9294  -4.8892
    -4.3708  -4.3375  -4.2745  -4.2468  -4.0051  -3.9900  -3.8473  -3.8361
    -3.7009  -3.6856  -3.6099  -3.5019  -3.1972  -3.1673  -3.0302  -2.9893
    -0.7509  -0.7053  -0.2775  -0.2396  -0.2142  -0.1891  -0.0905  -0.0706
    -0.0593  -0.0146   0.1413   0.2095   0.2459   0.2863   0.3010   0.3345
     0.5669   0.6227   0.6725   0.6886   0.7933   0.8172   0.8924   0.9034
     0.9866   1.0198   1.0748   1.1209   1.3260   1.3403   1.3477   1.3702

     occupation numbers 
     1.0000   1.0000   1.0000   1.0000   1.0000   1.0000   1.0000   1.0000
     1.0000   1.0000   1.0000   1.0000   1.0000   1.0000   1.0000   1.0000
     1.0000   1.0000   1.0000   1.0000   1.0000   1.0000   1.0000   1.0000
     1.0000   1.0000   1.0000   1.0000   1.0000   1.0000   1.0000   1.0000
     1.0000   1.0000   1.0000   1.0000   1.0000   1.0000   1.0000   1.0000
     1.0000   1.0000   1.0000   1.0000   1.0000   1.0000   1.0000   1.0000
     1.0000   1.0000   1.0000   1.0000   1.0000   1.0000   1.0000   1.0000
     1.0000   1.0000   1.0000   1.0000   1.0000   1.0000   1.0000   1.0000
     1.0000   1.0000   1.0000   1.0000   1.0000   1.0000   1.0000   1.0000
     1.0000   1.0000   1.0000   1.0000   1.0000   1.0000   1.0000   1.0000
     1.0000   1.0000   1.0000   1.0000   1.0000   1.0000   1.0000   1.0000
     1.0000   1.0000   1.0000   1.0000   1.0000   1.0000   1.0000   1.0000
     1.0000   1.0000   1.0000   1.0000   1.0000   1.0000   1.0000   1.0000
     1.0000   1.0000   1.0000   1.0000   1.0000   1.0000   1.0000   1.0000

          k =-0.0574 0.0228 0.0047 ( 41783 PWs)   bands (ev):

   -23.9051 -23.8969 -23.8819 -23.8753 -23.5786 -23.5759 -23.5657 -23.5644
   -19.1263 -19.1254 -19.1155 -19.1150 -18.7941 -18.7936 -18.7797 -18.7786
   -18.2247 -18.2047 -17.1815 -17.1441 -17.0488 -17.0487 -16.0239 -16.0114
   -12.0791 -12.0725 -12.0220 -11.9496 -11.8370 -11.7894 -11.7528 -11.7483
    -8.8635  -8.7996  -8.2468  -8.2425  -7.5280  -7.5233  -7.5049  -7.4214
    -6.9692  -6.8999  -6.5856  -6.5654  -6.4365  -6.4298  -6.3037  -6.2806
    -6.1315  -6.1292  -5.9325  -5.8988  -5.8322  -5.8113  -5.7342  -5.7257
    -5.6048  -5.5861  -5.5209  -5.5117  -5.0950  -5.0763  -4.8776  -4.8734
    -4.4199  -4.3930  -4.3463  -4.3085  -4.0222  -3.9932  -3.7642  -3.7570
    -3.6782  -3.6498  -3.6202  -3.5709  -3.1648  -3.1364  -3.0360  -3.0218
    -0.6666  -0.6306  -0.2781  -0.2647  -0.2063  -0.1905  -0.1662  -0.1537
    -0.0605  -0.0265   0.0993   0.1521   0.2131   0.2494   0.3513   0.3852
     0.5879   0.6501   0.7287   0.7696   0.7727   0.8278   0.9153   0.9287
     0.9728   0.9854   1.0490   1.1163   1.3149   1.3185   1.3413   1.3569

     occupation numbers 
     1.0000   1.0000   1.0000   1.0000   1.0000   1.0000   1.0000   1.0000
     1.0000   1.0000   1.0000   1.0000   1.0000   1.0000   1.0000   1.0000
     1.0000   1.0000   1.0000   1.0000   1.0000   1.0000   1.0000   1.0000
     1.0000   1.0000   1.0000   1.0000   1.0000   1.0000   1.0000   1.0000
     1.0000   1.0000   1.0000   1.0000   1.0000   1.0000   1.0000   1.0000
     1.0000   1.0000   1.0000   1.0000   1.0000   1.0000   1.0000   1.0000
     1.0000   1.0000   1.0000   1.0000   1.0000   1.0000   1.0000   1.0000
     1.0000   1.0000   1.0000   1.0000   1.0000   1.0000   1.0000   1.0000
     1.0000   1.0000   1.0000   1.0000   1.0000   1.0000   1.0000   1.0000
     1.0000   1.0000   1.0000   1.0000   1.0000   1.0000   1.0000   1.0000
     1.0000   1.0000   1.0000   1.0000   1.0000   1.0000   1.0000   1.0000
     1.0000   1.0000   1.0000   1.0000   1.0000   1.0000   1.0000   1.0000
     1.0000   1.0000   1.0000   1.0000   1.0000   1.0000   1.0000   1.0000
     1.0000   1.0000   1.0000   1.0000   1.0000   1.0000   1.0000   1.0000

     highest occupied level (ev):     1.4038

!    total energy              =   -1282.01441968 Ry
     Harris-Foulkes estimate   =   -1282.01441989 Ry
     estimated scf accuracy    <       0.00000024 Ry

     total all-electron energy =     -4786.458167 Ry

     The total energy is the sum of the following terms:

     one-electron contribution =    -638.54790724 Ry
     hartree contribution      =     417.72074370 Ry
     xc contribution           =    -260.21901278 Ry
     ewald contribution        =    -470.57443280 Ry
     one-center paw contrib.   =    -330.39381055 Ry

     convergence has been achieved in  15 iterations

     Forces acting on atoms (Ry/au):

     atom    1 type  1   force =    -0.01381668   -0.00775896   -0.01461495
     atom    2 type  4   force =     0.02970564    0.00621484   -0.02209565
     atom    3 type  1   force =    -0.00209197   -0.00861078   -0.01131147
     atom    4 type  1   force =     0.00579920    0.00113135    0.00032464
     atom    5 type  4   force =     0.00256693   -0.02731458    0.03005126
     atom    6 type  1   force =     0.01372466    0.00091550   -0.00485270
     atom    7 type  4   force =    -0.01123298    0.02087944    0.04326382
     atom    8 type  2   force =     0.18120861   -0.11573894    0.05331204
     atom    9 type  3   force =    -0.13526142   -0.06098303   -0.13923482
     atom   10 type  3   force =    -0.04640041    0.18195351    0.08164560
     atom   11 type  4   force =    -0.03433250    0.02174925   -0.01568923
     atom   12 type  2   force =     0.12423346   -0.05317722    0.21231355
     atom   13 type  3   force =    -0.19846959   -0.10111841   -0.06159123
     atom   14 type  3   force =     0.06584905    0.15444889   -0.15373253
     atom   15 type  3   force =     0.06585006   -0.15444878   -0.15373192
     atom   16 type  3   force =    -0.19846962    0.10111813   -0.06159098
     atom   17 type  2   force =     0.12423531    0.05317716    0.21231169
     atom   18 type  4   force =    -0.03434474   -0.02176212   -0.01570455
     atom   19 type  3   force =    -0.04640072   -0.18195291    0.08164440
     atom   20 type  3   force =    -0.13526172    0.06098238   -0.13923461
     atom   21 type  2   force =     0.18120785    0.11574027    0.05330764
     atom   22 type  4   force =    -0.01125306   -0.02091259    0.04334874
     atom   23 type  1   force =     0.01372525   -0.00089237   -0.00483303
     atom   24 type  4   force =     0.00256539    0.02727561    0.03000476
     atom   25 type  1   force =     0.00580348   -0.00113385    0.00032075
     atom   26 type  1   force =    -0.00205794    0.00861921   -0.01136050
     atom   27 type  4   force =     0.02963298   -0.00620215   -0.02204670
     atom   28 type  1   force =    -0.01382004    0.00775829   -0.01461114
     atom   29 type  3   force =    -0.06584905   -0.15444889    0.15373253
     atom   30 type  3   force =     0.19846959    0.10111841    0.06159123
     atom   31 type  2   force =    -0.12423346    0.05317722   -0.21231355
     atom   32 type  4   force =     0.03433250   -0.02174925    0.01568923
     atom   33 type  3   force =     0.04640041   -0.18195351   -0.08164560
     atom   34 type  3   force =     0.13526142    0.06098303    0.13923482
     atom   35 type  2   force =    -0.18120861    0.11573894   -0.05331204
     atom   36 type  4   force =     0.01123298   -0.02087944   -0.04326382
     atom   37 type  1   force =    -0.01372466   -0.00091550    0.00485270
     atom   38 type  4   force =    -0.00256693    0.02731458   -0.03005126
     atom   39 type  1   force =    -0.00579920   -0.00113135   -0.00032464
     atom   40 type  1   force =     0.00209197    0.00861078    0.01131147
     atom   41 type  4   force =    -0.02970564   -0.00621484    0.02209565
     atom   42 type  1   force =     0.01381668    0.00775896    0.01461495
     atom   43 type  3   force =    -0.06585006    0.15444878    0.15373192
     atom   44 type  3   force =     0.19846962   -0.10111813    0.06159098
     atom   45 type  2   force =    -0.12423531   -0.05317716   -0.21231169
     atom   46 type  4   force =     0.03434474    0.02176212    0.01570455
     atom   47 type  3   force =     0.04640072    0.18195291   -0.08164440
     atom   48 type  3   force =     0.13526172   -0.06098238    0.13923461
     atom   49 type  2   force =    -0.18120785   -0.11574027   -0.05330764
     atom   50 type  4   force =     0.01125306    0.02091259   -0.04334874
     atom   51 type  1   force =    -0.01372525    0.00089237    0.00483303
     atom   52 type  4   force =    -0.00256539   -0.02727561   -0.03000476
     atom   53 type  1   force =    -0.00580348    0.00113385   -0.00032075
     atom   54 type  1   force =     0.00205794   -0.00861921    0.01136050
     atom   55 type  4   force =    -0.02963298    0.00620215    0.02204670
     atom   56 type  1   force =     0.01382004   -0.00775829    0.01461114
     The non-local contrib.  to forces
     atom    1 type  1   force =     0.17150354    0.38638386    0.11104303
     atom    2 type  4   force =    -2.40955965   -0.47904428    1.52735521
     atom    3 type  1   force =     0.04298623   -0.03296393    0.05432221
     atom    4 type  1   force =    -0.57541713   -0.41453690   -0.12143508
     atom    5 type  4   force =     0.14680870    1.86266351   -2.22538426
     atom    6 type  1   force =    -0.00452942    0.06343854    0.05246161
     atom    7 type  4   force =     0.53255103   -1.16760468   -2.62398515
     atom    8 type  2   force =     0.64475087   -0.43832005    0.17958245
     atom    9 type  3   force =     0.07933295    0.02752836    0.06978380
     atom   10 type  3   force =     0.02913490   -0.09921525   -0.03938786
     atom   11 type  4   force =     2.27622891   -1.47889452    0.83107489
     atom   12 type  2   force =     0.39022562   -0.18697894    0.69939120
     atom   13 type  3   force =     0.09467750    0.04884245    0.03792307
     atom   14 type  3   force =    -0.02895782   -0.07470395    0.08068114
     atom   15 type  3   force =    -0.02895791    0.07470422    0.08068151
     atom   16 type  3   force =     0.09467766   -0.04884259    0.03792320
     atom   17 type  2   force =     0.39022910    0.18698220    0.69940023
     atom   18 type  4   force =     2.27622071    1.47887494    0.83105525
     atom   19 type  3   force =     0.02913476    0.09921468   -0.03938773
     atom   20 type  3   force =     0.07933300   -0.02752844    0.06978387
     atom   21 type  2   force =     0.64475313    0.43831151    0.17958649
     atom   22 type  4   force =     0.53251270    1.16757748   -2.62389797
     atom   23 type  1   force =    -0.00452751   -0.06344933    0.05244452
     atom   24 type  4   force =     0.14681024   -1.86270370   -2.22542859
     atom   25 type  1   force =    -0.57541437    0.41453597   -0.12144709
     atom   26 type  1   force =     0.04296083    0.03296300    0.05435357
     atom   27 type  4   force =    -2.40963587    0.47904932    1.52742316
     atom   28 type  1   force =     0.17150106   -0.38638555    0.11105262
     atom   29 type  3   force =     0.02895782    0.07470395   -0.08068114
     atom   30 type  3   force =    -0.09467750   -0.04884245   -0.03792307
     atom   31 type  2   force =    -0.39022562    0.18697894   -0.69939120
     atom   32 type  4   force =    -2.27622891    1.47889452   -0.83107489
     atom   33 type  3   force =    -0.02913490    0.09921525    0.03938786
     atom   34 type  3   force =    -0.07933295   -0.02752836   -0.06978380
     atom   35 type  2   force =    -0.64475087    0.43832005   -0.17958245
     atom   36 type  4   force =    -0.53255103    1.16760468    2.62398515
     atom   37 type  1   force =     0.00452942   -0.06343854   -0.05246161
     atom   38 type  4   force =    -0.14680870   -1.86266351    2.22538426
     atom   39 type  1   force =     0.57541713    0.41453690    0.12143508
     atom   40 type  1   force =    -0.04298623    0.03296393   -0.05432221
     atom   41 type  4   force =     2.40955965    0.47904428   -1.52735521
     atom   42 type  1   force =    -0.17150354   -0.38638386   -0.11104303
     atom   43 type  3   force =     0.02895791   -0.07470422   -0.08068151
     atom   44 type  3   force =    -0.09467766    0.04884259   -0.03792320
     atom   45 type  2   force =    -0.39022910   -0.18698220   -0.69940023
     atom   46 type  4   force =    -2.27622071   -1.47887494   -0.83105525
     atom   47 type  3   force =    -0.02913476   -0.09921468    0.03938773
     atom   48 type  3   force =    -0.07933300    0.02752844   -0.06978387
     atom   49 type  2   force =    -0.64475313   -0.43831151   -0.17958649
     atom   50 type  4   force =    -0.53251270   -1.16757748    2.62389797
     atom   51 type  1   force =     0.00452751    0.06344933   -0.05244452
     atom   52 type  4   force =    -0.14681024    1.86270370    2.22542859
     atom   53 type  1   force =     0.57541437   -0.41453597    0.12144709
     atom   54 type  1   force =    -0.04296083   -0.03296300   -0.05435357
     atom   55 type  4   force =     2.40963587   -0.47904932   -1.52742316
     atom   56 type  1   force =    -0.17150106    0.38638555   -0.11105262
     The ionic contribution  to forces
     atom    1 type  1   force =    -3.02387657    0.23660129   -2.00927268
     atom    2 type  4   force =    12.24933486    4.29112474   -5.98154866
     atom    3 type  1   force =    -0.23583075    1.63139269   -0.00479884
     atom    4 type  1   force =     2.74477508    2.79019927    2.01307012
     atom    5 type  4   force =    -1.30946770   -8.59289141   11.32894774
     atom    6 type  1   force =    -0.38423696    0.05779432    1.08471183
     atom    7 type  4   force =    -2.06820689    6.30441879   12.48277303
     atom    8 type  2   force =    -4.04476332    3.23167947   -1.20395388
     atom    9 type  3   force =    -2.26197342   -0.15470241   -2.00865049
     atom   10 type  3   force =    -1.24600772    2.81197799    0.72629677
     atom   11 type  4   force =   -11.15006802    6.18242246   -2.29612313
     atom   12 type  2   force =    -2.86515807    1.00471966   -4.70567984
     atom   13 type  3   force =    -2.62752738   -1.07739290   -1.56905091
     atom   14 type  3   force =     0.24884752    2.04556841   -2.53310746
     atom   15 type  3   force =     0.24884752   -2.04556841   -2.53310746
     atom   16 type  3   force =    -2.62752738    1.07739290   -1.56905091
     atom   17 type  2   force =    -2.86515807   -1.00471966   -4.70567984
     atom   18 type  4   force =   -11.15006802   -6.18242246   -2.29612313
     atom   19 type  3   force =    -1.24600772   -2.81197799    0.72629677
     atom   20 type  3   force =    -2.26197342    0.15470241   -2.00865049
     atom   21 type  2   force =    -4.04476332   -3.23167947   -1.20395388
     atom   22 type  4   force =    -2.06820689   -6.30441879   12.48277303
     atom   23 type  1   force =    -0.38423696   -0.05779432    1.08471183
     atom   24 type  4   force =    -1.30946770    8.59289141   11.32894774
     atom   25 type  1   force =     2.74477508   -2.79019927    2.01307012
     atom   26 type  1   force =    -0.23583075   -1.63139269   -0.00479884
     atom   27 type  4   force =    12.24933486   -4.29112474   -5.98154866
     atom   28 type  1   force =    -3.02387657   -0.23660129   -2.00927268
     atom   29 type  3   force =    -0.24884752   -2.04556841    2.53310746
     atom   30 type  3   force =     2.62752738    1.07739290    1.56905091
     atom   31 type  2   force =     2.86515807   -1.00471966    4.70567984
     atom   32 type  4   force =    11.15006802   -6.18242246    2.29612313
     atom   33 type  3   force =     1.24600772   -2.81197799   -0.72629677
     atom   34 type  3   force =     2.26197342    0.15470241    2.00865049
     atom   35 type  2   force =     4.04476332   -3.23167947    1.20395388
     atom   36 type  4   force =     2.06820689   -6.30441879  -12.48277303
     atom   37 type  1   force =     0.38423696   -0.05779432   -1.08471183
     atom   38 type  4   force =     1.30946770    8.59289141  -11.32894774
     atom   39 type  1   force =    -2.74477508   -2.79019927   -2.01307012
     atom   40 type  1   force =     0.23583075   -1.63139269    0.00479884
     atom   41 type  4   force =   -12.24933486   -4.29112474    5.98154866
     atom   42 type  1   force =     3.02387657   -0.23660129    2.00927268
     atom   43 type  3   force =    -0.24884752    2.04556841    2.53310746
     atom   44 type  3   force =     2.62752738   -1.07739290    1.56905091
     atom   45 type  2   force =     2.86515807    1.00471966    4.70567984
     atom   46 type  4   force =    11.15006802    6.18242246    2.29612313
     atom   47 type  3   force =     1.24600772    2.81197799   -0.72629677
     atom   48 type  3   force =     2.26197342   -0.15470241    2.00865049
     atom   49 type  2   force =     4.04476332    3.23167947    1.20395388
     atom   50 type  4   force =     2.06820689    6.30441879  -12.48277303
     atom   51 type  1   force =     0.38423696    0.05779432   -1.08471183
     atom   52 type  4   force =     1.30946770   -8.59289141  -11.32894774
     atom   53 type  1   force =    -2.74477508    2.79019927   -2.01307012
     atom   54 type  1   force =     0.23583075    1.63139269    0.00479884
     atom   55 type  4   force =   -12.24933486    4.29112474    5.98154866
     atom   56 type  1   force =     3.02387657    0.23660129    2.00927268
     The local contribution  to forces
     atom    1 type  1   force =     2.84153340   -0.62424716    1.88540378
     atom    2 type  4   force =    -9.82892812   -3.80954219    4.44405520
     atom    3 type  1   force =     0.19030808   -1.60866058   -0.06066409
     atom    4 type  1   force =    -2.17287087   -2.38085084   -1.89289984
     atom    5 type  4   force =     1.16634409    6.71733835   -9.09097321
     atom    6 type  1   force =     0.40353581   -0.11877129   -1.14181999
     atom    7 type  4   force =     1.52853889   -5.12485697   -9.83579756
     atom    8 type  2   force =     3.59514541   -2.91904370    1.08247403
     atom    9 type  3   force =     2.04737445    0.06619298    1.79961797
     atom   10 type  3   force =     1.17047778   -2.53081317   -0.60527757
     atom   11 type  4   force =     8.85724373   -4.69345541    1.45596378
     atom   12 type  2   force =     2.60810206   -0.87472244    4.23443120
     atom   13 type  3   force =     2.33436798    0.92743508    1.46953336
     atom   14 type  3   force =    -0.15404680   -1.81641439    2.29869603
     atom   15 type  3   force =    -0.15405189    1.81641795    2.29869140
     atom   16 type  3   force =     2.33437223   -0.92742594    1.46954034
     atom   17 type  2   force =     2.60809918    0.87476267    4.23444340
     atom   18 type  4   force =     8.85726130    4.69339270    1.45596504
     atom   19 type  3   force =     1.17048725    2.53080669   -0.60526018
     atom   20 type  3   force =     2.04738094   -0.06618897    1.79963161
     atom   21 type  2   force =     3.59516669    2.91903697    1.08252697
     atom   22 type  4   force =     1.52847945    5.12480866   -9.83571917
     atom   23 type  1   force =     0.40353842    0.11864879   -1.14187593
     atom   24 type  4   force =     1.16637260   -6.71742627   -9.09098965
     atom   25 type  1   force =    -2.17286356    2.38076822   -1.89290084
     atom   26 type  1   force =     0.19017527    1.60863030   -0.06047194
     atom   27 type  4   force =    -9.82903620    3.80955559    4.44417927
     atom   28 type  1   force =     2.84151163    0.62424824    1.88548125
     atom   29 type  3   force =     0.15404680    1.81641439   -2.29869603
     atom   30 type  3   force =    -2.33436798   -0.92743508   -1.46953336
     atom   31 type  2   force =    -2.60810206    0.87472244   -4.23443120
     atom   32 type  4   force =    -8.85724373    4.69345541   -1.45596378
[...]
     atom   22 type  4   force =    -0.00429838   -0.00896223    0.02060044
     atom   23 type  1   force =    -0.00106690    0.00153555   -0.00025812
     atom   24 type  4   force =    -0.00113286    0.01453585    0.01767439
     atom   25 type  1   force =     0.00928285   -0.00616595    0.00124010
     atom   26 type  1   force =     0.00022183   -0.00139535   -0.00002937
     atom   27 type  4   force =     0.01900115   -0.00366327   -0.01205276
     atom   28 type  1   force =    -0.00352635    0.00574416   -0.00249624
     atom   29 type  3   force =     0.00000000    0.00000000    0.00000000
     atom   30 type  3   force =     0.00000000    0.00000000    0.00000000
     atom   31 type  2   force =     0.00562513   -0.00268660    0.01013367
     atom   32 type  4   force =     0.01790310   -0.01178129    0.00679823
     atom   33 type  3   force =     0.00000000    0.00000000    0.00000000
     atom   34 type  3   force =     0.00000000    0.00000000    0.00000000
     atom   35 type  2   force =     0.00902479   -0.00687395    0.00350776
     atom   36 type  4   force =     0.00429966   -0.00896169   -0.02060055
     atom   37 type  1   force =     0.00106713    0.00153549    0.00025820
     atom   38 type  4   force =     0.00113115    0.01453625   -0.01767451
     atom   39 type  1   force =    -0.00928375   -0.00616595   -0.00124161
     atom   40 type  1   force =    -0.00022258   -0.00139537    0.00003007
     atom   41 type  4   force =    -0.01900131   -0.00366441    0.01205248
     atom   42 type  1   force =     0.00352664    0.00574456    0.00249453
     atom   43 type  3   force =     0.00000000    0.00000000    0.00000000
     atom   44 type  3   force =     0.00000000    0.00000000    0.00000000
     atom   45 type  2   force =     0.00562519    0.00268571    0.01013711
     atom   46 type  4   force =     0.01790221    0.01178148    0.00679924
     atom   47 type  3   force =     0.00000000    0.00000000    0.00000000
     atom   48 type  3   force =     0.00000000    0.00000000    0.00000000
     atom   49 type  2   force =     0.00902392    0.00687410    0.00351245
     atom   50 type  4   force =     0.00429838    0.00896223   -0.02060044
     atom   51 type  1   force =     0.00106690   -0.00153555    0.00025812
     atom   52 type  4   force =     0.00113286   -0.01453585   -0.01767439
     atom   53 type  1   force =    -0.00928285    0.00616595   -0.00124010
     atom   54 type  1   force =    -0.00022183    0.00139535    0.00002937
     atom   55 type  4   force =    -0.01900115    0.00366327    0.01205276
     atom   56 type  1   force =     0.00352635   -0.00574416    0.00249624
     The Hubbard contrib.    to forces
     atom    1 type  1   force =     0.00000000    0.00000000    0.00000000
     atom    2 type  4   force =     0.00000000    0.00000000    0.00000000
     atom    3 type  1   force =     0.00000000    0.00000000    0.00000000
     atom    4 type  1   force =     0.00000000    0.00000000    0.00000000
     atom    5 type  4   force =     0.00000000    0.00000000    0.00000000
     atom    6 type  1   force =     0.00000000    0.00000000    0.00000000
     atom    7 type  4   force =     0.00000000    0.00000000    0.00000000
     atom    8 type  2   force =     0.00000000    0.00000000    0.00000000
     atom    9 type  3   force =     0.00000000    0.00000000    0.00000000
     atom   10 type  3   force =     0.00000000    0.00000000    0.00000000
     atom   11 type  4   force =     0.00000000    0.00000000    0.00000000
     atom   12 type  2   force =     0.00000000    0.00000000    0.00000000
     atom   13 type  3   force =     0.00000000    0.00000000    0.00000000
     atom   14 type  3   force =     0.00000000    0.00000000    0.00000000
     atom   15 type  3   force =     0.00000000    0.00000000    0.00000000
     atom   16 type  3   force =     0.00000000    0.00000000    0.00000000
     atom   17 type  2   force =     0.00000000    0.00000000    0.00000000
     atom   18 type  4   force =     0.00000000    0.00000000    0.00000000
     atom   19 type  3   force =     0.00000000    0.00000000    0.00000000
     atom   20 type  3   force =     0.00000000    0.00000000    0.00000000
     atom   21 type  2   force =     0.00000000    0.00000000    0.00000000
     atom   22 type  4   force =     0.00000000    0.00000000    0.00000000
     atom   23 type  1   force =     0.00000000    0.00000000    0.00000000
     atom   24 type  4   force =     0.00000000    0.00000000    0.00000000
     atom   25 type  1   force =     0.00000000    0.00000000    0.00000000
     atom   26 type  1   force =     0.00000000    0.00000000    0.00000000
     atom   27 type  4   force =     0.00000000    0.00000000    0.00000000
     atom   28 type  1   force =     0.00000000    0.00000000    0.00000000
     atom   29 type  3   force =     0.00000000    0.00000000    0.00000000
     atom   30 type  3   force =     0.00000000    0.00000000    0.00000000
     atom   31 type  2   force =     0.00000000    0.00000000    0.00000000
     atom   32 type  4   force =     0.00000000    0.00000000    0.00000000
     atom   33 type  3   force =     0.00000000    0.00000000    0.00000000
     atom   34 type  3   force =     0.00000000    0.00000000    0.00000000
     atom   35 type  2   force =     0.00000000    0.00000000    0.00000000
     atom   36 type  4   force =     0.00000000    0.00000000    0.00000000
     atom   37 type  1   force =     0.00000000    0.00000000    0.00000000
     atom   38 type  4   force =     0.00000000    0.00000000    0.00000000
     atom   39 type  1   force =     0.00000000    0.00000000    0.00000000
     atom   40 type  1   force =     0.00000000    0.00000000    0.00000000
     atom   41 type  4   force =     0.00000000    0.00000000    0.00000000
     atom   42 type  1   force =     0.00000000    0.00000000    0.00000000
     atom   43 type  3   force =     0.00000000    0.00000000    0.00000000
     atom   44 type  3   force =     0.00000000    0.00000000    0.00000000
     atom   45 type  2   force =     0.00000000    0.00000000    0.00000000
     atom   46 type  4   force =     0.00000000    0.00000000    0.00000000
     atom   47 type  3   force =     0.00000000    0.00000000    0.00000000
     atom   48 type  3   force =     0.00000000    0.00000000    0.00000000
     atom   49 type  2   force =     0.00000000    0.00000000    0.00000000
     atom   50 type  4   force =     0.00000000    0.00000000    0.00000000
     atom   51 type  1   force =     0.00000000    0.00000000    0.00000000
     atom   52 type  4   force =     0.00000000    0.00000000    0.00000000
     atom   53 type  1   force =     0.00000000    0.00000000    0.00000000
     atom   54 type  1   force =     0.00000000    0.00000000    0.00000000
     atom   55 type  4   force =     0.00000000    0.00000000    0.00000000
     atom   56 type  1   force =     0.00000000    0.00000000    0.00000000
     The SCF correction term to forces
     atom    1 type  1   force =     0.00000377    0.00000701   -0.00002013
     atom    2 type  4   force =     0.00000085   -0.00001209   -0.00000556
     atom    3 type  1   force =     0.00001485   -0.00002069   -0.00004830
     atom    4 type  1   force =     0.00001070   -0.00001280   -0.00002315
     atom    5 type  4   force =    -0.00001581   -0.00002875    0.00001220
     atom    6 type  1   force =    -0.00002648   -0.00000935   -0.00000625
     atom    7 type  4   force =     0.00001608   -0.00000708   -0.00002513
     atom    8 type  2   force =     0.00000396    0.00000064   -0.00002375
     atom    9 type  3   force =    -0.00000058    0.00000004   -0.00000328
     atom   10 type  3   force =    -0.00000141    0.00000002   -0.00000400
     atom   11 type  4   force =    -0.00004492    0.00001030   -0.00002381
     atom   12 type  2   force =    -0.00000934    0.00001832    0.00001893
     atom   13 type  3   force =    -0.00000316    0.00000229    0.00000263
     atom   14 type  3   force =    -0.00000071    0.00000259    0.00000383
     atom   15 type  3   force =    -0.00000086   -0.00000222   -0.00000102
     atom   16 type  3   force =    -0.00000187    0.00000033    0.00000096
     atom   17 type  2   force =    -0.00000820   -0.00000603    0.00001058
     atom   18 type  4   force =    -0.00001137   -0.00001423   -0.00000283
     atom   19 type  3   force =     0.00000035   -0.00000161    0.00000189
     atom   20 type  3   force =     0.00000046    0.00000060    0.00000002
     atom   21 type  2   force =     0.00000565   -0.00000483   -0.00000582
     atom   22 type  4   force =    -0.00001187   -0.00003359    0.00006355
     atom   23 type  1   force =    -0.00001791   -0.00001327   -0.00000604
     atom   24 type  4   force =    -0.00001097    0.00000727    0.00000756
     atom   25 type  1   force =    -0.00000241   -0.00000706   -0.00000550
     atom   26 type  1   force =    -0.00002256   -0.00000602    0.00003178
     atom   27 type  4   force =     0.00002980   -0.00000524   -0.00001281
     atom   28 type  1   force =    -0.00002515    0.00001393   -0.00000726
     atom   29 type  3   force =     0.00000071   -0.00000259   -0.00000383
     atom   30 type  3   force =     0.00000316   -0.00000229   -0.00000263
     atom   31 type  2   force =     0.00000934   -0.00001832   -0.00001893
     atom   32 type  4   force =     0.00004492   -0.00001030    0.00002381
     atom   33 type  3   force =     0.00000141   -0.00000002    0.00000400
     atom   34 type  3   force =     0.00000058   -0.00000004    0.00000328
     atom   35 type  2   force =    -0.00000396   -0.00000064    0.00002375
     atom   36 type  4   force =    -0.00001608    0.00000708    0.00002513
     atom   37 type  1   force =     0.00002648    0.00000935    0.00000625
     atom   38 type  4   force =     0.00001581    0.00002875   -0.00001220
     atom   39 type  1   force =    -0.00001070    0.00001280    0.00002315
     atom   40 type  1   force =    -0.00001485    0.00002069    0.00004830
     atom   41 type  4   force =    -0.00000085    0.00001209    0.00000556
     atom   42 type  1   force =    -0.00000377   -0.00000701    0.00002013
     atom   43 type  3   force =     0.00000086    0.00000222    0.00000102
     atom   44 type  3   force =     0.00000187   -0.00000033   -0.00000096
     atom   45 type  2   force =     0.00000820    0.00000603   -0.00001058
     atom   46 type  4   force =     0.00001137    0.00001423    0.00000283
     atom   47 type  3   force =    -0.00000035    0.00000161   -0.00000189
     atom   48 type  3   force =    -0.00000046   -0.00000060   -0.00000002
     atom   49 type  2   force =    -0.00000565    0.00000483    0.00000582
     atom   50 type  4   force =     0.00001187    0.00003359   -0.00006355
     atom   51 type  1   force =     0.00001791    0.00001327    0.00000604
     atom   52 type  4   force =     0.00001097   -0.00000727   -0.00000756
     atom   53 type  1   force =     0.00000241    0.00000706    0.00000550
     atom   54 type  1   force =     0.00002256    0.00000602   -0.00003178
     atom   55 type  4   force =    -0.00002980    0.00000524    0.00001281
     atom   56 type  1   force =     0.00002515   -0.00001393    0.00000726

     Total force =     0.006431     Total SCF correction =     0.000209


     entering subroutine stress ...

          total   stress  (Ry/bohr**3)                   (kbar)     P=   17.72
   0.00011789  -0.00000002   0.00000751         17.34     -0.00      1.10
  -0.00000002   0.00012191  -0.00000003         -0.00     17.93     -0.00
   0.00000751  -0.00000003   0.00012161          1.10     -0.00     17.89

     kinetic stress (kbar)  15048.81      0.01    331.84
                                0.01  15475.17      0.02
                              331.84      0.02  15022.03

     local   stress (kbar) -15153.10     -0.05   7527.68
                               -0.05  -8306.57      0.05
                             7527.68      0.05 -11395.71

     nonloc. stress (kbar)   1041.05      0.00      7.91
                                0.00   1050.32      0.00
                                7.91      0.00   1013.34

     hartree stress (kbar)   6834.27      0.04  -2719.36
                                0.04   4833.42      0.01
                            -2719.36      0.01   5415.91

     exc-cor stress (kbar)  -2172.69     -0.00    -10.96
                               -0.00  -2193.24     -0.00
                              -10.96     -0.00  -2178.51

     corecor stress (kbar)  -1137.67      0.00     -2.32
                                0.00  -1139.62      0.00
                               -2.32      0.00  -1137.71

     ewald   stress (kbar)  -4443.32     -0.00  -5133.68
                               -0.00  -9701.53     -0.08
                            -5133.68     -0.08  -6721.46

     hubbard stress (kbar)      0.00      0.00      0.00
                                0.00      0.00      0.00
                                0.00      0.00      0.00

     london  stress (kbar)      0.00      0.00      0.00
                                0.00      0.00      0.00
                                0.00      0.00      0.00

     XDM     stress (kbar)      0.00      0.00      0.00
                                0.00      0.00      0.00
                                0.00      0.00      0.00

     dft-nl  stress (kbar)      0.00      0.00      0.00
                                0.00      0.00      0.00
                                0.00      0.00      0.00

     TS-vdW  stress (kbar)      0.00      0.00      0.00
                                0.00      0.00      0.00
                                0.00      0.00      0.00



     bfgs converged in  13 scf cycles and  12 bfgs steps
     (criteria: energy <  1.0E-04, force <  1.0E-03)

     End of BFGS Geometry Optimization

     Final energy   =   -1282.3786447517 Ry
Begin final coordinates

ATOMIC_POSITIONS (crystal)
N        0.980619768   0.624316750   0.459323091
O        1.275240660   0.721884635   0.435705743
N        1.142058480   0.704643351   0.530899073
N        0.856385039   0.525052981   0.706099433
O        0.726257430   0.427438753   0.925898709
N        0.695396166   0.501448449   0.794720017
O        1.142101169   0.749544475   0.685674695
C        0.809389531   0.615821488   0.553110892
H        0.669890999   0.588060940   0.449980845
H        0.781539737   0.704812379   0.611167447
O        0.530504223   0.560804014   0.738068882
C        0.978145199   0.565372707   0.280840109
H        0.823885437   0.522384681   0.236623027
H        0.998179907   0.631761310   0.174836197
H        0.498182930  -0.131760392  -0.325165695
H        0.323888530  -0.022382650  -0.263379937
C        0.478146656  -0.065371209  -0.219162496
O        0.030490999  -0.060808405   0.238060483
H        0.281536507  -0.204811977   0.111162897
H        0.169888596  -0.088060509  -0.050022498
C        0.309389195  -0.115821461   0.053108363
O        0.642099485  -0.249540485   0.185668326
N        0.195398088  -0.001445273   0.294722372
O        0.226247558   0.072555086   0.425887959
N        0.356380473  -0.025054101   0.206095942
N        0.642050584  -0.204644129   0.030913101
O        0.775248871  -0.221884589  -0.064296430
N        0.480619408  -0.124316141  -0.040681791
H        1.001820093   0.368238690   0.825163803
H        1.176114563   0.477615319   0.763376973
C        1.021854801   0.434627293   0.719159891
O        1.469495777   0.439195986   0.261931118
H        1.218460263   0.295187621   0.388832553
H        1.330109001   0.411939060   0.550019155
C        1.190610469   0.384178512   0.446889108
O        0.857898831   0.250455525   0.314325305
N        1.304603834   0.498551551   0.205279983
O        1.273742570   0.572561247   0.074101291
N        1.143614961   0.474947019   0.293900567
N        0.857941520   0.295356649   0.469100927
O        0.724759340   0.278115365   0.564294257
N        1.019380232   0.375683250   0.540676909
H        0.501817070   0.131760392   0.325165695
H        0.676111470   0.022382650   0.263379937
C        0.521853344   0.065371209   0.219162496
O        0.969509001   0.060808405  -0.238060483
H        0.718463493   0.204811977  -0.111162897
H        0.830111404   0.088060509   0.050022498
C        0.690610805   0.115821461  -0.053108363
O        0.357900515   0.249540485  -0.185668326
N        0.804601912   0.001445273  -0.294722372
O        0.773752442  -0.072555086  -0.425887959
N        0.643619527   0.025054101  -0.206095942
N        0.357949416   0.204644129  -0.030913101
O        0.224751129   0.221884589   0.064296430
N        0.519380592   0.124316141   0.040681791
End final coordinates



     Writing output data file relax.pbe.ec-80.kp-4x2x4.HMX-792931.np-32.default-conv-thr.save

     init_run     :     75.52s CPU     95.29s WALL (       1 calls)
     electrons    :  23247.40s CPU  26453.93s WALL (      13 calls)
     update_pot   :    337.81s CPU    356.77s WALL (      12 calls)
     forces       :    571.32s CPU    719.48s WALL (      13 calls)
     stress       :   1719.45s CPU   1758.59s WALL (      13 calls)

     Called by init_run:
     wfcinit      :     43.75s CPU     55.75s WALL (       1 calls)
     potinit      :     10.27s CPU     10.92s WALL (       1 calls)

     Called by electrons:
     c_bands      :  20084.97s CPU  22639.53s WALL (     172 calls)
     sum_band     :   2804.51s CPU   3404.31s WALL (     172 calls)
     v_of_rho     :     80.86s CPU     99.26s WALL (     179 calls)
     v_h          :      5.60s CPU      7.81s WALL (     179 calls)
     v_xc         :     86.68s CPU    104.05s WALL (     205 calls)
     newd         :    169.68s CPU    163.72s WALL (     179 calls)
     PAW_pot      :     58.20s CPU     62.77s WALL (     191 calls)
     mix_rho      :     63.74s CPU     69.03s WALL (     172 calls)

     Called by c_bands:
     init_us_2    :    132.00s CPU    133.13s WALL (    6128 calls)
     cegterg      :  19389.21s CPU  21745.85s WALL (    2752 calls)

     Called by sum_band:
     sum_band:bec :      3.90s CPU      4.04s WALL (    2944 calls)
     addusdens    :    410.15s CPU    348.18s WALL (     172 calls)

     Called by *egterg:
     h_psi        :   8492.46s CPU  10451.47s WALL (   13438 calls)
     s_psi        :   1512.71s CPU   1241.98s WALL (   13438 calls)
     g_psi        :     20.96s CPU     24.65s WALL (   10670 calls)
     cdiaghg      :   4445.47s CPU   4028.82s WALL (   13134 calls)
     cegterg:over :   2098.85s CPU   3045.73s WALL (   10670 calls)
     cegterg:upda :   1161.54s CPU    902.16s WALL (   10670 calls)
     cegterg:last :    642.56s CPU    468.23s WALL (    2985 calls)

     Called by h_psi:
     h_psi:vloc   :   4780.09s CPU   5865.21s WALL (   13438 calls)
     h_psi:vnl    :   3648.59s CPU   4522.02s WALL (   13438 calls)
     add_vuspsi   :   1597.38s CPU   1628.95s WALL (   13438 calls)

     General routines
     calbec       :   3019.62s CPU   4400.01s WALL (   17422 calls)
     fft          :     70.66s CPU    115.03s WALL (    3173 calls)
     ffts         :      4.58s CPU      7.56s WALL (     351 calls)
     fftw         :   4303.57s CPU   5629.83s WALL ( 2120752 calls)
     interpolate  :     27.39s CPU     35.48s WALL (     351 calls)
     davcio       :      0.36s CPU     60.13s WALL (      16 calls)

     Parallel routines
     fft_scatter  :   2074.44s CPU   3302.70s WALL ( 2124276 calls)

     PAW routines
     PAW_pot      :     58.20s CPU     62.77s WALL (     191 calls)
     PAW_symme    :      0.41s CPU      0.67s WALL (     363 calls)

     PWSCF        :     7h15m CPU        8h15m WALL


   This run was terminated on:   4:46:38  21Jul2016            

=------------------------------------------------------------------------------=
   JOB DONE.
=------------------------------------------------------------------------------=
